  -4.0000000000000001E-002     0.0000000000000000     
  -3.9949999999999999E-002     0.0000000000000000     
  -3.9899999999999998E-002     0.0000000000000000     
  -3.9850000000000003E-002     0.0000000000000000     
  -3.9800000000000002E-002     0.0000000000000000     
  -3.9750000000000001E-002     0.0000000000000000     
  -3.9699999999999999E-002     0.0000000000000000     
  -3.9649999999999998E-002     0.0000000000000000     
  -3.9600000000000003E-002     0.0000000000000000     
  -3.9550000000000002E-002     0.0000000000000000     
  -3.9500000000000000E-002     0.0000000000000000     
  -3.9449999999999999E-002     0.0000000000000000     
  -3.9399999999999998E-002     0.0000000000000000     
  -3.9350000000000003E-002     0.0000000000000000     
  -3.9300000000000002E-002     0.0000000000000000     
  -3.9250000000000000E-002     0.0000000000000000     
  -3.9199999999999999E-002     0.0000000000000000     
  -3.9150000000000004E-002     0.0000000000000000     
  -3.9100000000000003E-002     0.0000000000000000     
  -3.9050000000000001E-002     0.0000000000000000     
  -3.9000000000000000E-002     0.0000000000000000     
  -3.8949999999999999E-002     0.0000000000000000     
  -3.8900000000000004E-002     0.0000000000000000     
  -3.8850000000000003E-002     0.0000000000000000     
  -3.8800000000000001E-002     0.0000000000000000     
  -3.8750000000000000E-002     0.0000000000000000     
  -3.8699999999999998E-002     0.0000000000000000     
  -3.8650000000000004E-002     0.0000000000000000     
  -3.8600000000000002E-002     0.0000000000000000     
  -3.8550000000000001E-002     0.0000000000000000     
  -3.8500000000000000E-002     0.0000000000000000     
  -3.8449999999999998E-002     6.3963476228514661E-040
  -3.8400000000000004E-002    -1.3533886998454011E-039
  -3.8350000000000002E-002    -1.1468728478099482E-038
  -3.8300000000000001E-002    -3.3770568290747444E-038
  -3.8249999999999999E-002    -5.5627476904515324E-038
  -3.8199999999999998E-002    -8.3691184023607362E-040
  -3.8150000000000003E-002     3.2385784642436325E-037
  -3.8100000000000002E-002     1.0457939037242039E-036
  -3.8050000000000000E-002     1.8777957490682534E-036
  -3.7999999999999999E-002     1.2782917349381164E-036
  -3.7949999999999998E-002    -4.2603418383219581E-036
  -3.7900000000000003E-002    -1.8866346810531137E-035
  -3.7850000000000002E-002    -4.0422554288996397E-035
  -3.7800000000000000E-002    -4.6014063754554552E-035
  -3.7749999999999999E-002     2.3578950900190879E-035
  -3.7699999999999997E-002     2.5411650687401033E-034
  -3.7650000000000003E-002     6.7519554082343431E-034
  -3.7600000000000001E-002     1.0653855006403529E-033
  -3.7550000000000000E-002     6.9729355978154681E-034
  -3.7499999999999999E-002    -1.7164000966425357E-033
  -3.7449999999999997E-002    -7.3607456101718371E-033
  -3.7400000000000003E-002    -1.5404190178571037E-032
  -3.7350000000000001E-002    -1.9978526775273333E-032
  -3.7300000000000000E-002    -7.9423078099700077E-033
  -3.7249999999999998E-002     3.8298983121587361E-032
  -3.7200000000000004E-002     1.2754207182822802E-031
  -3.7150000000000002E-002     2.3431907485262280E-031
  -3.7100000000000001E-002     2.7072108983877780E-031
  -3.7050000000000000E-002     8.2524462942467778E-032
  -3.6999999999999998E-002    -4.9026465882433763E-031
  -3.6950000000000004E-002    -1.4599173394128858E-030
  -3.6900000000000002E-002    -2.4728274751157944E-030
  -3.6850000000000001E-002    -2.6563316458076847E-030
  -3.6799999999999999E-002    -7.5892679786331028E-031
  -3.6749999999999998E-002     4.1917278840670805E-030
  -3.6700000000000003E-002     1.1709606833176126E-029
  -3.6650000000000002E-002     1.8616155379826989E-029
  -3.6600000000000001E-002     1.8767304873422604E-029
  -3.6549999999999999E-002     4.9713368809496506E-030
  -3.6499999999999998E-002    -2.6321510078249323E-029
  -3.6450000000000003E-002    -6.8750525774519787E-029
  -3.6400000000000002E-002    -1.0180578927243454E-028
  -3.6350000000000000E-002    -9.3809233757902634E-029
  -3.6299999999999999E-002    -1.5997439726849857E-029
  -3.6249999999999998E-002     1.3396820614024763E-028
  -3.6200000000000003E-002     3.0947348339192886E-028
  -3.6150000000000002E-002     4.1118551125227414E-028
  -3.6100000000000000E-002     3.1889469028891351E-028
  -3.6049999999999999E-002    -3.8861707827594860E-029
  -3.6000000000000004E-002    -6.0200713741750080E-028
  -3.5950000000000003E-002    -1.1340840434057838E-027
  -3.5900000000000001E-002    -1.2720378768891859E-027
  -3.5850000000000000E-002    -6.9390359023966849E-028
  -3.5799999999999998E-002     6.4387546824292274E-028
  -3.5750000000000004E-002     2.3264166572623648E-027
  -3.5700000000000003E-002     3.5145271440770561E-027
  -3.5650000000000001E-002     3.2796255384340013E-027
  -3.5600000000000000E-002     1.1519755587398799E-027
  -3.5549999999999998E-002    -2.4071788126607169E-027
  -3.5500000000000004E-002    -5.9860729434597680E-027
  -3.5450000000000002E-002    -7.8699980586192139E-027
  -3.5400000000000001E-002    -7.1472675411811346E-027
  -3.5349999999999999E-002    -4.5740838610662606E-027
  -3.5299999999999998E-002    -2.3074487407116343E-027
  -3.5250000000000004E-002    -2.0700562151162883E-027
  -3.5200000000000002E-002    -2.4424300542680148E-027
  -3.5150000000000001E-002     2.7239119144975093E-027
  -3.5099999999999999E-002     2.2290913406065276E-026
  -3.5049999999999998E-002     6.1015006274274710E-026
  -3.5000000000000003E-002     1.0993432141389483E-025
  -3.4950000000000002E-002     1.3984954882159734E-025
  -3.4900000000000000E-002     1.0573045996269390E-025
  -3.4849999999999999E-002    -3.2890732327967877E-026
  -3.4799999999999998E-002    -2.7894169713608554E-025
  -3.4750000000000003E-002    -5.6716452825826933E-025
  -3.4700000000000002E-002    -7.5880578930259587E-025
  -3.4650000000000000E-002    -6.8143460633803651E-025
  -3.4599999999999999E-002    -2.1472310632178294E-025
  -3.4549999999999997E-002     6.0761929691522868E-025
  -3.4500000000000003E-002     1.5373880286598475E-024
  -3.4450000000000001E-002     2.1548502461262613E-024
  -3.4400000000000000E-002     2.0418448264363927E-024
  -3.4349999999999999E-002     1.0389389134423364E-024
  -3.4299999999999997E-002    -5.4125683346006317E-025
  -3.4250000000000003E-002    -1.9132107484392840E-024
  -3.4200000000000001E-002    -2.1480419518567252E-024
  -3.4150000000000000E-002    -7.9256424307155283E-025
  -3.4099999999999998E-002     1.4859838307551825E-024
  -3.4049999999999997E-002     2.6694523649655714E-024
  -3.4000000000000002E-002     9.8774029203250565E-028
  -3.3950000000000001E-002    -8.4295923602285878E-024
  -3.3900000000000000E-002    -2.1554998796571059E-023
  -3.3849999999999998E-002    -3.3699724991234142E-023
  -3.3799999999999997E-002    -3.4828084014973652E-023
  -3.3750000000000002E-002    -1.3741506852932032E-023
  -3.3700000000000001E-002     3.5822469341191116E-023
  -3.3649999999999999E-002     1.0795508375871070E-022
  -3.3599999999999998E-002     1.7963383017571568E-022
  -3.3550000000000003E-002     2.1215960945373525E-022
  -3.3500000000000002E-002     1.6184913184416525E-022
  -3.3450000000000001E-002    -5.0026912872014919E-025
  -3.3399999999999999E-002    -2.6663636579416903E-022
  -3.3349999999999998E-002    -5.7404044640715195E-022
  -3.3300000000000003E-002    -8.0658718138127983E-022
  -3.3250000000000002E-002    -8.2080004992577441E-022
  -3.3200000000000000E-002    -4.9729658426651650E-022
  -3.3149999999999999E-002     1.9497752378437384E-022
  -3.3099999999999997E-002     1.1452800743835549E-021
  -3.3050000000000003E-002     2.0866486987339988E-021
  -3.3000000000000002E-002     2.6424405715895673E-021
  -3.2950000000000000E-002     2.4371175455283529E-021
  -3.2899999999999999E-002     1.2477514581053186E-021
  -3.2850000000000004E-002    -8.5299694816768372E-022
  -3.2800000000000003E-002    -3.4244179813319625E-021
  -3.2750000000000001E-002    -5.7077315043270533E-021
  -3.2700000000000000E-002    -6.8149247810107230E-021
  -3.2649999999999998E-002    -6.0199599007848326E-021
  -3.2600000000000004E-002    -3.0638293417575634E-021
  -3.2550000000000003E-002     1.6431881061676944E-021
  -3.2500000000000001E-002     7.0241983861701462E-021
  -3.2450000000000000E-002     1.1583734142817718E-020
  -3.2399999999999998E-002     1.3848545002537989E-020
  -3.2350000000000004E-002     1.2858175115125846E-020
  -3.2300000000000002E-002     8.5164683297421108E-021
  -3.2250000000000001E-002     1.6452256361007897E-021
  -3.2199999999999999E-002    -6.3090907265359112E-021
  -3.2149999999999998E-002    -1.3809061227394616E-020
  -3.2100000000000004E-002    -1.9757507322622277E-020
  -3.2050000000000002E-002    -2.3739904214307274E-020
  -3.2000000000000001E-002    -2.5790026232449195E-020
  -3.1949999999999999E-002    -2.5722357074150092E-020
  -3.1899999999999998E-002    -2.2360321191811953E-020
  -3.1850000000000003E-002    -1.3195340323061180E-020
  -3.1800000000000002E-002     5.0014504548775428E-021
  -3.1750000000000000E-002     3.4403990380330358E-020
  -3.1699999999999999E-002     7.3548535571767228E-020
  -3.1649999999999998E-002     1.1493693802931944E-019
  -3.1600000000000003E-002     1.4423918294506302E-019
  -3.1550000000000002E-002     1.4241563405977282E-019
  -3.1500000000000000E-002     9.1311586500948246E-020
  -3.1449999999999999E-002    -1.8079986644156705E-020
  -3.1399999999999997E-002    -1.7705184454184780E-019
  -3.1350000000000003E-002    -3.5382905729071518E-019
  -3.1300000000000001E-002    -4.9504334633739255E-019
  -3.1250000000000000E-002    -5.3627414531839500E-019
  -3.1199999999999999E-002    -4.2110882233280495E-019
  -3.1150000000000001E-002    -1.2463647164850411E-019
  -3.1100000000000003E-002     3.2583137366841909E-019
  -3.1050000000000001E-002     8.4137307316360270E-019
  -3.1000000000000000E-002     1.2805005285449727E-018
  -3.0949999999999998E-002     1.4792046307534723E-018
  -3.0900000000000000E-002     1.2978283650804631E-018
  -3.0850000000000002E-002     6.7352960672244286E-019
  -3.0800000000000001E-002    -3.3780138948798495E-019
  -3.0750000000000000E-002    -1.5467672715004744E-018
  -3.0699999999999998E-002    -2.6542803739463483E-018
  -3.0650000000000000E-002    -3.3152479688399576E-018
  -3.0600000000000002E-002    -3.2306953967755298E-018
  -3.0550000000000001E-002    -2.2455015616328761E-018
  -3.0499999999999999E-002    -4.2292850925957480E-019
  -3.0449999999999998E-002     1.9305810808479040E-018
  -3.0400000000000000E-002     4.3057590756534870E-018
  -3.0350000000000002E-002     6.0939283850732155E-018
  -3.0300000000000001E-002     6.7324003125357326E-018
  -3.0249999999999999E-002     5.8562131383329284E-018
  -3.0200000000000001E-002     3.4155650810544803E-018
  -3.0150000000000000E-002    -2.7486043242350937E-019
  -3.0100000000000002E-002    -4.5712954070782909E-018
  -3.0050000000000000E-002    -8.6152065933249669E-018
  -2.9999999999999999E-002    -1.1500144707391042E-017
  -2.9950000000000001E-002    -1.2452605743783874E-017
  -2.9899999999999999E-002    -1.0988369986725497E-017
  -2.9850000000000002E-002    -7.0169190181564102E-018
  -2.9800000000000000E-002    -8.8355790495164035E-019
  -2.9749999999999999E-002     6.6457378708538262E-018
  -2.9700000000000001E-002     1.4444886884162683E-017
  -2.9650000000000003E-002     2.1125941055571771E-017
  -2.9600000000000001E-002     2.5179111727893277E-017
  -2.9550000000000000E-002     2.5169577837052063E-017
  -2.9499999999999998E-002     2.0004969940266155E-017
  -2.9450000000000000E-002     9.2669175774459859E-018
  -2.9400000000000003E-002    -6.4400252200351555E-018
  -2.9350000000000001E-002    -2.5217064166701480E-017
  -2.9300000000000000E-002    -4.3808917627628439E-017
  -2.9249999999999998E-002    -5.7882886274057633E-017
  -2.9200000000000000E-002    -6.2728771692306776E-017
  -2.9150000000000002E-002    -5.4350610360926321E-017
  -2.9100000000000001E-002    -3.0775839369243671E-017
  -2.9049999999999999E-002     6.7341060842073352E-018
  -2.8999999999999998E-002     5.2972967567165253E-017
  -2.8950000000000000E-002     9.8960244993225154E-017
  -2.8900000000000002E-002     1.3322342043435174E-016
  -2.8850000000000001E-002     1.4415122838453609E-016
  -2.8799999999999999E-002     1.2304167562455559E-016
  -2.8749999999999998E-002     6.7159476394988627E-017
  -2.8700000000000000E-002    -1.8060376138053018E-017
  -2.8650000000000002E-002    -1.1848711279573390E-016
  -2.8600000000000000E-002    -2.1297736886878041E-016
  -2.8549999999999999E-002    -2.7728571070599994E-016
  -2.8500000000000001E-002    -2.8960014800698531E-016
  -2.8450000000000000E-002    -2.3653386729820387E-016
  -2.8400000000000002E-002    -1.1806542976192335E-016
  -2.8350000000000000E-002     5.0050891240142327E-017
  -2.8299999999999999E-002     2.3744393932937362E-016
  -2.8250000000000001E-002     4.0410325967866047E-016
  -2.8200000000000003E-002     5.0846237484039524E-016
  -2.8150000000000001E-002     5.1698334361322686E-016
  -2.8100000000000000E-002     4.1306947141688601E-016
  -2.8049999999999999E-002     2.0307195493877375E-016
  -2.8000000000000001E-002    -8.2337648858137745E-017
  -2.7950000000000003E-002    -3.9217577793732434E-016
  -2.7900000000000001E-002    -6.6405616561845895E-016
  -2.7850000000000000E-002    -8.3635046756739770E-016
  -2.7799999999999998E-002    -8.6113768780249468E-016
  -2.7750000000000000E-002    -7.1522943575005574E-016
  -2.7700000000000002E-002    -4.0692482762777992E-016
  -2.7650000000000001E-002     2.2974857674088161E-017
  -2.7600000000000000E-002     5.0620891111894259E-016
  -2.7549999999999998E-002     9.5733667658474948E-016
  -2.7500000000000000E-002     1.2875552627226572E-015
  -2.7450000000000002E-002     1.4198823304947129E-015
  -2.7400000000000001E-002     1.3034618107540041E-015
  -2.7349999999999999E-002     9.2496863887186498E-016
  -2.7299999999999998E-002     3.1544715738244883E-016
  -2.7250000000000000E-002    -4.4871550222339652E-016
  -2.7200000000000002E-002    -1.2516089062443244E-015
  -2.7150000000000001E-002    -1.9508707122442840E-015
  -2.7099999999999999E-002    -2.3977251894533215E-015
  -2.7049999999999998E-002    -2.4625480155675437E-015
  -2.7000000000000000E-002    -2.0629828419176078E-015
  -2.6950000000000002E-002    -1.1899631638605097E-015
  -2.6900000000000000E-002     7.4290004822274242E-017
  -2.6849999999999999E-002     1.5525223586120503E-015
  -2.6800000000000001E-002     2.9878862607327354E-015
  -2.6749999999999999E-002     4.0804057888453076E-015
  -2.6700000000000002E-002     4.5416503231647126E-015
  -2.6650000000000000E-002     4.1594657871519420E-015
  -2.6599999999999999E-002     2.8599124374929463E-015
  -2.6550000000000001E-002     7.5106395907642384E-016
  -2.6500000000000003E-002    -1.8657491786410145E-015
  -2.6450000000000001E-002    -4.5267003709537454E-015
  -2.6400000000000000E-002    -6.6791991283229704E-015
  -2.6349999999999998E-002    -7.7890775208065310E-015
  -2.6300000000000000E-002    -7.4617648266755760E-015
  -2.6250000000000002E-002    -5.5511960564347257E-015
  -2.6200000000000001E-002    -2.2290059251908083E-015
  -2.6150000000000000E-002     2.0079515383149256E-015
  -2.6099999999999998E-002     6.4019724137425515E-015
  -2.6050000000000000E-002     1.0065208247054593E-014
  -2.6000000000000002E-002     1.2154809201377499E-014
  -2.5950000000000001E-002     1.2057866183810265E-014
  -2.5899999999999999E-002     9.5457381201162701E-015
  -2.5849999999999998E-002     4.8607471959108058E-015
  -2.5800000000000000E-002    -1.2894984248269188E-015
  -2.5750000000000002E-002    -7.8359911905174978E-015
  -2.5700000000000001E-002    -1.3534963249741387E-014
  -2.5649999999999999E-002    -1.7203041917943433E-014
  -2.5599999999999998E-002    -1.7954852003713477E-014
  -2.5550000000000000E-002    -1.5394972361328472E-014
  -2.5500000000000002E-002    -9.7244385869582590E-015
  -2.5450000000000000E-002    -1.7385722114452348E-015
  -2.5399999999999999E-002     7.2859033725353079E-015
  -2.5349999999999998E-002     1.5795519674127825E-014
  -2.5300000000000000E-002     2.2221059861841063E-014
  -2.5250000000000002E-002     2.5250321177772069E-014
  -2.5200000000000000E-002     2.4067347643355773E-014
  -2.5149999999999999E-002     1.8519564889960204E-014
  -2.5100000000000001E-002     9.1860540855120302E-015
  -2.5049999999999999E-002    -2.6654336409773148E-015
  -2.5000000000000001E-002    -1.5230642324500861E-014
  -2.4950000000000000E-002    -2.6414713610230297E-014
  -2.4899999999999999E-002    -3.4144611667090749E-014
  -2.4850000000000001E-002    -3.6710667077139731E-014
  -2.4800000000000003E-002    -3.3091327194080793E-014
  -2.4750000000000001E-002    -2.3209816018586211E-014
  -2.4700000000000000E-002    -8.0711078867090663E-015
  -2.4649999999999998E-002     1.0264658542037062E-014
  -2.4600000000000000E-002     2.8898133737062844E-014
  -2.4550000000000002E-002     4.4493119204773064E-014
  -2.4500000000000001E-002     5.3825882944325428E-014
  -2.4450000000000000E-002     5.4403259471698760E-014
  -2.4399999999999998E-002     4.5040322484165370E-014
  -2.4350000000000000E-002     2.6273968552401998E-014
  -2.4299999999999999E-002     4.9929305015713214E-016
  -2.4250000000000001E-002    -2.8245572714206209E-014
  -2.4199999999999999E-002    -5.4857099865399198E-014
  -2.4150000000000001E-002    -7.4039791467367471E-014
  -2.4100000000000000E-002    -8.1333605525083508E-014
  -2.4049999999999998E-002    -7.4098843305811277E-014
  -2.4000000000000000E-002    -5.2244909799212382E-014
  -2.3949999999999999E-002    -1.8518427379928922E-014
  -2.3900000000000001E-002     2.1758885382795946E-014
  -2.3850000000000000E-002     6.1504038608714895E-014
  -2.3800000000000002E-002     9.3120204005348300E-014
  -2.3750000000000000E-002     1.0995507505538824E-013
  -2.3699999999999999E-002     1.0768403350552696E-013
  -2.3650000000000001E-002     8.5326559879500135E-014
  -2.3599999999999999E-002     4.5662884165864849E-014
  -2.3550000000000001E-002    -5.0696361254276596E-015
  -2.3500000000000000E-002    -5.8176568662114583E-014
  -2.3449999999999999E-002    -1.0403431495468530E-013
  -2.3400000000000001E-002    -1.3386347731697004E-013
  -2.3349999999999999E-002    -1.4140758587414068E-013
  -2.3300000000000001E-002    -1.2418973429391898E-013
  -2.3250000000000000E-002    -8.4098540198519208E-014
  -2.3199999999999998E-002    -2.7183953358490233E-014
  -2.3150000000000000E-002     3.7305642848674923E-014
  -2.3099999999999999E-002     9.8472067477197962E-014
  -2.3050000000000001E-002     1.4562414770407611E-013
  -2.3000000000000000E-002     1.7011670490775325E-013
  -2.2950000000000002E-002     1.6685789490117829E-013
  -2.2900000000000000E-002     1.3523777645354219E-013
  -2.2849999999999999E-002     7.9334121898308563E-014
  -2.2800000000000001E-002     7.3705532559588005E-015
  -2.2749999999999999E-002    -6.9484611412347018E-014
  -2.2700000000000001E-002    -1.3879821466390655E-013
  -2.2650000000000000E-002    -1.8878836148098529E-013
  -2.2599999999999999E-002    -2.1020614734621635E-013
  -2.2550000000000001E-002    -1.9791520519382515E-013
  -2.2499999999999999E-002    -1.5193198329538539E-013
  -2.2450000000000001E-002    -7.7747517379547395E-014
  -2.2400000000000000E-002     1.4170089835937026E-014
  -2.2349999999999998E-002     1.0969016418362032E-013
  -2.2300000000000000E-002     1.9303274255153162E-013
  -2.2249999999999999E-002     2.4924066666961010E-013
  -2.2200000000000001E-002     2.6676256864817119E-013
  -2.2150000000000000E-002     2.3972707125351054E-013
  -2.2100000000000002E-002     1.6947833383283859E-013
  -2.2050000000000000E-002     6.5007599547647993E-014
  -2.1999999999999999E-002    -5.7933817686552007E-014
  -2.1950000000000001E-002    -1.7903814223498473E-013
  -2.1899999999999999E-002    -2.7670530745651144E-013
  -2.1850000000000001E-002    -3.3187025965853244E-013
  -2.1800000000000000E-002    -3.3172206296409972E-013
  -2.1749999999999999E-002    -2.7258460050058913E-013
  -2.1700000000000001E-002    -1.6131479637566916E-013
  -2.1649999999999999E-002    -1.4806284734024245E-014
  -2.1600000000000001E-002     1.4247020964289880E-013
  -2.1550000000000000E-002     2.8256557870986561E-013
  -2.1499999999999998E-002     3.7910424216070624E-013
  -2.1450000000000000E-002     4.1235618932756539E-013
  -2.1399999999999999E-002     3.7332394940517851E-013
  -2.1350000000000001E-002     2.6597567135611024E-013
  -2.1299999999999999E-002     1.0708079197006296E-013
  -2.1250000000000002E-002    -7.6435474885307893E-014
  -2.1200000000000000E-002    -2.5220193834992645E-013
  -2.1149999999999999E-002    -3.8832269988095026E-013
  -2.1100000000000001E-002    -4.5938107853494647E-013
  -2.1049999999999999E-002    -4.5134720828145168E-013
  -2.1000000000000001E-002    -3.6440139734454944E-013
  -2.0950000000000000E-002    -2.1308757767157009E-013
  -2.0899999999999998E-002    -2.3737726229745907E-014
  -2.0850000000000000E-002     1.7034849528124118E-013
  -2.0799999999999999E-002     3.3503694687906291E-013
  -2.0750000000000001E-002     4.4161839213789645E-013
  -2.0700000000000000E-002     4.7199613460798453E-013
  -2.0649999999999998E-002     4.2183379765226331E-013
  -2.0600000000000000E-002     3.0111551118277916E-013
  -2.0549999999999999E-002     1.3208459954745810E-013
  -2.0500000000000001E-002    -5.4970434710197642E-014
  -2.0449999999999999E-002    -2.2723081005291469E-013
  -2.0400000000000001E-002    -3.5511468122002174E-013
  -2.0350000000000000E-002    -4.1726747668391724E-013
  -2.0299999999999999E-002    -4.0395904532750480E-013
  -2.0250000000000001E-002    -3.1841408014113429E-013
  -2.0199999999999999E-002    -1.7599776262831677E-013
  -2.0150000000000001E-002    -1.5340594435872428E-015
  -2.0100000000000000E-002     1.7470515248475281E-013
  -2.0049999999999998E-002     3.2167196801805775E-013
  -2.0000000000000000E-002     4.1220135371742336E-013
  -1.9949999999999999E-002     4.2707022673088658E-013
  -1.9900000000000001E-002     3.5800349478602724E-013
  -1.9850000000000000E-002     2.0931534031393222E-013
  -1.9799999999999998E-002    -1.9987776252601183E-015
  -1.9750000000000000E-002    -2.4779078561053353E-013
  -1.9699999999999999E-002    -4.9186260719228592E-013
  -1.9650000000000001E-002    -6.9444686979946091E-013
  -1.9599999999999999E-002    -8.1767962695088265E-013
  -1.9550000000000001E-002    -8.3145875427819636E-013
  -1.9500000000000000E-002    -7.1887865256142201E-013
  -1.9449999999999999E-002    -4.8030834179560168E-013
  -1.9400000000000001E-002    -1.3521604195105690E-013
  -1.9349999999999999E-002     2.7892110347575196E-013
  -1.9300000000000001E-002     7.1083564179756814E-013
  -1.9250000000000000E-002     1.1024367964549471E-012
  -1.9199999999999998E-002     1.3975127770094375E-012
  -1.9150000000000000E-002     1.5506509701256183E-012
  -1.9099999999999999E-002     1.5346173109953563E-012
  -1.9050000000000001E-002     1.3445819301366252E-012
  -1.9000000000000000E-002     9.9812251022446130E-013
  -1.8949999999999998E-002     5.3080712868218823E-013
  -1.8900000000000000E-002    -1.1828166808632057E-014
  -1.8849999999999999E-002    -5.8416253096433335E-013
  -1.8800000000000001E-002    -1.1499005182638132E-012
  -1.8749999999999999E-002    -1.6885923769671158E-012
  -1.8700000000000001E-002    -2.1973496191615657E-012
  -1.8650000000000000E-002    -2.6868535717557553E-012
  -1.8599999999999998E-002    -3.1720517481411933E-012
  -1.8550000000000001E-002    -3.6592455799385510E-012
  -1.8499999999999999E-002    -4.1322480097589653E-012
  -1.8450000000000001E-002    -4.5406932799369289E-012
  -1.8400000000000000E-002    -4.7932854134630174E-012
  -1.8349999999999998E-002    -4.7578026780161498E-012
  -1.8300000000000000E-002    -4.2682931056105807E-012
  -1.8249999999999999E-002    -3.1383604027677255E-012
  -1.8200000000000001E-002    -1.1781605327410597E-012
  -1.8149999999999999E-002     1.7880305911947867E-012
  -1.8100000000000002E-002     5.9068104450004762E-012
  -1.8050000000000000E-002     1.1285722189611943E-011
  -1.7999999999999999E-002     1.7989671207722104E-011
  -1.7950000000000001E-002     2.6043589650750192E-011
  -1.7899999999999999E-002     3.5439903626427909E-011
  -1.7850000000000001E-002     4.6148560976736392E-011
  -1.7800000000000000E-002     5.8127143017572104E-011
  -1.7749999999999998E-002     7.1328826811738412E-011
  -1.7700000000000000E-002     8.5707162536884482E-011
  -1.7649999999999999E-002     1.0121718581558014E-010
  -1.7600000000000001E-002     1.1781396423632043E-010
  -1.7550000000000000E-002     1.3544983124632601E-010
  -1.7499999999999998E-002     1.5407180074758973E-010
  -1.7450000000000000E-002     1.7362052002944257E-010
  -1.7399999999999999E-002     1.9403122658031530E-010
  -1.7350000000000001E-002     2.1523636776954960E-010
  -1.7299999999999999E-002     2.3716915432813245E-010
  -1.7250000000000001E-002     2.5976671556835887E-010
  -1.7200000000000000E-002     2.8297211375604807E-010
  -1.7149999999999999E-002     3.0673460451273145E-010
  -1.7100000000000001E-002     3.3100888753380391E-010
  -1.7049999999999999E-002     3.5575344782114712E-010
  -1.7000000000000001E-002     3.8093012875736028E-010
  -1.6950000000000000E-002     4.0650542658650953E-010
  -1.6899999999999998E-002     4.3245400795803431E-010
  -1.6850000000000000E-002     4.5876429359953233E-010
  -1.6799999999999999E-002     4.8544426368168980E-010
  -1.6750000000000001E-002     5.1252600185382555E-010
  -1.6700000000000000E-002     5.4006636373838870E-010
  -1.6649999999999998E-002     5.6814303616025403E-010
  -1.6600000000000000E-002     5.9684525144023373E-010
  -1.6549999999999999E-002     6.2626010379954113E-010
  -1.6500000000000001E-002     6.5645804015368269E-010
  -1.6449999999999999E-002     6.8748021654319272E-010
  -1.6400000000000001E-002     7.1933179553843799E-010
  -1.6350000000000000E-002     7.5198333381566161E-010
  -1.6299999999999999E-002     7.8538092620195001E-010
  -1.6250000000000001E-002     8.1946356846548645E-010
  -1.6199999999999999E-002     8.5418490180676507E-010
  -1.6150000000000001E-002     8.8953332402532290E-010
  -1.6100000000000000E-002     9.2554646037982926E-010
  -1.6049999999999998E-002     9.6231503092266417E-010
  -1.6000000000000000E-002     9.9997482300511798E-010
  -1.5949999999999999E-002     1.0386874759623654E-009
  -1.5900000000000001E-002     1.0786140347661715E-009
  -1.5850000000000000E-002     1.1198872680693956E-009
  -1.5799999999999998E-002     1.1625886710624906E-009
  -1.5750000000000000E-002     1.2067357320862886E-009
  -1.5699999999999999E-002     1.2522839135814302E-009
  -1.5650000000000001E-002     1.2991412675609271E-009
  -1.5599999999999999E-002     1.3471944073747084E-009
  -1.5550000000000001E-002     1.3963374854246075E-009
  -1.5500000000000000E-002     1.4465001522746540E-009
  -1.5449999999999998E-002     1.4976656656872947E-009
  -1.5400000000000000E-002     1.5498778489355581E-009
  -1.5349999999999999E-002     1.6032334120596724E-009
  -1.5300000000000001E-002     1.6578641378752920E-009
  -1.5250000000000000E-002     1.7139134579258322E-009
  -1.5199999999999998E-002     1.7715144773535815E-009
  -1.5150000000000000E-002     1.8307737192467167E-009
  -1.5099999999999999E-002     1.8917647534153509E-009
  -1.5050000000000001E-002     1.9545340661300645E-009
  -1.4999999999999999E-002     2.0191124860408135E-009
  -1.4949999999999998E-002     2.0855320475883220E-009
  -1.4900000000000000E-002     2.1538391455099146E-009
  -1.4849999999999999E-002     2.2241024662555509E-009
  -1.4800000000000001E-002     2.2964100252700827E-009
  -1.4749999999999999E-002     2.3708585499826116E-009
  -1.4700000000000001E-002     2.4475376642937625E-009
  -1.4650000000000000E-002     2.5265136867132548E-009
  -1.4599999999999998E-002     2.6078194445388597E-009
  -1.4550000000000000E-002     2.6914542450303989E-009
  -1.4499999999999999E-002     2.7773925410719295E-009
  -1.4450000000000001E-002     2.8656032180836901E-009
  -1.4400000000000000E-002     2.9560702404434469E-009
  -1.4349999999999998E-002     3.0488115821880643E-009
  -1.4300000000000000E-002     3.1438913154030278E-009
  -1.4249999999999999E-002     3.2414199336820159E-009
  -1.4200000000000001E-002     3.3415443116301889E-009
  -1.4149999999999999E-002     3.4444254291963498E-009
  -1.4099999999999998E-002     3.5502185193042718E-009
  -1.4050000000000000E-002     3.6590541922446033E-009
  -1.3999999999999999E-002     3.7710280137616584E-009
  -1.3950000000000001E-002     3.8862071555418635E-009
  -1.3899999999999999E-002     4.0046448103151286E-009
  -1.3850000000000001E-002     4.1264028879261287E-009
  -1.3800000000000000E-002     4.2515750713732965E-009
  -1.3749999999999998E-002     4.3803031012522878E-009
  -1.3700000000000000E-002     4.5127764394525881E-009
  -1.3649999999999999E-002     4.6492175215405134E-009
  -1.3600000000000001E-002     4.7898537937430784E-009
  -1.3550000000000000E-002     4.9348793355600847E-009
  -1.3499999999999998E-002     5.0844241154763629E-009
  -1.3450000000000000E-002     5.2385330517308744E-009
  -1.3399999999999999E-002     5.3971630524046456E-009
  -1.3350000000000001E-002     5.5602051756882460E-009
  -1.3299999999999999E-002     5.7275214200914492E-009
  -1.3249999999999998E-002     5.8989958364668933E-009
  -1.3200000000000000E-002     6.0745821522977338E-009
  -1.3149999999999998E-002     6.2543391885851126E-009
  -1.3100000000000001E-002     6.4384460789500263E-009
  -1.3049999999999999E-002     6.6271901973207568E-009
  -1.3000000000000001E-002     6.8209324372095257E-009
  -1.2950000000000000E-002     7.0200588236627702E-009
  -1.2899999999999998E-002     7.2249250722098758E-009
  -1.2850000000000000E-002     7.4358165475092680E-009
  -1.2799999999999999E-002     7.6529250579904117E-009