  -4.0000000000000001E-002     0.0000000000000000     
  -3.9949999999999999E-002     0.0000000000000000     
  -3.9899999999999998E-002     0.0000000000000000     
  -3.9850000000000003E-002     0.0000000000000000     
  -3.9800000000000002E-002     0.0000000000000000     
  -3.9750000000000001E-002     3.2611854186203288E-019
  -3.9699999999999999E-002     2.2402304240295717E-018
  -3.9649999999999998E-002     7.5249814509827751E-018
  -3.9600000000000003E-002     1.5690911601555821E-017
  -3.9550000000000002E-002     1.9706040280986642E-017
  -3.9500000000000000E-002     3.0789741910654954E-018
  -3.9449999999999999E-002    -5.9081414579054226E-017
  -3.9399999999999998E-002    -1.9165930632359741E-016
  -3.9350000000000003E-002    -3.9879430718688363E-016
  -3.9300000000000002E-002    -6.3587834719975805E-016
  -3.9250000000000000E-002    -8.0849848317598802E-016
  -3.9199999999999999E-002    -8.4606811767176697E-016
  -3.9150000000000004E-002    -8.2851431811548667E-016
  -3.9100000000000003E-002    -9.9282023884050639E-016
  -3.9050000000000001E-002    -1.3805230028791016E-015
  -3.9000000000000000E-002    -1.1497398067877908E-015
  -3.8949999999999999E-002     1.8449851318889224E-015
  -3.8900000000000004E-002     1.0221255039185302E-014
  -3.8850000000000003E-002     2.4563727819718408E-014
  -3.8800000000000001E-002     4.0458919938328108E-014
  -3.8750000000000000E-002     4.7858121632951460E-014
  -3.8699999999999998E-002     3.5184056496665182E-014
  -3.8650000000000004E-002    -2.5938485997888452E-015
  -3.8600000000000002E-002    -5.6962135827116057E-014
  -3.8550000000000001E-002    -1.0653735166448009E-013
  -3.8500000000000000E-002    -1.2802137384235592E-013
  -3.8449999999999998E-002    -1.1204962193984513E-013
  -3.8400000000000004E-002    -7.2496503494718288E-014
  -3.8350000000000002E-002    -3.9813805580481706E-014
  -3.8300000000000001E-002    -3.9546337960722441E-014
  -3.8249999999999999E-002    -6.9302670594433353E-014
  -3.8199999999999998E-002    -9.1392654713331138E-014
  -3.8150000000000003E-002    -4.9671130659278015E-014
  -3.8100000000000002E-002     9.6744393256348856E-014
  -3.8050000000000000E-002     3.4186580038330737E-013
  -3.7999999999999999E-002     6.2159450871579568E-013
  -3.7949999999999998E-002     8.2963340024772294E-013
  -3.7900000000000003E-002     8.5423478938098430E-013
  -3.7850000000000002E-002     6.2259867714052354E-013
  -3.7800000000000000E-002     1.3925502702693290E-013
  -3.7749999999999999E-002    -4.9447683040297727E-013
  -3.7699999999999997E-002    -1.0929530637143264E-012
  -3.7650000000000003E-002    -1.4392299443583268E-012
  -3.7600000000000001E-002    -1.3715929799999624E-012
  -3.7550000000000000E-002    -8.7237361610197768E-013
  -3.7499999999999999E-002    -1.1145767724649702E-013
  -3.7449999999999997E-002     5.9306623748817437E-013
  -3.7400000000000003E-002     8.9550266715731522E-013
  -3.7350000000000001E-002     5.7559360202814693E-013
  -3.7300000000000000E-002    -3.4793587727740955E-013
  -3.7249999999999998E-002    -1.5968508824055411E-012
  -3.7200000000000004E-002    -2.7119698783017792E-012
  -3.7150000000000002E-002    -3.1934123230204651E-012
  -3.7100000000000001E-002    -2.6514693427001075E-012
  -3.7050000000000000E-002    -9.3120926766853103E-013
  -3.6999999999999998E-002     1.8081592510769235E-012
  -3.6950000000000004E-002     5.0759347145621230E-012
  -3.6900000000000002E-002     8.1184715819381688E-012
  -3.6850000000000001E-002     1.0088402832244696E-011
  -3.6799999999999999E-002     1.0288602641349139E-011
  -3.6749999999999998E-002     8.4106992525239911E-012
  -3.6700000000000003E-002     4.6630927047823326E-012
  -3.6650000000000002E-002    -2.8054670192889327E-013
  -3.6600000000000001E-002    -5.4964030719477399E-012
  -3.6549999999999999E-002    -1.0091348487665531E-011
  -3.6499999999999998E-002    -1.3425904800240964E-011
  -3.6450000000000003E-002    -1.5199962994870489E-011
  -3.6400000000000002E-002    -1.5401666467195192E-011
  -3.6350000000000000E-002    -1.4182606804730042E-011
  -3.6299999999999999E-002    -1.1738001808625114E-011
  -3.6249999999999998E-002    -8.2458938743928360E-012
  -3.6200000000000003E-002    -3.8814195852571624E-012
  -3.6150000000000002E-002     1.1105282272891596E-012
  -3.6100000000000000E-002     6.3270262025539021E-012
  -3.6049999999999999E-002     1.1166260056176378E-011
  -3.6000000000000004E-002     1.4897636498273213E-011
  -3.5950000000000003E-002     1.6866548460157056E-011
  -3.5900000000000001E-002     1.6777201787411193E-011
  -3.5850000000000000E-002     1.4916336091407862E-011
  -3.5799999999999998E-002     1.2162156725669199E-011
  -3.5750000000000004E-002     9.7027947380614949E-012
  -3.5700000000000003E-002     8.5390666675339958E-012
  -3.5650000000000001E-002     8.9815732196725064E-012
  -3.5600000000000000E-002     1.0385545515463057E-011
  -3.5549999999999998E-002     1.1271293462369063E-011
  -3.5500000000000004E-002     9.8067817156728202E-012
  -3.5450000000000002E-002     4.4763991532458835E-012
  -3.5400000000000001E-002    -5.3002781475370498E-012
  -3.5349999999999999E-002    -1.8794450880352258E-011
  -3.5299999999999998E-002    -3.3934811937580581E-011
  -3.5250000000000004E-002    -4.7611944649091634E-011
  -3.5200000000000002E-002    -5.6247568450962900E-011
  -3.5150000000000001E-002    -5.6511332911164823E-011
  -3.5099999999999999E-002    -4.6034983632683421E-011
  -3.5049999999999998E-002    -2.3954173949433594E-011
  -3.5000000000000003E-002     8.8761377691734368E-012
  -3.4950000000000002E-002     5.0074677304453040E-011
  -3.4900000000000000E-002     9.6295422410151471E-011
  -3.4849999999999999E-002     1.4399012209351467E-010
  -3.4799999999999998E-002     1.9013210988134837E-010
  -3.4750000000000003E-002     2.3268733348487482E-010
  -3.4700000000000002E-002     2.7073380971868334E-010
  -3.4650000000000000E-002     3.0427529337671340E-010
  -3.4599999999999999E-002     3.3389578050221731E-010
  -3.4549999999999997E-002     3.6041240974529391E-010
  -3.4500000000000003E-002     3.8462336272152176E-010
  -3.4450000000000001E-002     4.0716692400834388E-010
  -3.4400000000000000E-002     4.2846615334579439E-010
  -3.4349999999999999E-002     4.4873218170557100E-010
  -3.4299999999999997E-002     4.6801004528719464E-010
  -3.4250000000000003E-002     4.8624319698477700E-010
  -3.4200000000000001E-002     5.0331183186183836E-010
  -3.4150000000000000E-002     5.1901458593745961E-010
  -3.4099999999999998E-002     5.3302559372844916E-010
  -3.4049999999999997E-002     5.4492965863214129E-010
  -3.4000000000000002E-002     5.5443211506318091E-010
  -3.3950000000000001E-002     5.6171701434524698E-010
  -3.3900000000000000E-002     5.6775816171953291E-010
  -3.3849999999999998E-002     5.7431329265804856E-010
  -3.3799999999999997E-002     5.8346387611683379E-010
  -3.3750000000000002E-002     5.9684193009986882E-010
  -3.3700000000000001E-002     6.1492584771668867E-010
  -3.3649999999999999E-002     6.3679239416613189E-010
  -3.3599999999999998E-002     6.6046832522273490E-010
  -3.3550000000000003E-002     6.8369986257278909E-010
  -3.3500000000000002E-002     7.0478867718016002E-010
  -3.3450000000000001E-002     7.2320696840923942E-010
  -3.3399999999999999E-002     7.3989290791558711E-010
  -3.3349999999999998E-002     7.5724543730935662E-010
  -3.3300000000000003E-002     7.7881160214361055E-010
  -3.3250000000000002E-002     8.0861647188127510E-010
  -3.3200000000000000E-002     8.5018173903238103E-010
  -3.3149999999999999E-002     9.0552392139044199E-010
  -3.3099999999999997E-002     9.7459775926257456E-010
  -3.3050000000000003E-002     1.0555105564429902E-009
  -3.3000000000000002E-002     1.1453856437100805E-009
  -3.2950000000000000E-002     1.2412961955237318E-009
  -3.2899999999999999E-002     1.3406431586721632E-009
  -3.2850000000000004E-002     1.4407877399028689E-009
  -3.2800000000000003E-002     1.5383809895772916E-009
  -3.2750000000000001E-002     1.6291207478254494E-009
  -3.2700000000000000E-002     1.7083661939499935E-009
  -3.2649999999999998E-002     1.7723784473386927E-009
  -3.2600000000000004E-002     1.8194690988890400E-009
  -3.2550000000000003E-002     1.8504080973146730E-009
  -3.2500000000000001E-002     1.8679717311254257E-009
  -3.2450000000000000E-002     1.8760215167603877E-009
  -3.2399999999999998E-002     1.8786119566510303E-009
  -3.2350000000000004E-002     1.8793539971494911E-009
  -3.2300000000000002E-002     1.8809856279011991E-009
  -3.2250000000000001E-002     1.8851172327848227E-009
  -3.2199999999999999E-002     1.8923397223608832E-009
  -3.2149999999999998E-002     1.9029283481962814E-009
  -3.2100000000000004E-002     1.9180221645740566E-009
  -3.2050000000000002E-002     1.9406394804544135E-009
  -3.2000000000000001E-002     1.9757486769716647E-009
  -3.1949999999999999E-002     2.0291255536596139E-009
  -3.1899999999999998E-002     2.1056137796448926E-009
  -3.1850000000000003E-002     2.2079145061148779E-009
  -3.1800000000000002E-002     2.3366950788176723E-009
  -3.1750000000000000E-002     2.4918250653433700E-009
  -3.1699999999999999E-002     2.6737303652003129E-009
  -3.1649999999999998E-002     2.8839061646619048E-009
  -3.1600000000000003E-002     3.1244433295837116E-009
  -3.1550000000000002E-002     3.3972851353304164E-009
  -3.1500000000000000E-002     3.7040347705949799E-009
  -3.1449999999999999E-002     4.0464416126473000E-009
  -3.1399999999999997E-002     4.4268858668122488E-009
  -3.1350000000000003E-002     4.8480710500259661E-009
  -3.1300000000000001E-002     5.3118381538506419E-009
  -3.1250000000000000E-002     5.8178834144385605E-009
  -3.1199999999999999E-002     6.3633133059719945E-009
  -3.1150000000000001E-002     6.9432894690590769E-009
  -3.1100000000000003E-002     7.5520698671683904E-009
  -3.1050000000000001E-002     8.1834846402507229E-009
  -3.1000000000000000E-002     8.8305325985921598E-009
  -3.0949999999999998E-002     9.4847189980043804E-009
  -3.0900000000000000E-002     1.0136085531701478E-008
  -3.0850000000000002E-002     1.0774264375864868E-008
  -3.0800000000000001E-002     1.1389908369486621E-008
  -3.0750000000000000E-002     1.1975472766174179E-008
  -3.0699999999999998E-002     1.2524954447122059E-008
  -3.0650000000000000E-002     1.3033154113269869E-008
  -3.0600000000000002E-002     1.3495494908877172E-008
  -3.0550000000000001E-002     1.3908799111587738E-008
  -3.0499999999999999E-002     1.4272331639082845E-008
  -3.0449999999999998E-002     1.4587932441214343E-008
  -3.0400000000000000E-002     1.4858745779720777E-008
  -3.0350000000000002E-002     1.5087286598290032E-008
  -3.0300000000000001E-002     1.5274348113114639E-008
  -3.0249999999999999E-002     1.5419635775529021E-008
  -3.0200000000000001E-002     1.5523644909653156E-008
  -3.0150000000000000E-002     1.5589250223060590E-008
  -3.0100000000000002E-002     1.5621728372646261E-008
  -3.0050000000000000E-002     1.5627304930750675E-008
  -2.9999999999999999E-002     1.5611448224384769E-008
  -2.9950000000000001E-002     1.5578182842875598E-008
  -2.9899999999999999E-002     1.5530594737689823E-008
  -2.9850000000000002E-002     1.5471655726011752E-008
  -2.9800000000000000E-002     1.5404389970459566E-008
  -2.9749999999999999E-002     1.5331405077629332E-008
  -2.9700000000000001E-002     1.5254778861367036E-008
  -2.9650000000000003E-002     1.5177120738317277E-008
  -2.9600000000000001E-002     1.5103431012523542E-008
  -2.9550000000000000E-002     1.5042206159361106E-008
  -2.9499999999999998E-002     1.5004344476332383E-008
  -2.9450000000000000E-002     1.4999996147492610E-008
  -2.9400000000000003E-002     1.5035181102751142E-008
  -2.9350000000000001E-002     1.5110416710852603E-008
  -2.9300000000000000E-002     1.5222252137807995E-008
  -2.9249999999999998E-002     1.5366414859778136E-008
  -2.9200000000000000E-002     1.5540303960413157E-008
  -2.9150000000000002E-002     1.5743282867744631E-008
  -2.9100000000000001E-002     1.5975177108333690E-008
  -2.9049999999999999E-002     1.6234711051638159E-008
  -2.8999999999999998E-002     1.6519277815829580E-008
  -2.8950000000000000E-002     1.6825917745200705E-008
  -2.8900000000000002E-002     1.7152124819488296E-008
  -2.8850000000000001E-002     1.7495446707096340E-008
  -2.8799999999999999E-002     1.7852285781167670E-008
  -2.8749999999999998E-002     1.8217388825533635E-008
  -2.8700000000000000E-002     1.8585122087609299E-008
  -2.8650000000000002E-002     1.8951918243753342E-008
  -2.8600000000000000E-002     1.9317984245091686E-008
  -2.8549999999999999E-002     1.9686714226656072E-008
  -2.8500000000000001E-002     2.0062143902202937E-008
  -2.8450000000000000E-002     2.0446545620945945E-008
  -2.8400000000000002E-002     2.0840111057177793E-008
  -2.8350000000000000E-002     2.1242824733516745E-008
  -2.8299999999999999E-002     2.1656535294213371E-008
  -2.8250000000000001E-002     2.2085087488437403E-008
  -2.8200000000000003E-002     2.2532118961344736E-008
  -2.8150000000000001E-002     2.2998551201213767E-008
  -2.8100000000000000E-002     2.3482166677654050E-008
  -2.8049999999999999E-002     2.3979839182129830E-008
  -2.8000000000000001E-002     2.4490457256641894E-008
  -2.7950000000000003E-002     2.5015682713802786E-008
  -2.7900000000000001E-002     2.5557583998064883E-008
  -2.7850000000000000E-002     2.6115071451492369E-008
  -2.7799999999999998E-002     2.6682431468260217E-008
  -2.7750000000000000E-002     2.7251585391865084E-008
  -2.7700000000000002E-002     2.7816441998646055E-008
  -2.7650000000000001E-002     2.8375842012526093E-008
  -2.7600000000000000E-002     2.8932797732825063E-008
  -2.7549999999999998E-002     2.9491061277162249E-008
  -2.7500000000000000E-002     3.0052310128888361E-008
  -2.7450000000000002E-002     3.0616481816120326E-008
  -2.7400000000000001E-002     3.1184573575410250E-008
  -2.7349999999999999E-002     3.1760711975056134E-008
  -2.7299999999999998E-002     3.2350961120030075E-008
  -2.7250000000000000E-002     3.2959479045355836E-008
  -2.7200000000000002E-002     3.3585484908844761E-008
  -2.7150000000000001E-002     3.4223985543553676E-008
  -2.7099999999999999E-002     3.4869850632593546E-008
  -2.7049999999999998E-002     3.5521565075119258E-008
  -2.7000000000000000E-002     3.6181234267967840E-008
  -2.6950000000000002E-002     3.6850975526562696E-008
  -2.6900000000000000E-002     3.7529265332898368E-008
  -2.6849999999999999E-002     3.8211125820094362E-008
  -2.6800000000000001E-002     3.8892304824450214E-008
  -2.6749999999999999E-002     3.9573751521647031E-008
  -2.6700000000000002E-002     4.0262122896086583E-008
  -2.6650000000000000E-002     4.0965602407113360E-008
  -2.6599999999999999E-002     4.1688824983032855E-008
  -2.6550000000000001E-002     4.2431647070355558E-008
  -2.6500000000000003E-002     4.3192906304705079E-008
  -2.6450000000000001E-002     4.3975574818122541E-008
  -2.6400000000000000E-002     4.4788164034377437E-008
  -2.6349999999999998E-002     4.5640611918839547E-008
  -2.6300000000000000E-002     4.6538150148571648E-008
  -2.6250000000000002E-002     4.7478627092045953E-008
  -2.6200000000000001E-002     4.8455663890523261E-008
  -2.6150000000000000E-002     4.9464382463962490E-008
  -2.6099999999999998E-002     5.0504070435331137E-008
  -2.6050000000000000E-002     5.1575086916467670E-008
  -2.6000000000000002E-002     5.2673070186370972E-008
  -2.5950000000000001E-002     5.3786521165548394E-008
  -2.5899999999999999E-002     5.4900940172076706E-008
  -2.5849999999999998E-002     5.6006503067586523E-008
  -2.5800000000000000E-002     5.7102591016596476E-008
  -2.5750000000000002E-002     5.8195019506152719E-008
  -2.5700000000000001E-002     5.9288478785096430E-008
  -2.5649999999999999E-002     6.0381011118082961E-008
  -2.5599999999999998E-002     6.1465564382147500E-008
  -2.5550000000000000E-002     6.2536909829993027E-008
  -2.5500000000000002E-002     6.3597286695810821E-008
  -2.5450000000000000E-002     6.4655269866654335E-008
  -2.5399999999999999E-002     6.5718964600420876E-008
  -2.5349999999999998E-002     6.6790071367060269E-008
  -2.5300000000000000E-002     6.7864408328038141E-008
  -2.5250000000000002E-002     6.8938215023162663E-008
  -2.5200000000000000E-002     7.0013830239399740E-008
  -2.5149999999999999E-002     7.1098757137744139E-008
  -2.5100000000000001E-002     7.2198607905074862E-008
  -2.5049999999999999E-002     7.3310794693611836E-008
  -2.5000000000000001E-002     7.4425351914936808E-008
  -2.4950000000000000E-002     7.5532824417117460E-008
  -2.4899999999999999E-002     7.6632298538597854E-008
  -2.4850000000000001E-002     7.7732192410324471E-008
  -2.4800000000000003E-002     7.8843005223326356E-008
  -2.4750000000000001E-002     7.9968846068843440E-008
  -2.4700000000000000E-002     8.1105585830458764E-008
  -2.4649999999999998E-002     8.2247247838858369E-008
  -2.4600000000000000E-002     8.3394110038806736E-008
  -2.4550000000000002E-002     8.4554662053079872E-008
  -2.4500000000000001E-002     8.5739216118704005E-008
  -2.4450000000000000E-002     8.6951337135190006E-008
  -2.4399999999999998E-002     8.8185535008848371E-008
  -2.4350000000000000E-002     8.9433730398106470E-008
  -2.4299999999999999E-002     9.0694227109476991E-008
  -2.4250000000000001E-002     9.1974421630248872E-008
  -2.4199999999999999E-002     9.3283750967511760E-008
  -2.4150000000000001E-002     9.4623052607328754E-008
  -2.4100000000000000E-002     9.5979971018329678E-008
  -2.4049999999999998E-002     9.7334920239557188E-008
  -2.4000000000000000E-002     9.8672526870100209E-008
  -2.3949999999999999E-002     9.9988332138221756E-008
  -2.3900000000000001E-002     1.0128545612887779E-007
  -2.3850000000000000E-002     1.0256516227167516E-007
  -2.3800000000000002E-002     1.0382092762902052E-007
  -2.3750000000000000E-002     1.0504187952363580E-007
  -2.3699999999999999E-002     1.0622207949183724E-007
  -2.3650000000000001E-002     1.0736634712245155E-007
  -2.3599999999999999E-002     1.0848639136623338E-007
  -2.3550000000000001E-002     1.0959055952381858E-007
  -2.3500000000000000E-002     1.1067656053203307E-007
  -2.3449999999999999E-002     1.1173409053239918E-007
  -2.3400000000000001E-002     1.1275461513040562E-007
  -2.3349999999999999E-002     1.1373887993744558E-007
  -2.3300000000000001E-002     1.1469486984886869E-007
  -2.3250000000000000E-002     1.1562826403174331E-007
  -2.3199999999999998E-002     1.1653487082730746E-007
  -2.3150000000000000E-002     1.1740253633720970E-007
  -2.3099999999999999E-002     1.1822102487598136E-007
  -2.3050000000000001E-002     1.1899041126363911E-007
  -2.3000000000000000E-002     1.1971978507954489E-007
  -2.2950000000000002E-002     1.2041695818917358E-007
  -2.2900000000000000E-002     1.2107886441881362E-007
  -2.2849999999999999E-002     1.2169142815903326E-007
  -2.2800000000000001E-002     1.2223944631732246E-007
  -2.2749999999999999E-002     1.2271715028116053E-007
  -2.2700000000000001E-002     1.2313002694121156E-007
  -2.2650000000000000E-002     1.2348648122229024E-007
  -2.2599999999999999E-002     1.2378792063621719E-007
  -2.2550000000000001E-002     1.2402665940193930E-007
  -2.2499999999999999E-002     1.2419357596066575E-007
  -2.2450000000000001E-002     1.2428791324334580E-007
  -2.2400000000000000E-002     1.2431890299719678E-007
  -2.2349999999999998E-002     1.2429735070682866E-007
  -2.2300000000000000E-002     1.2422436674111025E-007
  -2.2249999999999999E-002     1.2408791490773953E-007
  -2.2200000000000001E-002     1.2387001470315800E-007
  -2.2150000000000000E-002     1.2355811969477886E-007
  -2.2100000000000002E-002     1.2314998950544611E-007
  -2.2050000000000000E-002     1.2264820353945233E-007
  -2.1999999999999999E-002     1.2205009295149765E-007
  -2.1950000000000001E-002     1.2134294324948255E-007
  -2.1899999999999999E-002     1.2050946336934585E-007
  -2.1850000000000001E-002     1.1953794194039630E-007
  -2.1800000000000000E-002     1.1842746136776377E-007
  -2.1749999999999999E-002     1.1718319845259146E-007
  -2.1700000000000001E-002     1.1580630911476095E-007
  -2.1649999999999999E-002     1.1428839242448708E-007
  -2.1600000000000001E-002     1.1261541197948139E-007
  -2.1550000000000000E-002     1.1077733085100137E-007
  -2.1499999999999998E-002     1.0877389916573382E-007
  -2.1450000000000000E-002     1.0661066751122847E-007
  -2.1399999999999999E-002     1.0428892488122847E-007
  -2.1350000000000001E-002     1.0179876207855490E-007
  -2.1299999999999999E-002     9.9121734572246374E-008
  -2.1250000000000002E-002     9.6240378660684258E-008
  -2.1200000000000000E-002     9.3145742803556331E-008
  -2.1149999999999999E-002     8.9836044483308197E-008
  -2.1100000000000001E-002     8.6308501756198641E-008
  -2.1049999999999999E-002     8.2552545411309301E-008
  -2.1000000000000001E-002     7.8551269156332261E-008
  -2.0950000000000000E-002     7.4289513388680833E-008
  -2.0899999999999998E-002     6.9760988741639200E-008
  -2.0850000000000000E-002     6.4967205754167965E-008
  -2.0799999999999999E-002     5.9909310012979506E-008
  -2.0750000000000001E-002     5.4580422534899928E-008
  -2.0700000000000000E-002     4.8965427722300387E-008
  -2.0649999999999998E-002     4.3048150864529489E-008
  -2.0600000000000000E-002     3.6819031579283782E-008
  -2.0549999999999999E-002     3.0276105494970515E-008
  -2.0500000000000001E-002     2.3418609628829760E-008
  -2.0449999999999999E-002     1.6239502757862227E-008
  -2.0400000000000001E-002     8.7238374018076646E-009
  -2.0350000000000000E-002     8.5419428613390155E-010
  -2.0299999999999999E-002    -7.3821251086543520E-009
  -2.0250000000000001E-002    -1.5990886975314258E-008
  -2.0199999999999999E-002    -2.4975548221162631E-008
  -2.0150000000000001E-002    -3.4343993663898423E-008
  -2.0100000000000000E-002    -4.4111214731484709E-008
  -2.0049999999999998E-002    -5.4295987045059854E-008
  -2.0000000000000000E-002    -6.4915218203671659E-008
  -1.9949999999999999E-002    -7.5981539737338548E-008
  -1.9900000000000001E-002    -8.7505937026889060E-008
  -1.9850000000000000E-002    -9.9502452578012780E-008
  -1.9799999999999998E-002    -1.1198992430894772E-007
  -1.9750000000000000E-002    -1.2498926508946618E-007
  -1.9699999999999999E-002    -1.3851884126708445E-007
  -1.9650000000000001E-002    -1.5259261060442819E-007
  -1.9599999999999999E-002    -1.6722246071356675E-007
  -1.9550000000000001E-002    -1.8242226138084495E-007
  -1.9500000000000000E-002    -1.9820964623321309E-007
  -1.9449999999999999E-002    -2.1460422749350777E-007
  -1.9400000000000001E-002    -2.3162394768173092E-007
  -1.9349999999999999E-002    -2.4928342133117997E-007
  -1.9300000000000001E-002    -2.6759559556008243E-007
  -1.9250000000000000E-002    -2.8657541425529923E-007
  -1.9199999999999998E-002    -3.0624234317190205E-007
  -1.9150000000000000E-002    -3.2662034032262454E-007
  -1.9099999999999999E-002    -3.4773579594666171E-007
  -1.9050000000000001E-002    -3.6961531297335953E-007
  -1.9000000000000000E-002    -3.9228460523286110E-007
  -1.8949999999999998E-002    -4.1576813641865359E-007
  -1.8900000000000000E-002    -4.4008879265534709E-007
  -1.8849999999999999E-002    -4.6526773808043084E-007
  -1.8800000000000001E-002    -4.9132447970048548E-007
  -1.8749999999999999E-002    -5.1827755073546332E-007
  -1.8700000000000001E-002    -5.4614504913833762E-007
  -1.8650000000000000E-002    -5.7494501722294100E-007
  -1.8599999999999998E-002    -6.0469577929372026E-007
  -1.8550000000000001E-002    -6.3541683820922632E-007
  -1.8499999999999999E-002    -6.6713087010535449E-007
  -1.8450000000000001E-002    -6.9986498510889572E-007
  -1.8400000000000000E-002    -7.3364995597088336E-007
  -1.8349999999999998E-002    -7.6851706909589568E-007
  -1.8300000000000000E-002    -8.0449420337859527E-007
  -1.8249999999999999E-002    -8.4160556663802025E-007
  -1.8200000000000001E-002    -8.7987503865555820E-007
  -1.8149999999999999E-002    -9.1933034596201502E-007
  -1.8100000000000002E-002    -9.6000454570505793E-007
  -1.8050000000000000E-002    -1.0019323307512740E-006
  -1.7999999999999999E-002    -1.0451451701892014E-006
  -1.7950000000000001E-002    -1.0896702410217720E-006
  -1.7899999999999999E-002    -1.1355336559817520E-006
  -1.7850000000000001E-002    -1.1827665964857390E-006
  -1.7800000000000000E-002    -1.2314082318495316E-006
  -1.7749999999999998E-002    -1.2815005026095241E-006
  -1.7700000000000000E-002    -1.3330804787422767E-006
  -1.7649999999999999E-002    -1.3861771867662688E-006
  -1.7600000000000001E-002    -1.4408155934360349E-006
  -1.7550000000000000E-002    -1.4970263171479539E-006
  -1.7499999999999998E-002    -1.5548493717012740E-006
  -1.7450000000000000E-002    -1.6143305005805876E-006
  -1.7399999999999999E-002    -1.6755107343844503E-006
  -1.7350000000000001E-002    -1.7384224734600152E-006
  -1.7299999999999999E-002    -1.8030946931093573E-006
  -1.7250000000000001E-002    -1.8695633213721339E-006
  -1.7200000000000000E-002    -1.9378770425306306E-006
  -1.7149999999999999E-002    -2.0080936472826263E-006
  -1.7100000000000001E-002    -2.0802663705296696E-006
  -1.7049999999999999E-002    -2.1544359498036085E-006
  -1.7000000000000001E-002    -2.2306328054519228E-006
  -1.6950000000000000E-002    -2.3088927101287143E-006
  -1.6899999999999998E-002    -2.3892654161076800E-006
  -1.6850000000000000E-002    -2.4718108549439822E-006
  -1.6799999999999999E-002    -2.5565864429538429E-006
  -1.6750000000000001E-002    -2.6436358555990214E-006
  -1.6700000000000000E-002    -2.7329909349398799E-006
  -1.6649999999999998E-002    -2.8246868738367084E-006
  -1.6600000000000000E-002    -2.9187745887618668E-006
  -1.6549999999999999E-002    -3.0153176142731337E-006
  -1.6500000000000001E-002    -3.1143790405349428E-006
  -1.6449999999999999E-002    -3.2160059826435203E-006
  -1.6400000000000001E-002    -3.3202305110084109E-006
  -1.6350000000000000E-002    -3.4270880425565102E-006
  -1.6299999999999999E-002    -3.5366346563257927E-006
  -1.6250000000000001E-002    -3.6489452196913993E-006
  -1.6199999999999999E-002    -3.7640974277643572E-006
  -1.6150000000000001E-002    -3.8821531715140265E-006
  -1.6100000000000000E-002    -4.0031536124787599E-006
  -1.6049999999999998E-002    -4.1271367679209543E-006
  -1.6000000000000000E-002    -4.2541584751979034E-006
  -1.5949999999999999E-002    -4.3842947197892540E-006
  -1.5900000000000001E-002    -4.5176267442972579E-006
  -1.5850000000000000E-002    -4.6542187542033746E-006
  -1.5799999999999998E-002    -4.7941129906212778E-006
  -1.5750000000000000E-002    -4.9373458637393998E-006
  -1.5699999999999999E-002    -5.0839734883530716E-006
  -1.5650000000000001E-002    -5.2340765088333207E-006
  -1.5599999999999999E-002    -5.3877465880331784E-006
  -1.5550000000000001E-002    -5.5450603401367706E-006
  -1.5500000000000000E-002    -5.7060702175223222E-006
  -1.5449999999999998E-002    -5.8708208927498179E-006
  -1.5400000000000000E-002    -6.0393697871700943E-006
  -1.5349999999999999E-002    -6.2118033164505005E-006
  -1.5300000000000001E-002    -6.3882214493303364E-006
  -1.5250000000000000E-002    -6.5687097938995987E-006
  -1.5199999999999998E-002    -6.7533257755005501E-006
  -1.5150000000000000E-002    -6.9421129961701826E-006
  -1.5099999999999999E-002    -7.1351290016222094E-006
  -1.5050000000000001E-002    -7.3324615579952594E-006
  -1.4999999999999999E-002    -7.5342193196172542E-006
  -1.4949999999999998E-002    -7.7405021682932056E-006
  -1.4900000000000000E-002    -7.9513825449234345E-006
  -1.4849999999999999E-002    -8.1669124928371037E-006
  -1.4800000000000001E-002    -8.3871553047708978E-006
  -1.4749999999999999E-002    -8.6122016645726260E-006
  -1.4700000000000001E-002    -8.8421656458241660E-006
  -1.4650000000000000E-002    -9.0771517012729302E-006
  -1.4599999999999998E-002    -9.3172323442008052E-006
  -1.4550000000000000E-002    -9.5624572417718780E-006
  -1.4499999999999999E-002    -9.8128827576742744E-006
  -1.4450000000000001E-002    -1.0068599441373132E-005
  -1.4400000000000000E-002    -1.0329726471951515E-005
  -1.4349999999999998E-002    -1.0596377478938057E-005
  -1.4300000000000000E-002    -1.0868640517491703E-005
  -1.4249999999999999E-002    -1.1146577627294230E-005
  -1.4200000000000001E-002    -1.1430255281992833E-005
  -1.4149999999999999E-002    -1.1719771013338497E-005
  -1.4099999999999998E-002    -1.2015253355777639E-005
  -1.4050000000000000E-002    -1.2316827385846736E-005
  -1.3999999999999999E-002    -1.2624585333893452E-005
  -1.3950000000000001E-002    -1.2938588766289795E-005
  -1.3899999999999999E-002    -1.3258901500668033E-005
  -1.3850000000000001E-002    -1.3585617746097092E-005
  -1.3800000000000000E-002    -1.3918864383710470E-005
  -1.3749999999999998E-002    -1.4258769439390022E-005
  -1.3700000000000000E-002    -1.4605432495937437E-005
  -1.3649999999999999E-002    -1.4958922001660381E-005
  -1.3600000000000001E-002    -1.5319300606196626E-005
  -1.3550000000000000E-002    -1.5686661700953069E-005
  -1.3499999999999998E-002    -1.6061135377921385E-005
  -1.3450000000000000E-002    -1.6442859581950825E-005
  -1.3399999999999999E-002    -1.6831950528760711E-005
  -1.3350000000000001E-002    -1.7228486027477140E-005
  -1.3299999999999999E-002    -1.7632541572502705E-005
  -1.3249999999999998E-002    -1.8044221356006064E-005
  -1.3200000000000000E-002    -1.8463656998480572E-005
  -1.3149999999999998E-002    -1.8890994516636324E-005
  -1.3100000000000001E-002    -1.9326352458919429E-005
  -1.3049999999999999E-002    -1.9769816117884678E-005
  -1.3000000000000001E-002    -2.0221455733948719E-005
  -1.2950000000000000E-002    -2.0681363827848800E-005
  -1.2899999999999998E-002    -2.1149671790184808E-005
  -1.2850000000000000E-002    -2.1626521618753090E-005
  -1.2799999999999999E-002    -2.2112044530828109E-005