  -4.0000000000000001E-002     0.0000000000000000     
  -3.9949999999999999E-002     0.0000000000000000     
  -3.9899999999999998E-002     0.0000000000000000     
  -3.9850000000000003E-002     0.0000000000000000     
  -3.9800000000000002E-002     0.0000000000000000     
  -3.9750000000000001E-002     0.0000000000000000     
  -3.9699999999999999E-002     0.0000000000000000     
  -3.9649999999999998E-002     0.0000000000000000     
  -3.9600000000000003E-002     0.0000000000000000     
  -3.9550000000000002E-002     0.0000000000000000     
  -3.9500000000000000E-002     0.0000000000000000     
  -3.9449999999999999E-002     0.0000000000000000     
  -3.9399999999999998E-002     0.0000000000000000     
  -3.9350000000000003E-002    -8.6103001067586952E-037
  -3.9300000000000002E-002    -7.3561178794738807E-035
  -3.9250000000000000E-002    -1.1315656841495253E-033
  -3.9199999999999999E-002    -8.7946878263625716E-033
  -3.9150000000000004E-002    -4.1738238308165573E-032
  -3.9100000000000003E-002    -1.1903155339001301E-031
  -3.9050000000000001E-002    -1.0475543751997666E-031
  -3.9000000000000000E-002     8.3471396724852975E-031
  -3.8949999999999999E-002     5.1288438634620892E-030
  -3.8900000000000004E-002     1.6380327643231480E-029
  -3.8850000000000003E-002     3.2602804101992612E-029
  -3.8800000000000001E-002     2.7066305320038587E-029
  -3.8750000000000000E-002    -7.6123259444185670E-029
  -3.8699999999999998E-002    -3.8487567611262692E-028
  -3.8650000000000004E-002    -8.8666361214014297E-028
  -3.8600000000000002E-002    -1.1091200700520958E-027
  -3.8550000000000001E-002     1.6933947321631734E-028
  -3.8500000000000000E-002     4.3640256869902022E-027
  -3.8449999999999998E-002     1.0563462491337189E-026
  -3.8400000000000004E-002     1.1084163880808998E-026
  -3.8350000000000002E-002    -1.0940378845530997E-026
  -3.8300000000000001E-002    -7.2321809557902228E-026
  -3.8249999999999999E-002    -1.5814002778657548E-025
  -3.8199999999999998E-002    -1.7126311033387153E-025
  -3.8150000000000003E-002     9.5916178818508292E-026
  -3.8100000000000002E-002     8.8034357829440532E-025
  -3.8050000000000000E-002     2.1665793201627182E-024
  -3.7999999999999999E-002     3.2264212595565974E-024
  -3.7949999999999998E-002     2.2671955587102662E-024
  -3.7900000000000003E-002    -3.2127644042100611E-024
  -3.7850000000000002E-002    -1.4715079571513577E-023
  -3.7800000000000000E-002    -2.9654083192917755E-023
  -3.7749999999999999E-002    -3.8315098614784523E-023
  -3.7699999999999997E-002    -2.3997763450256554E-023
  -3.7650000000000003E-002     3.0006551413380277E-023
  -3.7600000000000001E-002     1.2547788532310707E-022
  -3.7550000000000000E-002     2.3148729026486730E-022
  -3.7499999999999999E-002     2.7660397783570170E-022
  -3.7449999999999997E-002     1.6737242075752821E-022
  -3.7400000000000003E-002    -1.5842783792995289E-022
  -3.7350000000000001E-002    -6.5704978284312999E-022
  -3.7300000000000000E-002    -1.1245781251470039E-021
  -3.7249999999999998E-002    -1.2221014505853119E-021
  -3.7200000000000004E-002    -6.2123078009607607E-022
  -3.7150000000000002E-002     7.5239163674940561E-022
  -3.7100000000000001E-002     2.4902672786316851E-021
  -3.7050000000000000E-002     3.6649299419773282E-021
  -3.6999999999999998E-002     3.1393940641903493E-021
  -3.6950000000000004E-002     2.2253835057834002E-022
  -3.6900000000000002E-002    -4.5728057931051137E-021
  -3.6850000000000001E-002    -9.1250865556861152E-021
  -3.6799999999999999E-002    -1.0126694840077608E-020
  -3.6749999999999998E-002    -4.5206700945926574E-021
  -3.6700000000000003E-002     8.4124991114953097E-021
  -3.6650000000000002E-002     2.5262368722056112E-020
  -3.6600000000000001E-002     3.8197231392501115E-020
  -3.6549999999999999E-002     3.7042208304088545E-020
  -3.6499999999999998E-002     1.3631969219366553E-020
  -3.6450000000000003E-002    -3.2912851983144357E-020
  -3.6400000000000002E-002    -9.2297470378692416E-020
  -3.6350000000000000E-002    -1.4295279869623628E-019
  -3.6299999999999999E-002    -1.5708402011120215E-019
  -3.6249999999999998E-002    -1.1031285092543442E-019
  -3.6200000000000003E-002     6.7442616401815175E-021
  -3.6150000000000002E-002     1.7906729324062173E-019
  -3.6100000000000000E-002     3.6425037633346432E-019
  -3.6049999999999999E-002     4.9885496846123683E-019
  -3.6000000000000004E-002     5.1441336421521616E-019
  -3.5950000000000003E-002     3.6014837502601940E-019
  -3.5900000000000001E-002     2.6369037351975239E-020
  -3.5850000000000000E-002    -4.3950712953816920E-019
  -3.5799999999999998E-002    -9.3222473294088715E-019
  -3.5750000000000004E-002    -1.3080237272763632E-018
  -3.5700000000000003E-002    -1.4225231665640841E-018
  -3.5650000000000001E-002    -1.1775795280851213E-018
  -3.5600000000000000E-002    -5.6078250644599451E-019
  -3.5549999999999998E-002     3.4010087338768337E-019
  -3.5500000000000004E-002     1.3582366462303076E-018
  -3.5450000000000002E-002     2.2995004275109302E-018
  -3.5400000000000001E-002     3.0019071721540389E-018
  -3.5349999999999999E-002     3.3686254714167785E-018
  -3.5299999999999998E-002     3.3466961695208357E-018
  -3.5250000000000004E-002     2.8513018279263741E-018
  -3.5200000000000002E-002     1.6775910579217828E-018
  -3.5150000000000001E-002    -5.2120205410492436E-019
  -3.5099999999999999E-002    -4.1061000646525431E-018
  -3.5049999999999998E-002    -9.1407134912156392E-018
  -3.5000000000000003E-002    -1.4963242108588419E-017
  -3.4950000000000002E-002    -1.9833872727385645E-017
  -3.4900000000000000E-002    -2.0934823344050489E-017
  -3.4849999999999999E-002    -1.4977206048484591E-017
  -3.4799999999999998E-002     5.0842948221409914E-019
  -3.4750000000000003E-002     2.5438089284042423E-017
  -3.4700000000000002E-002     5.5599232458123734E-017
  -3.4650000000000000E-002     8.2082311419747334E-017
  -3.4599999999999999E-002     9.2518673489714644E-017
  -3.4549999999999997E-002     7.4474039590766467E-017
  -3.4500000000000003E-002     2.0531786992851409E-017
  -3.4450000000000001E-002    -6.6353456641655353E-017
  -3.4400000000000000E-002    -1.6936688739271965E-016
  -3.4349999999999999E-002    -2.5841297536028959E-016
  -3.4299999999999997E-002    -2.9612318651457067E-016
  -3.4250000000000003E-002    -2.4894004336570118E-016
  -3.4200000000000001E-002    -1.0077792314011094E-016
  -3.4150000000000000E-002     1.3507212154716098E-016
  -3.4099999999999998E-002     4.1080667834490964E-016
  -3.4049999999999997E-002     6.4968329357280896E-016
  -3.4000000000000002E-002     7.6336920742073502E-016
  -3.3950000000000001E-002     6.7811165790727586E-016
  -3.3900000000000000E-002     3.6287081974844056E-016
  -3.3849999999999998E-002    -1.4973917354059911E-016
  -3.3799999999999997E-002    -7.5835622700852413E-016
  -3.3750000000000002E-002    -1.3086167366401603E-015
  -3.3700000000000001E-002    -1.6286746206057537E-015
  -3.3649999999999999E-002    -1.5767183764845502E-015
  -3.3599999999999998E-002    -1.0876354457325868E-015
  -3.3550000000000003E-002    -2.0449724758785854E-016
  -3.3500000000000002E-002     9.1641307301821306E-016
  -3.3450000000000001E-002     2.0313391339962922E-015
  -3.3399999999999999E-002     2.8610175019169653E-015
  -3.3349999999999998E-002     3.1564677314104863E-015
  -3.3300000000000003E-002     2.7619497093359147E-015
  -3.3250000000000002E-002     1.6592456537311414E-015
  -3.3200000000000000E-002    -1.7103720494353139E-017
  -3.3149999999999999E-002    -1.9959152957135211E-015
  -3.3099999999999997E-002    -3.9114984691112480E-015
  -3.3050000000000003E-002    -5.3619168951251574E-015
  -3.3000000000000002E-002    -5.9732051602047914E-015
  -3.2950000000000000E-002    -5.4624165597075203E-015
  -3.2899999999999999E-002    -3.6961876935183001E-015
  -3.2850000000000004E-002    -7.4283787296975537E-016
  -3.2800000000000003E-002     3.0870510758936565E-015
  -3.2750000000000001E-002     7.2235818269284283E-015
  -3.2700000000000000E-002     1.0863285233261522E-014
  -3.2649999999999998E-002     1.3058998711781829E-014
  -3.2600000000000004E-002     1.2886773020453027E-014
  -3.2550000000000003E-002     9.6815853167250420E-015
  -3.2500000000000001E-002     3.3030567965646400E-015
  -3.2450000000000000E-002    -5.6387230254073604E-015
  -3.2399999999999998E-002    -1.5685728041436743E-014
  -3.2350000000000004E-002    -2.4644590644797603E-014
  -3.2300000000000002E-002    -2.9951828694673804E-014
  -3.2250000000000001E-002    -2.9265815342846618E-014
  -3.2199999999999999E-002    -2.1176938022596220E-014
  -3.2149999999999998E-002    -5.8556123913196295E-015
  -3.2100000000000004E-002     1.4574964153573955E-014
  -3.2050000000000002E-002     3.6126465334699147E-014
  -3.2000000000000001E-002     5.3583635266516265E-014
  -3.1949999999999999E-002     6.1636618594204270E-014
  -3.1899999999999998E-002     5.6288898356154980E-014
  -3.1850000000000003E-002     3.6193757139375623E-014
  -3.1800000000000002E-002     3.5246722824645321E-015
  -3.1750000000000000E-002    -3.5951630874389328E-014
  -3.1699999999999999E-002    -7.3756788599198224E-014
  -3.1649999999999998E-002    -1.0044629814392621E-013
  -3.1600000000000003E-002    -1.0787002311514022E-013
  -3.1550000000000002E-002    -9.1407711620391026E-014
  -3.1500000000000000E-002    -5.1580327924562403E-014
  -3.1449999999999999E-002     5.4565584801610625E-015
  -3.1399999999999997E-002     6.8777183724923307E-014
  -3.1350000000000003E-002     1.2480566781949716E-013
  -3.1300000000000001E-002     1.6025264344761620E-013
  -3.1250000000000000E-002     1.6519311629801198E-013
  -3.1199999999999999E-002     1.3554664857808657E-013
  -3.1150000000000001E-002     7.4350177812030097E-014
  -3.1100000000000003E-002    -8.4964969464386682E-015
  -3.1050000000000001E-002    -9.7966635073931758E-014
  -3.1000000000000000E-002    -1.7673579406899246E-013
  -3.0949999999999998E-002    -2.2849068935220493E-013
  -3.0900000000000000E-002    -2.4104451680676547E-013
  -3.0850000000000002E-002    -2.0868835289829455E-013
  -3.0800000000000001E-002    -1.3342191486283553E-013
  -3.0750000000000000E-002    -2.4949142671066280E-014
  -3.0699999999999998E-002     1.0047721953494607E-013
  -3.0650000000000000E-002     2.2216535958564088E-013
  -3.0600000000000002E-002     3.1781690330994907E-013
  -3.0550000000000001E-002     3.6684830974979842E-013
  -3.0499999999999999E-002     3.5393627843198738E-013
  -3.0449999999999998E-002     2.7242022115839077E-013
  -3.0400000000000000E-002     1.2703399901810945E-013
  -3.0350000000000002E-002    -6.4717156105478701E-014
  -3.0300000000000001E-002    -2.7325640814569070E-013
  -3.0249999999999999E-002    -4.6025202721969014E-013
  -3.0200000000000001E-002    -5.8463259528286098E-013
  -3.0150000000000000E-002    -6.1069409527194774E-013
  -3.0100000000000002E-002    -5.1692113471562739E-013
  -3.0050000000000000E-002    -3.0353713228661770E-013
  -2.9999999999999999E-002     3.4088088252691787E-015
  -2.9950000000000001E-002     3.5322274827627274E-013
  -2.9899999999999999E-002     6.7782162236943667E-013
  -2.9850000000000002E-002     9.0441687681637666E-013
  -2.9800000000000000E-002     9.7141868063905559E-013
  -2.9749999999999999E-002     8.4411964332914837E-013
  -2.9700000000000001E-002     5.2622858391822350E-013
  -2.9650000000000003E-002     6.3828777223752788E-014
  -2.9600000000000001E-002    -4.6016541567701769E-013
  -2.9550000000000000E-002    -9.4078890860037196E-013
  -2.9499999999999998E-002    -1.2724175682646154E-012
  -2.9450000000000000E-002    -1.3722479714231062E-012
  -2.9400000000000003E-002    -1.2004537419036070E-012
  -2.9350000000000001E-002    -7.7204130769771577E-013
  -2.9300000000000000E-002    -1.5714413316761265E-013
  -2.9249999999999998E-002     5.3089299298067587E-013
  -2.9200000000000000E-002     1.1574257801918922E-012
  -2.9150000000000002E-002     1.5938159325254738E-012
  -2.9100000000000001E-002     1.7442230582239538E-012
  -2.9049999999999999E-002     1.5660724632110900E-012
  -2.8999999999999998E-002     1.0798368233630586E-012
  -2.8950000000000000E-002     3.6617144090667082E-013
  -2.8900000000000002E-002    -4.4881134638302822E-013
  -2.8850000000000001E-002    -1.2169320242690923E-012
  -2.8799999999999999E-002    -1.7952367431483663E-012
  -2.8749999999999998E-002    -2.0719801626483548E-012
  -2.8700000000000000E-002    -1.9867106627328333E-012
  -2.8650000000000002E-002    -1.5412649598963711E-012
  -2.8600000000000000E-002    -8.0025915596497022E-013
  -2.8549999999999999E-002     1.1861886373890191E-013
  -2.8500000000000001E-002     1.0627839748125017E-012
  -2.8450000000000000E-002     1.8686835429252479E-012
  -2.8400000000000002E-002     2.3881730632553678E-012
  -2.8350000000000000E-002     2.5137468509569838E-012
  -2.8299999999999999E-002     2.1989878792566178E-012
  -2.8250000000000001E-002     1.4708405801814306E-012
  -2.8200000000000003E-002     4.3095439450802981E-013
  -2.8150000000000001E-002    -7.5548865067894592E-013
  -2.8100000000000000E-002    -1.8832655401222188E-012
  -2.8049999999999999E-002    -2.7404932915038660E-012
  -2.8000000000000001E-002    -3.1471316528010152E-012
  -2.7950000000000003E-002    -2.9919425428293382E-012
  -2.7900000000000001E-002    -2.2604046788686981E-012
  -2.7850000000000000E-002    -1.0467698825372935E-012
  -2.7799999999999998E-002     4.5418213155649759E-013
  -2.7750000000000000E-002     1.9763537069888436E-012
  -2.7700000000000002E-002     3.2286851866911471E-012
  -2.7650000000000001E-002     3.9506595086978988E-012
  -2.7600000000000000E-002     3.9661417540267783E-012
  -2.7549999999999998E-002     3.2241198999157998E-012
  -2.7500000000000000E-002     1.8168257299576020E-012
  -2.7450000000000002E-002    -3.0052313892704146E-014
  -2.7400000000000001E-002    -1.9946759739548798E-012
  -2.7349999999999999E-002    -3.7175722521221403E-012
  -2.7299999999999998E-002    -4.8702395412882616E-012
  -2.7250000000000000E-002    -5.2201522835270501E-012
  -2.7200000000000002E-002    -4.6787686776487667E-012
  -2.7150000000000001E-002    -3.3223099991068758E-012
  -2.7099999999999999E-002    -1.3804671779774482E-012
  -2.7049999999999998E-002     8.0533994417276315E-013
  -2.7000000000000000E-002     2.8462816535900192E-012
  -2.6950000000000002E-002     4.3804877837759056E-012
  -2.6900000000000000E-002     5.1427564253632722E-012
  -2.6849999999999999E-002     5.0156573741907659E-012
  -2.6800000000000001E-002     4.0516231315962684E-012
  -2.6749999999999999E-002     2.4612986804266199E-012
  -2.6700000000000002E-002     5.7006683290681732E-013
  -2.6650000000000000E-002    -1.2489167497336311E-012
  -2.6599999999999999E-002    -2.6519636433412757E-012
  -2.6550000000000001E-002    -3.3967536593736904E-012
  -2.6500000000000003E-002    -3.3939290919752940E-012
  -2.6450000000000001E-002    -2.7270555999981863E-012
  -2.6400000000000000E-002    -1.6356828710298259E-012
  -2.6349999999999998E-002    -4.6356394823069324E-013
  -2.6300000000000000E-002     4.1874029507221863E-013
  -2.6250000000000002E-002     7.0210498922272041E-013
  -2.6200000000000001E-002     2.2051442958269042E-013
  -2.6150000000000000E-002    -9.9039235125572634E-013
  -2.6099999999999998E-002    -2.6701203643655970E-012
  -2.6050000000000000E-002    -4.3507143043001778E-012
  -2.6000000000000002E-002    -5.4118691590632600E-012
  -2.5950000000000001E-002    -5.1633348464346294E-012
  -2.5899999999999999E-002    -2.9389029283453959E-012
  -2.5849999999999998E-002     1.8156320785159752E-012
  -2.5800000000000000E-002     9.4762604212661888E-012
  -2.5750000000000002E-002     2.0206931801763400E-011
  -2.5700000000000001E-002     3.3961688561939840E-011
  -2.5649999999999999E-002     5.0519075115728823E-011
  -2.5599999999999998E-002     6.9539156580504229E-011
  -2.5550000000000000E-002     9.0630221404290373E-011
  -2.5500000000000002E-002     1.1341208671517317E-010
  -2.5450000000000000E-002     1.3756521819191827E-010
  -2.5399999999999999E-002     1.6285948534642107E-010
  -2.5349999999999998E-002     1.8916104802585398E-010
  -2.5300000000000000E-002     2.1641998267926869E-010
  -2.5250000000000002E-002     2.4464404743066963E-010
  -2.5200000000000000E-002     2.7386500059361367E-010
  -2.5149999999999999E-002     3.0410373222099368E-010
  -2.5100000000000001E-002     3.3533917038038839E-010
  -2.5049999999999999E-002     3.6748476658493930E-010
  -2.5000000000000001E-002     4.0037588684316979E-010
  -2.4950000000000000E-002     4.3377031954279838E-010
  -2.4899999999999999E-002     4.6736369113791114E-010
  -2.4850000000000001E-002     5.0082001794029548E-010
  -2.4800000000000003E-002     5.3381616567730955E-010
  -2.4750000000000001E-002     5.6609518067339334E-010
  -2.4700000000000000E-002     5.9752001142657540E-010
  -2.4649999999999998E-002     6.2811824832997751E-010
  -2.4600000000000000E-002     6.5810481706093960E-010
  -2.4550000000000002E-002     6.8787420687287426E-010
  -2.4500000000000001E-002     7.1795634330257805E-010
  -2.4450000000000000E-002     7.4894000622902725E-010
  -2.4399999999999998E-002     7.8137343928176598E-010
  -2.4350000000000000E-002     8.1566086162786535E-010
  -2.4299999999999999E-002     8.5197627468079900E-010
  -2.4250000000000001E-002     8.9021676697306773E-010
  -2.4199999999999999E-002     9.3001039852777309E-010
  -2.4150000000000001E-002     9.7078242461163579E-010
  -2.4100000000000000E-002     1.0118715571670669E-009
  -2.4049999999999998E-002     1.0526736032856956E-009
  -2.4000000000000000E-002     1.0927831855525164E-009
  -2.3949999999999999E-002     1.1320992435056669E-009
  -2.3900000000000001E-002     1.1708705721863585E-009
  -2.3850000000000000E-002     1.2096631430936820E-009
  -2.3800000000000002E-002     1.2492570129707398E-009
  -2.3750000000000000E-002     1.2904920259758107E-009
  -2.3699999999999999E-002     1.3340971310577733E-009
  -2.3650000000000001E-002     1.3805434413236651E-009
  -2.3599999999999999E-002     1.4299556888762447E-009
  -2.3550000000000001E-002     1.4821048767923670E-009
  -2.3500000000000000E-002     1.5364819153663889E-009
  -2.3449999999999999E-002     1.5924335268824409E-009
  -2.3400000000000001E-002     1.6493259947885352E-009
  -2.3349999999999999E-002     1.7066938361162232E-009
  -2.3300000000000001E-002     1.7643378643730360E-009
  -2.3250000000000000E-002     1.8223485627746177E-009
  -2.3199999999999998E-002     1.8810532712998293E-009
  -2.3150000000000000E-002     1.9409057168399244E-009
  -2.3099999999999999E-002     2.0023512769482620E-009
  -2.3050000000000001E-002     2.0657125167750035E-009
  -2.3000000000000000E-002     2.1311208645647769E-009
  -2.2950000000000002E-002     2.1985170634238769E-009
  -2.2900000000000000E-002     2.2677154907048291E-009
  -2.2849999999999999E-002     2.3385096322764943E-009
  -2.2800000000000001E-002     2.4107847435631808E-009
  -2.2749999999999999E-002     2.4845995416696780E-009
  -2.2700000000000001E-002     2.5602138303269660E-009
  -2.2650000000000000E-002     2.6380509443707666E-009
  -2.2599999999999999E-002     2.7186074197218589E-009
  -2.2550000000000001E-002     2.8023356815522477E-009
  -2.2499999999999999E-002     2.8895381176833643E-009
  -2.2450000000000001E-002     2.9803013730980886E-009
  -2.2400000000000000E-002     3.0744939869672663E-009
  -2.2349999999999998E-002     3.1718246316366241E-009
  -2.2300000000000000E-002     3.2719440370118042E-009
  -2.2249999999999999E-002     3.3745582700099277E-009
  -2.2200000000000001E-002     3.4795175043109870E-009
  -2.2150000000000000E-002     3.5868548858820430E-009
  -2.2100000000000002E-002     3.6967614757552221E-009
  -2.2050000000000000E-002     3.8095118878394406E-009
  -2.1999999999999999E-002     3.9253612030454554E-009
  -2.1950000000000001E-002     4.0444504182624772E-009
  -2.1899999999999999E-002     4.1667572399259929E-009
  -2.1850000000000001E-002     4.2921085756188518E-009
  -2.1800000000000000E-002     4.4202612380994416E-009
  -2.1749999999999999E-002     4.5510302011543217E-009
  -2.1700000000000001E-002     4.6844233181678799E-009
  -2.1649999999999999E-002     4.8207407563662317E-009
  -2.1600000000000001E-002     4.9606001117730280E-009
  -2.1550000000000000E-002     5.1048752553013732E-009
  -2.1499999999999998E-002     5.2545454191528166E-009
  -2.1450000000000000E-002     5.4104995225959544E-009
  -2.1399999999999999E-002     5.5733322482422393E-009
  -2.1350000000000001E-002     5.7432012909561359E-009
  -2.1299999999999999E-002     5.9197802171952573E-009
  -2.1250000000000002E-002     6.1023298542603366E-009
  -2.1200000000000000E-002     6.2898762911181844E-009
  -2.1149999999999999E-002     6.4814533780925740E-009
  -2.1100000000000001E-002     6.6763464424551104E-009
  -2.1049999999999999E-002     6.8742757741105549E-009
  -2.1000000000000001E-002     7.0754666099611409E-009
  -2.0950000000000000E-002     7.2805898849531007E-009
  -2.0899999999999998E-002     7.4905911534382559E-009
  -2.0850000000000000E-002     7.7064531376936032E-009
  -2.0799999999999999E-002     7.9289650183083440E-009
  -2.0750000000000001E-002     8.1585615911250085E-009
  -2.0700000000000000E-002     8.3952832882610128E-009
  -2.0649999999999998E-002     8.6388635024399876E-009
  -2.0600000000000000E-002     8.8889223627130285E-009
  -2.0549999999999999E-002     9.1451980091079009E-009
  -2.0500000000000001E-002     9.4077467297982031E-009
  -2.0449999999999999E-002     9.6770454199779958E-009
  -2.0400000000000001E-002     9.9539632086282159E-009
  -2.0350000000000000E-002     1.0239592328674961E-008
  -2.0299999999999999E-002     1.0534993924620034E-008
  -2.0250000000000001E-002     1.0840923144692820E-008
  -2.0199999999999999E-002     1.1157618284547152E-008
  -2.0150000000000001E-002     1.1484723420013919E-008
  -2.0100000000000000E-002     1.1821369161267609E-008
  -2.0049999999999998E-002     1.2166397250126307E-008
  -2.0000000000000000E-002     1.2518677613462200E-008
  -1.9949999999999999E-002     1.2877426668922206E-008
  -1.9900000000000001E-002     1.3242440996087744E-008
  -1.9850000000000000E-002     1.3614188504102281E-008
  -1.9799999999999998E-002     1.3993734165046693E-008
  -1.9750000000000000E-002     1.4382520384259742E-008
  -1.9699999999999999E-002     1.4782059250949222E-008
  -1.9650000000000001E-002     1.5193638652546378E-008
  -1.9599999999999999E-002     1.5618097142852135E-008
  -1.9550000000000001E-002     1.6055741698805968E-008
  -1.9500000000000000E-002     1.6506426655501621E-008
  -1.9449999999999999E-002     1.6969757370392696E-008
  -1.9400000000000001E-002     1.7445348119079667E-008
  -1.9349999999999999E-002     1.7933076767969185E-008
  -1.9300000000000001E-002     1.8433211896593852E-008
  -1.9250000000000000E-002     1.8946426756168146E-008
  -1.9199999999999998E-002     1.9473658061815822E-008
  -1.9150000000000000E-002     2.0015872304698981E-008
  -1.9099999999999999E-002     2.0573823923301292E-008
  -1.9050000000000001E-002     2.1147855535636394E-008
  -1.9000000000000000E-002     2.1737832016498033E-008
  -1.8949999999999998E-002     2.2343220421458721E-008
  -1.8900000000000000E-002     2.2963314612808038E-008
  -1.8849999999999999E-002     2.3597505145626250E-008
  -1.8800000000000001E-002     2.4245561853943714E-008
  -1.8749999999999999E-002     2.4907818035614035E-008
  -1.8700000000000001E-002     2.5585198436011008E-008
  -1.8650000000000000E-002     2.6279080843796195E-008
  -1.8599999999999998E-002     2.6991041662294793E-008
  -1.8550000000000001E-002     2.7722522934821807E-008
  -1.8499999999999999E-002     2.8474538231670082E-008
  -1.8450000000000001E-002     2.9247502608740118E-008
  -1.8400000000000000E-002     3.0041247028193320E-008
  -1.8349999999999998E-002     3.0855169741963511E-008
  -1.8300000000000000E-002     3.1688548168881179E-008
  -1.8249999999999999E-002     3.2540847248541153E-008
  -1.8200000000000001E-002     3.3412022381068743E-008
  -1.8149999999999999E-002     3.4302621733643910E-008
  -1.8100000000000002E-002     3.5213748965828470E-008
  -1.8050000000000000E-002     3.6146859316483462E-008
  -1.7999999999999999E-002     3.7103450796682393E-008
  -1.7950000000000001E-002     3.8084763057996313E-008
  -1.7899999999999999E-002     3.9091572973381874E-008
  -1.7850000000000001E-002     4.0124127341517424E-008
  -1.7800000000000000E-002     4.1182261651320974E-008
  -1.7749999999999998E-002     4.2265644168001390E-008
  -1.7700000000000000E-002     4.3374092353018376E-008
  -1.7649999999999999E-002     4.4507882740616419E-008
  -1.7600000000000001E-002     4.5667886879527638E-008
  -1.7550000000000000E-002     4.6855592733034146E-008
  -1.7499999999999998E-002     4.8072920712007528E-008
  -1.7450000000000000E-002     4.9321899804920137E-008
  -1.7399999999999999E-002     5.0604321696660003E-008
  -1.7350000000000001E-002     5.1921455751170326E-008
  -1.7299999999999999E-002     5.3273930027749761E-008
  -1.7250000000000001E-002     5.4661786717334417E-008
  -1.7200000000000000E-002     5.6084683850019523E-008
  -1.7149999999999999E-002     5.7542219324527797E-008
  -1.7100000000000001E-002     5.9034227392564355E-008
  -1.7049999999999999E-002     6.0561022059893974E-008
  -1.7000000000000001E-002     6.2123489423711669E-008
  -1.6950000000000000E-002     6.3722972336134952E-008
  -1.6899999999999998E-002     6.5361053422356971E-008
  -1.6850000000000000E-002     6.7039221010827533E-008
  -1.6799999999999999E-002     6.8758581901375712E-008
  -1.6750000000000001E-002     7.0519622559352293E-008
  -1.6700000000000000E-002     7.2322195430617968E-008
  -1.6649999999999998E-002     7.4165657837673925E-008
  -1.6600000000000000E-002     7.6049188402437703E-008
  -1.6549999999999999E-002     7.7972100402779357E-008
  -1.6500000000000001E-002     7.9934193344338472E-008
  -1.6449999999999999E-002     8.1935893567165991E-008
  -1.6400000000000001E-002     8.3978312039245028E-008
  -1.6350000000000000E-002     8.6063077155315875E-008
  -1.6299999999999999E-002     8.8192070723104062E-008
  -1.6250000000000001E-002     9.0367226364471425E-008
  -1.6199999999999999E-002     9.2590221322204191E-008
  -1.6150000000000001E-002     9.4862422396642939E-008
  -1.6100000000000000E-002     9.7184858902675012E-008
  -1.6049999999999998E-002     9.9558412215175879E-008
  -1.6000000000000000E-002     1.0198404784660880E-007
  -1.5949999999999999E-002     1.0446303125992623E-007
  -1.5900000000000001E-002     1.0699709624800182E-007
  -1.5850000000000000E-002     1.0958842875953228E-007
  -1.5799999999999998E-002     1.1223951199458280E-007
  -1.5750000000000000E-002     1.1495291951601056E-007
  -1.5699999999999999E-002     1.1773105309920025E-007
  -1.5650000000000001E-002     1.2057594389123238E-007
  -1.5599999999999999E-002     1.2348920869569912E-007
  -1.5550000000000001E-002     1.2647207348249572E-007
  -1.5500000000000000E-002     1.2952567795884949E-007
  -1.5449999999999998E-002     1.3265120952171176E-007
  -1.5400000000000000E-002     1.3585020196792131E-007
  -1.5349999999999999E-002     1.3912456917243081E-007
  -1.5300000000000001E-002     1.4247656291066152E-007
  -1.5250000000000000E-002     1.4590861753556316E-007
  -1.5199999999999998E-002     1.4942303628907284E-007
  -1.5150000000000000E-002     1.5302177387464331E-007
  -1.5099999999999999E-002     1.5670615077709388E-007
  -1.5050000000000001E-002     1.6047679159982868E-007
  -1.4999999999999999E-002     1.6433362242655412E-007
  -1.4949999999999998E-002     1.6827611172598736E-007
  -1.4900000000000000E-002     1.7230360817361254E-007
  -1.4849999999999999E-002     1.7641555314880672E-007
  -1.4800000000000001E-002     1.8061169149491465E-007
  -1.4749999999999999E-002     1.8489216833230168E-007
  -1.4700000000000001E-002     1.8925738632843325E-007
  -1.4650000000000000E-002     1.9370793102404511E-007
  -1.4599999999999998E-002     1.9824426962755994E-007
  -1.4550000000000000E-002     2.0286670716437430E-007
  -1.4499999999999999E-002     2.0757538902810734E-007
  -1.4450000000000001E-002     2.1237030482339210E-007
  -1.4400000000000000E-002     2.1725155029977756E-007
  -1.4349999999999998E-002     2.2221956576205680E-007
  -1.4300000000000000E-002     2.2727530812255331E-007
  -1.4249999999999999E-002     2.3242054071151910E-007
  -1.4200000000000001E-002     2.3765773159568328E-007
  -1.4149999999999999E-002     2.4299010652267650E-007
  -1.4099999999999998E-002     2.4842137229524281E-007
  -1.4050000000000000E-002     2.5395558481962497E-007
  -1.3999999999999999E-002     2.5959712636335503E-007
  -1.3950000000000001E-002     2.6535042336307366E-007
  -1.3899999999999999E-002     2.7122014762494485E-007
  -1.3850000000000001E-002     2.7721139183136601E-007
  -1.3800000000000000E-002     2.8332971159092845E-007
  -1.3749999999999998E-002     2.8958118943221323E-007
  -1.3700000000000000E-002     2.9597233151548774E-007
  -1.3649999999999999E-002     3.0250998045750982E-007
  -1.3600000000000001E-002     3.0920094620550002E-007
  -1.3550000000000000E-002     3.1605168646087148E-007
  -1.3499999999999998E-002     3.2306821448381778E-007
  -1.3450000000000000E-002     3.3025564137686863E-007
  -1.3399999999999999E-002     3.3761851583438843E-007
  -1.3350000000000001E-002     3.4516068299515353E-007
  -1.3299999999999999E-002     3.5288577687727367E-007
  -1.3249999999999998E-002     3.6079731465740477E-007
  -1.3200000000000000E-002     3.6889907339679703E-007
  -1.3149999999999998E-002     3.7719495040878934E-007
  -1.3100000000000001E-002     3.8568870306202617E-007
  -1.3049999999999999E-002     3.9438376894835018E-007
  -1.3000000000000001E-002     4.0328287995538377E-007
  -1.2950000000000000E-002     4.1238773165025118E-007
  -1.2899999999999998E-002     4.2169869214906286E-007
  -1.2850000000000000E-002     4.3121499160981402E-007
  -1.2799999999999999E-002     4.4093469679286806E-007