  -4.0000000000000001E-002     0.0000000000000000     
  -3.9949999999999999E-002     0.0000000000000000     
  -3.9899999999999998E-002     0.0000000000000000     
  -3.9850000000000003E-002     0.0000000000000000     
  -3.9800000000000002E-002     0.0000000000000000     
  -3.9750000000000001E-002     0.0000000000000000     
  -3.9699999999999999E-002     0.0000000000000000     
  -3.9649999999999998E-002     0.0000000000000000     
  -3.9600000000000003E-002     0.0000000000000000     
  -3.9550000000000002E-002     0.0000000000000000     
  -3.9500000000000000E-002     0.0000000000000000     
  -3.9449999999999999E-002     0.0000000000000000     
  -3.9399999999999998E-002     0.0000000000000000     
  -3.9350000000000003E-002     0.0000000000000000     
  -3.9300000000000002E-002     0.0000000000000000     
  -3.9250000000000000E-002     0.0000000000000000     
  -3.9199999999999999E-002    -1.4772526208418247E-038
  -3.9150000000000004E-002    -1.2036303441458480E-037
  -3.9100000000000003E-002    -5.1940408657278181E-037
  -3.9050000000000001E-002    -3.3524722770726676E-037
  -3.9000000000000000E-002     1.1821457730927420E-035
  -3.8949999999999999E-002     9.8124181505918309E-035
  -3.8900000000000004E-002     4.8141330651879262E-034
  -3.8850000000000003E-002     1.7022453381600530E-033
  -3.8800000000000001E-002     4.4332366132712871E-033
  -3.8750000000000000E-002     7.5624110241401585E-033
  -3.8699999999999998E-002     1.7357681254538925E-033
  -3.8650000000000004E-002    -4.3891199791397030E-032
  -3.8600000000000002E-002    -1.9481529887792851E-031
  -3.8550000000000001E-002    -5.3057208828707263E-031
  -3.8500000000000000E-002    -1.0135365510311304E-030
  -3.8449999999999998E-002    -1.1519480939359507E-030
  -3.8400000000000004E-002     5.2171443299593617E-031
  -3.8350000000000002E-002     6.7339687230224060E-030
  -3.8300000000000001E-002     2.0383951678249678E-029
  -3.8249999999999999E-002     4.0388380753948780E-029
  -3.8199999999999998E-002     5.3537700141007959E-029
  -3.8150000000000003E-002     2.5230156874962304E-029
  -3.8100000000000002E-002    -1.0069621185437699E-028
  -3.8050000000000000E-002    -3.7520272588219008E-028
  -3.7999999999999999E-002    -7.7398095992070838E-028
  -3.7949999999999998E-002    -1.0912477847360006E-027
  -3.7900000000000003E-002    -8.5662533090724634E-028
  -3.7850000000000002E-002     6.0229994042525958E-028
  -3.7800000000000000E-002     3.8073822703916997E-027
  -3.7749999999999999E-002     8.4389895663195926E-027
  -3.7699999999999997E-002     1.2519614567370975E-026
  -3.7650000000000003E-002     1.2048852847586964E-026
  -3.7600000000000001E-002     1.9056032265527264E-027
  -3.7550000000000000E-002    -2.1395388954696839E-026
  -3.7499999999999999E-002    -5.5453485243570214E-026
  -3.7449999999999997E-002    -8.8117167941026778E-026
  -3.7400000000000003E-002    -9.7205827604324110E-026
  -3.7350000000000001E-002    -5.6920695798746806E-026
  -3.7300000000000000E-002     4.8499921680612798E-026
  -3.7249999999999998E-002     2.0814159556092535E-025
  -3.7200000000000004E-002     3.7403018279146213E-025
  -3.7150000000000002E-002     4.6767726728204944E-025
  -3.7100000000000001E-002     4.0868260606086761E-025
  -3.7050000000000000E-002     1.5773057214276378E-025
  -3.6999999999999998E-002    -2.4841726349165119E-025
  -3.6950000000000004E-002    -6.9861820173598307E-025
  -3.6900000000000002E-002    -1.0616121603532205E-024
  -3.6850000000000001E-002    -1.2744365129013360E-024
  -3.6799999999999999E-002    -1.4045200923063419E-024
  -3.6749999999999998E-002    -1.6054581727887387E-024
  -3.6700000000000003E-002    -1.9233835738695818E-024
  -3.6650000000000002E-002    -2.0159690326659025E-024
  -3.6600000000000001E-002    -9.8231037515886319E-025
  -3.6549999999999999E-002     2.4228255168774711E-024
  -3.6499999999999998E-002     9.0140900008956262E-024
  -3.6450000000000003E-002     1.7985746609365224E-023
  -3.6400000000000002E-002     2.5906537523752604E-023
  -3.6350000000000000E-002     2.6817716180661950E-023
  -3.6299999999999999E-002     1.4192922992344961E-023
  -3.6249999999999998E-002    -1.5317326900493094E-023
  -3.6200000000000003E-002    -5.7743653903563842E-023
  -3.6150000000000002E-002    -9.9740116988776556E-023
  -3.6100000000000000E-002    -1.2104154507602452E-022
  -3.6049999999999999E-002    -1.0208742855111692E-022
  -3.6000000000000004E-002    -3.4365250270804874E-023
  -3.5950000000000003E-002     7.1776431819968206E-023
  -3.5900000000000001E-002     1.8740385895371827E-022
  -3.5850000000000000E-002     2.7538947738745784E-022
  -3.5799999999999998E-002     3.0654891561623643E-022
  -3.5750000000000004E-002     2.7160152614398304E-022
  -3.5700000000000003E-002     1.7914622136401384E-022
  -3.5650000000000001E-002     3.8233991446947394E-023
  -3.5600000000000000E-002    -1.6209411691657439E-022
  -3.5549999999999998E-002    -4.5368329669482230E-022
  -3.5500000000000004E-002    -8.5216847144613926E-022
  -3.5450000000000002E-002    -1.2874039325471972E-021
  -3.5400000000000001E-002    -1.5424678773667948E-021
  -3.5349999999999999E-002    -1.2673181398936590E-021
  -3.5299999999999998E-002    -1.2076510034921553E-022
  -3.5250000000000004E-002     1.9690546505534784E-021
  -3.5200000000000002E-002     4.5328419655147486E-021
  -3.5150000000000001E-002     6.4634789188432379E-021
  -3.5099999999999999E-002     6.2753458720984743E-021
  -3.5049999999999998E-002     2.7669587142961808E-021
  -3.5000000000000003E-002    -4.1034761860518025E-021
  -3.4950000000000002E-002    -1.2556608221740878E-020
  -3.4900000000000000E-002    -1.9052613534328017E-020
  -3.4849999999999999E-002    -1.9383737602205187E-020
  -3.4799999999999998E-002    -1.0631572779796981E-020
  -3.4750000000000003E-002     6.7560383780058486E-021
  -3.4700000000000002E-002     2.7881658269029505E-020
  -3.4650000000000000E-002     4.4276125189338299E-020
  -3.4599999999999999E-002     4.6943780207775544E-020
  -3.4549999999999997E-002     3.0637912302002571E-020
  -3.4500000000000003E-002    -2.5522818113549719E-021
  -3.4450000000000001E-002    -4.2411760070673143E-020
  -3.4400000000000000E-002    -7.3757712525477744E-020
  -3.4349999999999999E-002    -8.2806037637107024E-020
  -3.4299999999999997E-002    -6.4021928227630009E-020
  -3.4250000000000003E-002    -2.3793035809839829E-020
  -3.4200000000000001E-002     2.1777860047873749E-020
  -3.4150000000000000E-002     5.4855459744732836E-020
  -3.4099999999999998E-002     6.6039901649728063E-020
  -3.4049999999999997E-002     6.0887143965908598E-020
  -3.4000000000000002E-002     5.7667582797771880E-020
  -3.3950000000000001E-002     7.5356245616581693E-020
  -3.3900000000000000E-002     1.1683992194410666E-019
  -3.3849999999999998E-002     1.5711150636480816E-019
  -3.3799999999999997E-002     1.4649992445353204E-019
  -3.3750000000000002E-002     3.3148257444104209E-020
  -3.3700000000000001E-002    -2.0147946098267023E-019
  -3.3649999999999999E-002    -5.1062872313486542E-019
  -3.3599999999999998E-002    -7.7459695360078585E-019
  -3.3550000000000003E-002    -8.3186630716579782E-019
  -3.3500000000000002E-002    -5.4694656942048475E-019
  -3.3450000000000001E-002     1.0798627290940728E-019
  -3.3399999999999999E-002     9.9565697113273009E-019
  -3.3349999999999998E-002     1.8180980270673821E-018
  -3.3300000000000003E-002     2.2005756313215355E-018
  -3.3250000000000002E-002     1.8381802268731736E-018
  -3.3200000000000000E-002     6.5281714562513701E-019
  -3.3149999999999999E-002    -1.1103522197977581E-018
  -3.3099999999999997E-002    -2.9067861076137312E-018
  -3.3050000000000003E-002    -4.0539181550821100E-018
  -3.3000000000000002E-002    -3.9869645715373690E-018
  -3.2950000000000000E-002    -2.5135788562329023E-018
  -3.2899999999999999E-002     4.6458156118287352E-020
  -3.2850000000000004E-002     2.9185013415160788E-018
  -3.2800000000000003E-002     5.1329401958317773E-018
  -3.2750000000000001E-002     5.9006359051399308E-018
  -3.2700000000000000E-002     4.9487201140024756E-018
  -3.2649999999999998E-002     2.6560189210283523E-018
  -3.2600000000000004E-002    -1.0147224217375320E-019
  -3.2550000000000003E-002    -2.3564773428175379E-018
  -3.2500000000000001E-002    -3.5361126721982176E-018
  -3.2450000000000000E-002    -3.7828721840716695E-018
  -3.2399999999999998E-002    -3.9035828159871795E-018
  -3.2350000000000004E-002    -4.8920574958746922E-018
  -3.2300000000000002E-002    -7.1902688605940345E-018
  -3.2250000000000001E-002    -1.0042554041510329E-017
  -3.2199999999999999E-002    -1.1353509830546698E-017
  -3.2149999999999998E-002    -8.3188371476767903E-018
  -3.2100000000000004E-002     1.2252416395059797E-018
  -3.2050000000000002E-002     1.7183011019390014E-017
  -3.2000000000000001E-002     3.6052110812294392E-017
  -3.1949999999999999E-002     5.1007356782925484E-017
  -3.1899999999999998E-002     5.3632084004633179E-017
  -3.1850000000000003E-002     3.7070577939701330E-017
  -3.1800000000000002E-002    -3.5202270059867685E-019
  -3.1750000000000000E-002    -5.2496496294296517E-017
  -3.1699999999999999E-002    -1.0520873394136308E-016
  -3.1649999999999998E-002    -1.3935229611746207E-016
  -3.1600000000000003E-002    -1.3672608375115851E-016
  -3.1550000000000002E-002    -8.7235848771576600E-017
  -3.1500000000000000E-002     5.2046871506683406E-018
  -3.1449999999999999E-002     1.2062353437592773E-016
  -3.1399999999999997E-002     2.2639601729778124E-016
  -3.1350000000000003E-002     2.8591456950578506E-016
  -3.1300000000000001E-002     2.7029924193154231E-016
  -3.1250000000000000E-002     1.6942840728650147E-016
  -3.1199999999999999E-002    -1.7130795425649228E-018
  -3.1150000000000001E-002    -2.0417630195955176E-016
  -3.1100000000000003E-002    -3.8410631487798424E-016
  -3.1050000000000001E-002    -4.8737838171165337E-016
  -3.1000000000000000E-002    -4.7538226624580605E-016
  -3.0949999999999998E-002    -3.3695554131404887E-016
  -3.0900000000000000E-002    -9.2716248278236468E-017
  -3.0850000000000002E-002     2.0930854847454625E-016
  -3.0800000000000001E-002     5.0489625047718656E-016
  -3.0750000000000000E-002     7.2775440080192803E-016
  -3.0699999999999998E-002     8.2233658474503512E-016
  -3.0650000000000000E-002     7.5268553344558748E-016
  -3.0600000000000002E-002     5.0716978791544290E-016
  -3.0550000000000001E-002     1.0109715166146465E-016
  -3.0499999999999999E-002    -4.2051332279191166E-016
  -3.0449999999999998E-002    -9.7967388710358723E-016
  -3.0400000000000000E-002    -1.4647997844704618E-015
  -3.0350000000000002E-002    -1.7388068395283299E-015
  -3.0300000000000001E-002    -1.6621303853354812E-015
  -3.0249999999999999E-002    -1.1326426001121032E-015
  -3.0200000000000001E-002    -1.3622267970611616E-016
  -3.0150000000000000E-002     1.2077670368015177E-015
  -3.0100000000000002E-002     2.6281012683177952E-015
  -3.0050000000000000E-002     3.7310157666814835E-015
  -2.9999999999999999E-002     4.0863278494836368E-015
  -2.9950000000000001E-002     3.3593876218958844E-015
  -2.9899999999999999E-002     1.4552728827878135E-015
  -2.9850000000000002E-002    -1.3747047286473165E-015
  -2.9800000000000000E-002    -4.5152874194359729E-015
  -2.9749999999999999E-002    -7.0906739240451681E-015
  -2.9700000000000001E-002    -8.1848162937557843E-015
  -2.9650000000000003E-002    -7.1301509890430896E-015
  -2.9600000000000001E-002    -3.7798270702959477E-015
  -2.9550000000000000E-002     1.3344562987965941E-015
  -2.9499999999999998E-002     7.0364150361452495E-015
  -2.9450000000000000E-002     1.1755740492863433E-014
  -2.9400000000000003E-002     1.3949192615846584E-014
  -2.9350000000000001E-002     1.2579962848669817E-014
  -2.9300000000000000E-002     7.5067898531151422E-015
  -2.9249999999999998E-002    -3.5510645588294303E-016
  -2.9200000000000000E-002    -9.1793206406067422E-015
  -2.9150000000000002E-002    -1.6664779047881717E-014
  -2.9100000000000001E-002    -2.0652089629379397E-014
  -2.9049999999999999E-002    -1.9742404437167903E-014
  -2.8999999999999998E-002    -1.3731452816887365E-014
  -2.8950000000000000E-002    -3.7236114170775909E-015
  -2.8900000000000002E-002     8.1109890901096957E-015
  -2.8850000000000001E-002     1.9062996858336339E-014
  -2.8799999999999999E-002     2.6537542908145775E-014
  -2.8749999999999998E-002     2.8651650092664123E-014
  -2.8700000000000000E-002     2.4627992669347292E-014
  -2.8650000000000002E-002     1.4918876043244776E-014
  -2.8600000000000000E-002     1.0840006062122096E-015
  -2.8549999999999999E-002    -1.4493664241632658E-014
  -2.8500000000000001E-002    -2.8961406000021012E-014
  -2.8450000000000000E-002    -3.9366919286934554E-014
  -2.8400000000000002E-002    -4.3050184832538211E-014
  -2.8350000000000000E-002    -3.8095381886530747E-014
  -2.8299999999999999E-002    -2.3857518617790234E-014
  -2.8250000000000001E-002    -1.4936737886840646E-015
  -2.8200000000000003E-002     2.5681603224292131E-014
  -2.8150000000000001E-002     5.2270371704518248E-014
  -2.8100000000000000E-002     7.1520314603473608E-014
  -2.8049999999999999E-002     7.6771509603253632E-014
  -2.8000000000000001E-002     6.3412672462031632E-014
  -2.7950000000000003E-002     3.0845641828160477E-014
  -2.7900000000000001E-002    -1.6231774768131868E-014
  -2.7850000000000000E-002    -6.7884852721437122E-014
  -2.7799999999999998E-002    -1.1070174251087942E-013
  -2.7750000000000000E-002    -1.3109173334044362E-013
  -2.7700000000000002E-002    -1.1936826548395029E-013
  -2.7650000000000001E-002    -7.3419398847627407E-014
  -2.7600000000000000E-002    -6.6917490416828313E-016
  -2.7549999999999998E-002     8.2615856242560561E-014
  -2.7500000000000000E-002     1.5487399149336345E-013
  -2.7450000000000002E-002     1.9491542123937998E-013
  -2.7400000000000001E-002     1.8816908733023314E-013
  -2.7349999999999999E-002     1.3159587422572210E-013
  -2.7299999999999998E-002     3.5597491715796708E-014
  -2.7250000000000000E-002    -7.7915133540907758E-014
  -2.7200000000000002E-002    -1.8094836387298271E-013
  -2.7150000000000001E-002    -2.4686067963801957E-013
  -2.7099999999999999E-002    -2.5762316731074383E-013
  -2.7049999999999998E-002    -2.0873359340961045E-013
  -2.7000000000000000E-002    -1.1034696350815201E-013
  -2.6950000000000002E-002     1.5605279716633805E-014
  -2.6900000000000000E-002     1.4127587358894279E-013
  -2.6849999999999999E-002     2.3985308398391300E-013
  -2.6800000000000001E-002     2.9155118750877131E-013
  -2.6749999999999999E-002     2.8714246135167321E-013
  -2.6700000000000002E-002     2.2854682545922646E-013
  -2.6650000000000000E-002     1.2703278651291098E-013
  -2.6599999999999999E-002     2.1710812603403615E-016
  -2.6550000000000001E-002    -1.3095025249614039E-013
  -2.6500000000000003E-002    -2.4459785466225242E-013
  -2.6450000000000001E-002    -3.1991610548834900E-013
  -2.6400000000000000E-002    -3.3943831380392947E-013
  -2.6349999999999998E-002    -2.9229238996378262E-013
  -2.6300000000000000E-002    -1.7837005423815358E-013
  -2.6250000000000002E-002    -1.2255184715748771E-014
  -2.6200000000000001E-002     1.7515444390135502E-013
  -2.6150000000000000E-002     3.3951484785370139E-013
  -2.6099999999999998E-002     4.3155860496093154E-013
  -2.6050000000000000E-002     4.1043491104466407E-013
  -2.6000000000000002E-002     2.5867896943949086E-013
  -2.5950000000000001E-002    -6.0952456783010127E-015
  -2.5899999999999999E-002    -3.2787734611986346E-013
  -2.5849999999999998E-002    -6.2063030167900834E-013
  -2.5800000000000000E-002    -7.8819067901187169E-013
  -2.5750000000000002E-002    -7.5141506897709200E-013
  -2.5700000000000001E-002    -4.7497653978708258E-013
  -2.5649999999999999E-002     1.4915106027451765E-014
  -2.5599999999999998E-002     6.2880082308875555E-013
  -2.5550000000000000E-002     1.2307651618301562E-012
  -2.5500000000000002E-002     1.6704486971408095E-012
  -2.5450000000000000E-002     1.8217920906403638E-012
  -2.5399999999999999E-002     1.6172795352274767E-012
  -2.5349999999999998E-002     1.0672979165106984E-012
  -2.5300000000000000E-002     2.5856889539599303E-013
  -2.5250000000000002E-002    -6.6791092564080593E-013
  -2.5200000000000000E-002    -1.5525693003265212E-012
  -2.5149999999999999E-002    -2.2556017984353859E-012
  -2.5100000000000001E-002    -2.6865435149460106E-012
  -2.5049999999999999E-002    -2.8170699956757645E-012
  -2.5000000000000001E-002    -2.6749741885979044E-012
  -2.4950000000000000E-002    -2.3235576663791092E-012
  -2.4899999999999999E-002    -1.8350239859873555E-012
  -2.4850000000000001E-002    -1.2674105008292393E-012
  -2.4800000000000003E-002    -6.5202578075985529E-013
  -2.4750000000000001E-002     6.4375591772218683E-015
  -2.4700000000000000E-002     7.1989774021133457E-013
  -2.4649999999999998E-002     1.5028204723098359E-012
  -2.4600000000000000E-002     2.3599897183833905E-012
  -2.4550000000000002E-002     3.2793376606343304E-012
  -2.4500000000000001E-002     4.2292312969209802E-012
  -2.4450000000000000E-002     5.1567007296704557E-012
  -2.4399999999999998E-002     5.9827856510780269E-012
  -2.4350000000000000E-002     6.5939364060763210E-012
  -2.4299999999999999E-002     6.8330518920329402E-012
  -2.4250000000000001E-002     6.4980388788571139E-012
  -2.4199999999999999E-002     5.3571687799407623E-012
  -2.4150000000000001E-002     3.1874511668305352E-012
  -2.4100000000000000E-002    -1.6502408511407505E-013
  -2.4049999999999998E-002    -4.7131428237457194E-012
  -2.4000000000000000E-002    -1.0263360496283151E-011
  -2.3949999999999999E-002    -1.6377804157361843E-011
  -2.3900000000000001E-002    -2.2380636103778742E-011
  -2.3850000000000000E-002    -2.7414569576297644E-011
  -2.3800000000000002E-002    -3.0538960916159532E-011
  -2.3750000000000000E-002    -3.0847546752330545E-011
  -2.3699999999999999E-002    -2.7576521555139810E-011
  -2.3650000000000001E-002    -2.0175000796315736E-011
  -2.3599999999999999E-002    -8.3208866462052926E-012
  -2.3550000000000001E-002     8.1184572088505948E-012
  -2.3500000000000000E-002     2.9163909077800195E-011
  -2.3449999999999999E-002     5.4811903253505017E-011
  -2.3400000000000001E-002     8.5099823272726078E-011
  -2.3349999999999999E-002     1.2012629686037404E-010
  -2.3300000000000001E-002     1.6001837057925353E-010
  -2.3250000000000000E-002     2.0485677433632669E-010
  -2.3199999999999998E-002     2.5458421441680502E-010
  -2.3150000000000000E-002     3.0892891368527966E-010
  -2.3099999999999999E-002     3.6737001461641392E-010
  -2.3050000000000001E-002     4.2915893855922283E-010
  -2.3000000000000000E-002     4.9339368040392071E-010
  -2.2950000000000002E-002     5.5912745085902616E-010
  -2.2900000000000000E-002     6.2548483960852669E-010
  -2.2849999999999999E-002     6.9175971644570799E-010
  -2.2800000000000001E-002     7.5747679648044365E-010
  -2.2749999999999999E-002     8.2241260809462058E-010
  -2.2700000000000001E-002     8.8658182829922664E-010
  -2.2650000000000000E-002     9.5020144842709532E-010
  -2.2599999999999999E-002     1.0136446723636841E-009
  -2.2550000000000001E-002     1.0773917277541283E-009
  -2.2499999999999999E-002     1.1419773124316087E-009
  -2.2450000000000001E-002     1.2079294655618182E-009
  -2.2400000000000000E-002     1.2757003647946519E-009
  -2.2349999999999998E-002     1.3455912692339623E-009
  -2.2300000000000000E-002     1.4176883979742874E-009
  -2.2249999999999999E-002     1.4918281273904631E-009
  -2.2200000000000001E-002     1.5676134005650226E-009
  -2.2150000000000000E-002     1.6444886185852867E-009
  -2.2100000000000002E-002     1.7218678243964759E-009
  -2.2050000000000000E-002     1.7992874612395555E-009
  -2.1999999999999999E-002     1.8765458421116095E-009
  -2.1950000000000001E-002     1.9537857669607818E-009
  -2.1899999999999999E-002     2.0314916661858340E-009
  -2.1850000000000001E-002     2.1103950975405891E-009
  -2.1800000000000000E-002     2.1913107414706431E-009
  -2.1749999999999999E-002     2.2749480310044537E-009
  -2.1700000000000001E-002     2.3617548053692040E-009
  -2.1649999999999999E-002     2.4518413516470995E-009
  -2.1600000000000001E-002     2.5450071676942970E-009
  -2.1550000000000000E-002     2.6408655232410856E-009
  -2.1499999999999998E-002     2.7390251262635357E-009
  -2.1450000000000000E-002     2.8392714147141984E-009
  -2.1399999999999999E-002     2.9416867463391528E-009
  -2.1350000000000001E-002     3.0466715901205157E-009
  -2.1299999999999999E-002     3.1548570159290864E-009
  -2.1250000000000002E-002     3.2669325296803839E-009
  -2.1200000000000000E-002     3.3834452315705583E-009
  -2.1149999999999999E-002     3.5046286408371935E-009
  -2.1100000000000001E-002     3.6303174659608746E-009
  -2.1049999999999999E-002     3.7599692060613731E-009
  -2.1000000000000001E-002     3.8927880226058543E-009
  -2.0950000000000000E-002     4.0279133073914926E-009
  -2.0899999999999998E-002     4.1646173082981452E-009
  -2.0850000000000000E-002     4.3024664525846698E-009
  -2.0799999999999999E-002     4.4414119676158878E-009
  -2.0750000000000001E-002     4.5817981562880337E-009
  -2.0700000000000000E-002     4.7243113669859841E-009
  -2.0649999999999998E-002     4.8698889724961496E-009
  -2.0600000000000000E-002     5.0196158322149340E-009
  -2.0549999999999999E-002     5.1746275684708848E-009
  -2.0500000000000001E-002     5.3360108991473364E-009
  -2.0449999999999999E-002     5.5047032455945560E-009
  -2.0400000000000001E-002     5.6813819179435036E-009
  -2.0350000000000000E-002     5.8663513932800845E-009
  -2.0299999999999999E-002     6.0594626596232382E-009
  -2.0250000000000001E-002     6.2600907316201124E-009
  -2.0199999999999999E-002     6.4672077128067669E-009
  -2.0150000000000001E-002     6.6795582161298920E-009
  -2.0100000000000000E-002     6.8959140724257077E-009
  -2.0049999999999998E-002     7.1153448498786686E-009
  -2.0000000000000000E-002     7.3374340358807003E-009
  -1.9949999999999999E-002     7.5623763313769038E-009
  -1.9900000000000001E-002     7.7909223334736106E-009
  -1.9850000000000000E-002     8.0241873304074155E-009
  -1.9799999999999998E-002     8.2633828466883060E-009
  -1.9750000000000000E-002     8.5095661275104162E-009
  -1.9699999999999999E-002     8.7634681384374708E-009
  -1.9650000000000001E-002     9.0254584658802675E-009
  -1.9599999999999999E-002     9.2956462831736019E-009
  -1.9550000000000001E-002     9.5740543199444753E-009
  -1.9500000000000000E-002     9.8608064239147933E-009
  -1.9449999999999999E-002     1.0156253271705312E-008
  -1.9400000000000001E-002     1.0460996855239594E-008
  -1.9349999999999999E-002     1.0775806330689902E-008
  -1.9300000000000001E-002     1.1101469020376438E-008
  -1.9250000000000000E-002     1.1438611467064806E-008
  -1.9199999999999998E-002     1.1787556554230555E-008
  -1.9150000000000000E-002     1.2148238576015922E-008
  -1.9099999999999999E-002     1.2520189072651564E-008
  -1.9050000000000001E-002     1.2902603158238416E-008
  -1.9000000000000000E-002     1.3294455231157756E-008
  -1.8949999999999998E-002     1.3694673806529582E-008
  -1.8900000000000000E-002     1.4102333186176981E-008
  -1.8849999999999999E-002     1.4516864970202417E-008
  -1.8800000000000001E-002     1.4938233557479892E-008
  -1.8749999999999999E-002     1.5367048382838474E-008
  -1.8700000000000001E-002     1.5804569878044153E-008
  -1.8650000000000000E-002     1.6252592887524910E-008
  -1.8599999999999998E-002     1.6713225649791553E-008
  -1.8550000000000001E-002     1.7188595251828258E-008
  -1.8499999999999999E-002     1.7680565522924348E-008
  -1.8450000000000001E-002     1.8190506676397924E-008
  -1.8400000000000000E-002     1.8719174350249956E-008
  -1.8349999999999998E-002     1.9266706348989011E-008
  -1.8300000000000000E-002     1.9832698230004325E-008
  -1.8249999999999999E-002     2.0416353856276643E-008
  -1.8200000000000001E-002     2.1016643151169121E-008
  -1.8149999999999999E-002     2.1632475065740140E-008
  -1.8100000000000002E-002     2.2262863526281407E-008
  -1.8050000000000000E-002     2.2907096135593337E-008
  -1.7999999999999999E-002     2.3564891473372583E-008
  -1.7950000000000001E-002     2.4236485584732723E-008
  -1.7899999999999999E-002     2.4922655661234480E-008
  -1.7850000000000001E-002     2.5624623342366603E-008
  -1.7800000000000000E-002     2.6343846730323703E-008
  -1.7749999999999998E-002     2.7081781319735909E-008
  -1.7700000000000000E-002     2.7839657797550212E-008
  -1.7649999999999999E-002     2.8618392714333686E-008
  -1.7600000000000001E-002     2.9418639419004403E-008
  -1.7550000000000000E-002     3.0240964140352156E-008
  -1.7499999999999998E-002     3.1086070449477048E-008
  -1.7450000000000000E-002     3.1954925103917062E-008
  -1.7399999999999999E-002     3.2848726636290479E-008
  -1.7350000000000001E-002     3.3768711801786194E-008
  -1.7299999999999999E-002     3.4715866717353945E-008
  -1.7250000000000001E-002     3.5690649401071632E-008
  -1.7200000000000000E-002     3.6692890750609570E-008
  -1.7149999999999999E-002     3.7721875911002009E-008
  -1.7100000000000001E-002     3.8776639241897566E-008
  -1.7049999999999999E-002     3.9856329437318755E-008
  -1.7000000000000001E-002     4.0960486140326023E-008
  -1.6950000000000000E-002     4.2089198650907131E-008
  -1.6899999999999998E-002     4.3243047877248727E-008
  -1.6850000000000000E-002     4.4422980794595686E-008
  -1.6799999999999999E-002     4.5630190154911493E-008
  -1.6750000000000001E-002     4.6866061416803420E-008
  -1.6700000000000000E-002     4.8132240679909238E-008
  -1.6649999999999998E-002     4.9430723567492555E-008
  -1.6600000000000000E-002     5.0763856170939902E-008
  -1.6549999999999999E-002     5.2134160275244422E-008
  -1.6500000000000001E-002     5.3543966407787524E-008
  -1.6449999999999999E-002     5.4994983470628223E-008
  -1.6400000000000001E-002     5.6487979344772664E-008
  -1.6350000000000000E-002     5.8022693887502952E-008
  -1.6299999999999999E-002     5.9598097046899324E-008
  -1.6250000000000001E-002     6.1212891857215509E-008
  -1.6199999999999999E-002     6.2866067593486188E-008
  -1.6150000000000001E-002     6.4557316060358901E-008
  -1.6100000000000000E-002     6.6287127490071929E-008
  -1.6049999999999998E-002     6.8056592225240607E-008
  -1.6000000000000000E-002     6.9867067042347046E-008
  -1.5949999999999999E-002     7.1719810728228326E-008
  -1.5900000000000001E-002     7.3615884168403244E-008
  -1.5850000000000000E-002     7.5556251209357165E-008
  -1.5799999999999998E-002     7.7542045298366983E-008
  -1.5750000000000000E-002     7.9574791074564078E-008
  -1.5699999999999999E-002     8.1656529115536631E-008
  -1.5650000000000001E-002     8.3789627385759776E-008
  -1.5599999999999999E-002     8.5976484343915954E-008
  -1.5550000000000001E-002     8.8219179787691055E-008
  -1.5500000000000000E-002     9.0519336287995615E-008
  -1.5449999999999998E-002     9.2878169361271408E-008
  -1.5400000000000000E-002     9.5296639504286833E-008
  -1.5349999999999999E-002     9.7775680959624344E-008
  -1.5300000000000001E-002     1.0031624405947672E-007
  -1.5250000000000000E-002     1.0291918118468391E-007
  -1.5199999999999998E-002     1.0558500064269250E-007
  -1.5150000000000000E-002     1.0831373482565838E-007
  -1.5099999999999999E-002     1.1110500513800065E-007
  -1.5050000000000001E-002     1.1395846864637391E-007
  -1.4999999999999999E-002     1.1687434512527802E-007
  -1.4949999999999998E-002     1.1985396899878292E-007
  -1.4900000000000000E-002     1.2289997082508899E-007
  -1.4849999999999999E-002     1.2601605834195277E-007
  -1.4800000000000001E-002     1.2920639032663651E-007
  -1.4749999999999999E-002     1.3247472734130008E-007
  -1.4700000000000001E-002     1.3582398229010444E-007
  -1.4650000000000000E-002     1.3925598195377665E-007
  -1.4599999999999998E-002     1.4277180312661531E-007
  -1.4550000000000000E-002     1.4637217666754610E-007
  -1.4499999999999999E-002     1.5005805976262803E-007
  -1.4450000000000001E-002     1.5383070901568586E-007
  -1.4400000000000000E-002     1.5769147883834609E-007
  -1.4349999999999998E-002     1.6164146900902709E-007
  -1.4300000000000000E-002     1.6568111336590526E-007
  -1.4249999999999999E-002     1.6981029581650918E-007
  -1.4200000000000001E-002     1.7402871509814574E-007
  -1.4149999999999999E-002     1.7833663128967410E-007
  -1.4099999999999998E-002     1.8273549052955828E-007
  -1.4050000000000000E-002     1.8722803569022326E-007
  -1.3999999999999999E-002     1.9181798035550916E-007
  -1.3950000000000001E-002     1.9650927616459536E-007
  -1.3899999999999999E-002     2.0130523235741943E-007
  -1.3850000000000001E-002     2.0620812022444092E-007
  -1.3800000000000000E-002     2.1121938261890505E-007
  -1.3749999999999998E-002     2.1634038632171837E-007
  -1.3700000000000000E-002     2.2157314228076845E-007
  -1.3649999999999999E-002     2.2692095090314250E-007
  -1.3600000000000001E-002     2.3238834065798043E-007
  -1.3550000000000000E-002     2.3798028827042168E-007
  -1.3499999999999998E-002     2.4370135710736062E-007
  -1.3450000000000000E-002     2.4955474814061327E-007
  -1.3399999999999999E-002     2.5554217616732281E-007
  -1.3350000000000001E-002     2.6166423542182933E-007
  -1.3299999999999999E-002     2.6792127089882815E-007
  -1.3249999999999998E-002     2.7431417321025509E-007
  -1.3200000000000000E-002     2.8084491443260535E-007
  -1.3149999999999998E-002     2.8751625821648267E-007
  -1.3100000000000001E-002     2.9433119044532656E-007
  -1.3049999999999999E-002     3.0129249306235439E-007
  -1.3000000000000001E-002     3.0840237750774991E-007
  -1.2950000000000000E-002     3.1566298805230926E-007
  -1.2899999999999998E-002     3.2307704495762970E-007
  -1.2850000000000000E-002     3.3064851776059406E-007
  -1.2799999999999999E-002     3.3838259997279796E-007