  -4.0000000000000001E-002     0.0000000000000000     
  -3.9949999999999999E-002     0.0000000000000000     
  -3.9899999999999998E-002    -2.8776494194296075E-013
  -3.9850000000000003E-002    -2.3902743659438265E-012
  -3.9800000000000002E-002    -8.4820728025497330E-012
  -3.9750000000000001E-002    -1.8423486049523299E-011
  -3.9699999999999999E-002    -2.7729749987150898E-011
  -3.9649999999999998E-002    -3.0403301433306220E-011
  -3.9600000000000003E-002    -2.5303972300389364E-011
  -3.9550000000000002E-002    -1.9035638863588885E-011
  -3.9500000000000000E-002    -1.9985465549497211E-011
  -3.9449999999999999E-002    -2.7494362846964903E-011
  -3.9399999999999998E-002    -2.7670942462493975E-011
  -3.9350000000000003E-002    -3.2443062161201517E-012
  -3.9300000000000002E-002     4.9159392985319631E-011
  -3.9250000000000000E-002     1.1098954092491437E-010
  -3.9199999999999999E-002     1.5346435102056119E-010
  -3.9150000000000004E-002     1.6060020895863787E-010
  -3.9100000000000003E-002     1.4199563848423257E-010
  -3.9050000000000001E-002     1.2141951059607723E-010
  -3.9000000000000000E-002     1.1064743624728154E-010
  -3.8949999999999999E-002     9.4459352645884520E-011
  -3.8900000000000004E-002     4.3983485091535485E-011
  -3.8850000000000003E-002    -5.2182719989646995E-011
  -3.8800000000000001E-002    -1.6951452817751339E-010
  -3.8750000000000000E-002    -2.6262509615670778E-010
  -3.8699999999999998E-002    -3.0260391494539355E-010
  -3.8650000000000004E-002    -3.0166589702466586E-010
  -3.8600000000000002E-002    -2.9986401697468721E-010
  -3.8550000000000001E-002    -3.2456300475684944E-010
  -3.8500000000000000E-002    -3.6102051916127712E-010
  -3.8449999999999998E-002    -3.6334237692947601E-010
  -3.8400000000000004E-002    -2.9636375726090462E-010
  -3.8350000000000002E-002    -1.6817714268396776E-010
  -3.8300000000000001E-002    -2.1461723568750870E-011
  -3.8249999999999999E-002     1.0756458187879639E-010
  -3.8199999999999998E-002     2.2096741784067530E-010
  -3.8150000000000003E-002     3.4892405245149173E-010
  -3.8100000000000002E-002     5.0771979436921646E-010
  -3.8050000000000000E-002     6.7017237891012236E-010
  -3.7999999999999999E-002     7.8214272139477548E-010
  -3.7949999999999998E-002     8.1207338051536561E-010
  -3.7900000000000003E-002     7.8415800862817796E-010
  -3.7850000000000002E-002     7.5831131111768012E-010
  -3.7800000000000000E-002     7.7196192984006070E-010
  -3.7749999999999999E-002     7.9917103593149739E-010
  -3.7699999999999997E-002     7.6954384202059415E-010
  -3.7650000000000003E-002     6.3269369519929204E-010
  -3.7600000000000001E-002     4.0826141612752533E-010
  -3.7550000000000000E-002     1.7304101219280251E-010
  -3.7499999999999999E-002    -3.4462673004295124E-012
  -3.7449999999999997E-002    -1.1328504395706259E-010
  -3.7400000000000003E-002    -2.0225442473915760E-010
  -3.7350000000000001E-002    -3.0893178087844643E-010
  -3.7300000000000000E-002    -4.1329376207931030E-010
  -3.7249999999999998E-002    -4.4868829269377639E-010
  -3.7200000000000004E-002    -3.6757573500533677E-010
  -3.7150000000000002E-002    -1.9555680375572993E-010
  -3.7100000000000001E-002    -1.6749816141985052E-011
  -3.7050000000000000E-002     9.9698772289553867E-011
  -3.6999999999999998E-002     1.6238585261582594E-010
  -3.6950000000000004E-002     2.4764884499941828E-010
  -3.6900000000000002E-002     4.2446966782736779E-010
  -3.6850000000000001E-002     6.8632493988367426E-010
  -3.6799999999999999E-002     9.5675868140615702E-010
  -3.6749999999999998E-002     1.1639819052641441E-009
  -3.6700000000000003E-002     1.3116067536452741E-009
  -3.6650000000000002E-002     1.4755366423781140E-009
  -3.6600000000000001E-002     1.7295246687057535E-009
  -3.6549999999999999E-002     2.0730398757820522E-009
  -3.6499999999999998E-002     2.4337739699214295E-009
  -3.6450000000000003E-002     2.7432565121757281E-009
  -3.6400000000000002E-002     3.0100759695767665E-009
  -3.6350000000000000E-002     3.3153948913513606E-009
  -3.6299999999999999E-002     3.7316046005575119E-009
  -3.6249999999999998E-002     4.2427348630624055E-009
  -3.6200000000000003E-002     4.7467579712559668E-009
  -3.6150000000000002E-002     5.1412669918128387E-009
  -3.6100000000000000E-002     5.4112571273100649E-009
  -3.6049999999999999E-002     5.6331072880406005E-009
  -3.6000000000000004E-002     5.8890875274668172E-009
  -3.5950000000000003E-002     6.1746511755506293E-009
  -3.5900000000000001E-002     6.3897789128400007E-009
  -3.5850000000000000E-002     6.4251061173663513E-009
  -3.5799999999999998E-002     6.2609190908608003E-009
  -3.5750000000000004E-002     5.9831204994832802E-009
  -3.5700000000000003E-002     5.6998517424108458E-009
  -3.5650000000000001E-002     5.4390656160730352E-009
  -3.5600000000000000E-002     5.1265626542938893E-009
  -3.5549999999999998E-002     4.6662892822665023E-009
  -3.5500000000000004E-002     4.0450197093650565E-009
  -3.5450000000000002E-002     3.3591544588896828E-009
  -3.5400000000000001E-002     2.7365061994879964E-009
  -3.5349999999999999E-002     2.2278370616156336E-009
  -3.5299999999999998E-002     1.7722668900988879E-009
  -3.5250000000000004E-002     1.2687016802750574E-009
  -3.5200000000000002E-002     6.8225549477694865E-010
  -3.5150000000000001E-002     8.0994869967183809E-011
  -3.5099999999999999E-002    -4.3282386251419933E-010
  -3.5049999999999998E-002    -8.2882495317494952E-010
  -3.5000000000000003E-002    -1.1864079877578593E-009
  -3.4950000000000002E-002    -1.6252499416186867E-009
  -3.4900000000000000E-002    -2.1946109372314010E-009
  -3.4849999999999999E-002    -2.8291055594664375E-009
  -3.4799999999999998E-002    -3.4150199562817726E-009
  -3.4750000000000003E-002    -3.9039660535093697E-009
  -3.4700000000000002E-002    -4.3638999544703832E-009
  -3.4650000000000000E-002    -4.9170956608917752E-009
  -3.4599999999999999E-002    -5.6233591979665804E-009
  -3.4549999999999997E-002    -6.4196715446826590E-009
  -3.4500000000000003E-002    -7.1736875336148697E-009
  -3.4450000000000001E-002    -7.7999886527243864E-009
  -3.4400000000000000E-002    -8.3291251127112281E-009
  -3.4349999999999999E-002    -8.8660718601831512E-009
  -3.4299999999999997E-002    -9.4810134836440684E-009
  -3.4250000000000003E-002    -1.0138790093034183E-008
  -3.4200000000000001E-002    -1.0733998199282958E-008
  -3.4150000000000000E-002    -1.1196161361545149E-008
  -3.4099999999999998E-002    -1.1562728863097541E-008
  -3.4049999999999997E-002    -1.1950294847976872E-008
  -3.4000000000000002E-002    -1.2452973114766645E-008
  -3.3950000000000001E-002    -1.3065738037029169E-008
  -3.3900000000000000E-002    -1.3704437621739328E-008
  -3.3849999999999998E-002    -1.4300221553853030E-008
  -3.3799999999999997E-002    -1.4875572012202882E-008
  -3.3750000000000002E-002    -1.5528922442845687E-008
  -3.3700000000000001E-002    -1.6343892260743611E-008
  -3.3649999999999999E-002    -1.7310690748161547E-008
  -3.3599999999999998E-002    -1.8333552066009764E-008
  -3.3550000000000003E-002    -1.9314682681877499E-008
  -3.3500000000000002E-002    -2.0233513438839754E-008
  -3.3450000000000001E-002    -2.1147866994563616E-008
  -3.3399999999999999E-002    -2.2120761301180028E-008
  -3.3349999999999998E-002    -2.3147152717644738E-008
  -3.3300000000000003E-002    -2.4151835144345016E-008
  -3.3250000000000002E-002    -2.5058755967859760E-008
  -3.3200000000000000E-002    -2.5863260606410469E-008
  -3.3149999999999999E-002    -2.6637957741907231E-008
  -3.3099999999999997E-002    -2.7468379354905815E-008
  -3.3050000000000003E-002    -2.8381583081132804E-008
  -3.3000000000000002E-002    -2.9335164561409749E-008
  -3.2950000000000000E-002    -3.0274221248419832E-008
  -3.2899999999999999E-002    -3.1198866552615098E-008
  -3.2850000000000004E-002    -3.2177137183607988E-008
  -3.2800000000000003E-002    -3.3292299606790664E-008
  -3.2750000000000001E-002    -3.4576041044363961E-008
  -3.2700000000000000E-002    -3.5989858789849675E-008
  -3.2649999999999998E-002    -3.7468633513500518E-008
  -3.2600000000000004E-002    -3.8981420200921997E-008
  -3.2550000000000003E-002    -4.0551561591229196E-008
  -3.2500000000000001E-002    -4.2220690956069651E-008
  -3.2450000000000000E-002    -4.3995811329182588E-008
  -3.2399999999999998E-002    -4.5832406383053591E-008
  -3.2350000000000004E-002    -4.7668612230681241E-008
  -3.2300000000000002E-002    -4.9475369579885399E-008
  -3.2250000000000001E-002    -5.1274042415306574E-008
  -3.2199999999999999E-002    -5.3107186781771666E-008
  -3.2149999999999998E-002    -5.4994448362886259E-008
  -3.2100000000000004E-002    -5.6917806785159683E-008
  -3.2050000000000002E-002    -5.8848796325169041E-008
  -3.2000000000000001E-002    -6.0787491886229934E-008
  -3.1949999999999999E-002    -6.2772513947972960E-008
  -3.1899999999999998E-002    -6.4851938928102819E-008
  -3.1850000000000003E-002    -6.7045178202767974E-008
  -3.1800000000000002E-002    -6.9334679703840604E-008
  -3.1750000000000000E-002    -7.1695507904698785E-008
  -3.1699999999999999E-002    -7.4131371037883442E-008
  -3.1649999999999998E-002    -7.6678609123930601E-008
  -3.1600000000000003E-002    -7.9371563657821054E-008
  -3.1550000000000002E-002    -8.2202791333372932E-008
  -3.1500000000000000E-002    -8.5118965341455367E-008
  -3.1449999999999999E-002    -8.8059450932763613E-008
  -3.1399999999999997E-002    -9.1002561233614182E-008
  -3.1350000000000003E-002    -9.3975808843491965E-008
  -3.1300000000000001E-002    -9.7020198357959255E-008
  -3.1250000000000000E-002    -1.0014382329058126E-007
  -3.1199999999999999E-002    -1.0331138862975997E-007
  -3.1150000000000001E-002    -1.0648148952354597E-007
  -3.1100000000000003E-002    -1.0965653901938285E-007
  -3.1050000000000001E-002    -1.1289560362973667E-007
  -3.1000000000000000E-002    -1.1627474245270943E-007
  -3.0949999999999998E-002    -1.1983062773167575E-007
  -3.0900000000000000E-002    -1.2354127072437120E-007
  -3.0850000000000002E-002    -1.2736372447360948E-007
  -3.0800000000000001E-002    -1.3129331478001359E-007
  -3.0750000000000000E-002    -1.3538566968942599E-007
  -3.0699999999999998E-002    -1.3971637758561250E-007
  -3.0650000000000000E-002    -1.4431310044210019E-007
  -3.0600000000000002E-002    -1.4912494376123241E-007
  -3.0550000000000001E-002    -1.5406222812458788E-007
  -3.0499999999999999E-002    -1.5907358003663039E-007
  -3.0449999999999998E-002    -1.6418897906397967E-007
  -3.0400000000000000E-002    -1.6948595572193733E-007
  -3.0350000000000002E-002    -1.7500728042479736E-007
  -3.0300000000000001E-002    -1.8070786526470491E-007
  -3.0249999999999999E-002    -1.8648516606056509E-007
  -3.0200000000000001E-002    -1.9227042971409979E-007
  -3.0150000000000000E-002    -1.9809791256211447E-007
  -3.0100000000000002E-002    -2.0408421355228025E-007
  -3.0050000000000000E-002    -2.1033100618924776E-007
  -2.9999999999999999E-002    -2.1683840716580354E-007
  -2.9950000000000001E-002    -2.2351123034792168E-007
  -2.9899999999999999E-002    -2.3025725760532289E-007
  -2.9850000000000002E-002    -2.3708887111507741E-007
  -2.9800000000000000E-002    -2.4413123106108465E-007
  -2.9749999999999999E-002    -2.5152317870617132E-007
  -2.9700000000000001E-002    -2.5929758831476113E-007
  -2.9650000000000003E-002    -2.6735301911713631E-007
  -2.9600000000000001E-002    -2.7554783790683860E-007
  -2.9550000000000000E-002    -2.8383394685214822E-007
  -2.9499999999999998E-002    -2.9230659126728619E-007
  -2.9450000000000000E-002    -3.0111942780212937E-007
  -2.9400000000000003E-002    -3.1033956789567453E-007
  -2.9350000000000001E-002    -3.1987707868106686E-007
  -2.9300000000000000E-002    -3.2955975312988403E-007
  -2.9249999999999998E-002    -3.3929000798089215E-007
  -2.9200000000000000E-002    -3.4913970314662765E-007
  -2.9150000000000002E-002    -3.5929120639217018E-007
  -2.9100000000000001E-002    -3.6987472237779135E-007
  -2.9049999999999999E-002    -3.8085150408350790E-007
  -2.8999999999999998E-002    -3.9205540923638906E-007
  -2.8950000000000000E-002    -4.0335999186876458E-007
  -2.8900000000000002E-002    -4.1481733508763014E-007
  -2.8850000000000001E-002    -4.2663517976658853E-007
  -2.8799999999999999E-002    -4.3900599117903627E-007
  -2.8749999999999998E-002    -4.5194207905086330E-007
  -2.8700000000000000E-002    -4.6527185205701864E-007
  -2.8650000000000002E-002    -4.7880620057581344E-007
  -2.8600000000000000E-002    -4.9252411142150853E-007
  -2.8549999999999999E-002    -5.0660414876765618E-007
  -2.8500000000000001E-002    -5.2126717362524142E-007
  -2.8450000000000000E-002    -5.3657235506926015E-007
  -2.8400000000000002E-002    -5.5235750481972313E-007
  -2.8350000000000000E-002    -5.6838551166775037E-007
  -2.8299999999999999E-002    -5.8456496973421606E-007
  -2.8250000000000001E-002    -6.0104262920615013E-007
  -2.8200000000000003E-002    -6.1807612090597780E-007
  -2.8150000000000001E-002    -6.3580243074060732E-007
  -2.8100000000000000E-002    -6.5411498250723651E-007
  -2.8049999999999999E-002    -6.7276773495276076E-007
  -2.8000000000000001E-002    -6.9161484194311117E-007
  -2.7950000000000003E-002    -7.1076401882399096E-007
  -2.7900000000000001E-002    -7.3049919087049921E-007
  -2.7850000000000000E-002    -7.5103928789016174E-007
  -2.7799999999999998E-002    -7.7235409764839360E-007
  -2.7750000000000000E-002    -7.9420810495601276E-007
  -2.7700000000000002E-002    -8.1639478669154741E-007
  -2.7650000000000001E-002    -8.3894358863430852E-007
  -2.7600000000000000E-002    -8.6210903303405562E-007
  -2.7549999999999998E-002    -8.8614780201743898E-007
  -2.7500000000000000E-002    -9.1109131760485755E-007
  -2.7450000000000002E-002    -9.3672396687534542E-007
  -2.7400000000000001E-002    -9.6278936077959373E-007
  -2.7349999999999999E-002    -9.8923471498304815E-007
  -2.7299999999999998E-002    -1.0162673019760007E-006
  -2.7250000000000000E-002    -1.0441691163431681E-006
  -2.7200000000000002E-002    -1.0730415823151854E-006
  -2.7150000000000001E-002    -1.1027180977153455E-006
  -2.7099999999999999E-002    -1.1329248174371083E-006
  -2.7049999999999998E-002    -1.1635455204611604E-006
  -2.7000000000000000E-002    -1.1947435863900636E-006
  -2.6950000000000002E-002    -1.2268297222422640E-006
  -2.6900000000000000E-002    -1.2599972308616575E-006
  -2.6849999999999999E-002    -1.2941690744749173E-006
  -2.6800000000000001E-002    -1.3290952843604491E-006
  -2.6749999999999999E-002    -1.3646117913260434E-006
  -2.6700000000000002E-002    -1.4008177317282614E-006
  -2.6650000000000000E-002    -1.4380102998019244E-006
  -2.6599999999999999E-002    -1.4764351974572966E-006
  -2.6550000000000001E-002    -1.5160839322182261E-006
  -2.6500000000000003E-002    -1.5567229311034711E-006
  -2.6450000000000001E-002    -1.5981264153569039E-006
  -2.6400000000000000E-002    -1.6402992831301121E-006
  -2.6349999999999998E-002    -1.6834847129135476E-006
  -2.6300000000000000E-002    -1.7279549786851863E-006
  -2.6250000000000002E-002    -1.7737751320565380E-006
  -2.6200000000000001E-002    -1.8207608170064451E-006
  -2.6150000000000000E-002    -1.8686637669593326E-006
  -2.6099999999999998E-002    -1.9174150780702566E-006
  -2.6050000000000000E-002    -1.9672040477382417E-006
  -2.6000000000000002E-002    -2.0183247532865344E-006
  -2.5950000000000001E-002    -2.0709321083719414E-006
  -2.5899999999999999E-002    -2.1249331473966192E-006
  -2.5849999999999998E-002    -2.1801061809493618E-006
  -2.5800000000000000E-002    -2.2363377963202276E-006
  -2.5750000000000002E-002    -2.2937558373980701E-006
  -2.5700000000000001E-002    -2.3526408052118343E-006
  -2.5649999999999999E-002    -2.4131970725743531E-006
  -2.5599999999999998E-002    -2.4753972910943062E-006
  -2.5550000000000000E-002    -2.5390388902619432E-006
  -2.5500000000000002E-002    -2.6039574795084599E-006
  -2.5450000000000000E-002    -2.6702007960391437E-006
  -2.5399999999999999E-002    -2.7380058023890591E-006
  -2.5349999999999998E-002    -2.8076033967750725E-006
  -2.5300000000000000E-002    -2.8790291688158120E-006
  -2.5250000000000002E-002    -2.9521161508760231E-006
  -2.5200000000000000E-002    -3.0266729506659598E-006
  -2.5149999999999999E-002    -3.1026838608160267E-006
  -2.5100000000000001E-002    -3.1803502279502211E-006
  -2.5049999999999999E-002    -3.2599319453115532E-006
  -2.5000000000000001E-002    -3.3415439177733488E-006
  -2.4950000000000000E-002    -3.4250878745041772E-006
  -2.4899999999999999E-002    -3.5103780340536985E-006
  -2.4850000000000001E-002    -3.5973485968432195E-006
  -2.4800000000000003E-002    -3.6861485750685824E-006
  -2.4750000000000001E-002    -3.7770447268212029E-006
  -2.4700000000000000E-002    -3.8702176449684253E-006
  -2.4649999999999998E-002    -3.9656418375104727E-006
  -2.4600000000000000E-002    -4.0631565229273071E-006
  -2.4550000000000002E-002    -4.1626599774765102E-006
  -2.4500000000000001E-002    -4.2642472311424520E-006
  -2.4450000000000000E-002    -4.3681664829959796E-006
  -2.4399999999999998E-002    -4.4746285524115163E-006
  -2.4350000000000000E-002    -4.5836554334720136E-006
  -2.4299999999999999E-002    -4.6950941137036805E-006
  -2.4250000000000001E-002    -4.8087971818234544E-006
  -2.4199999999999999E-002    -4.9247886846686155E-006
  -2.4150000000000001E-002    -5.0432761772803119E-006
  -2.4100000000000000E-002    -5.1644935194574140E-006
  -2.4049999999999998E-002    -5.2885191343585258E-006
  -2.4000000000000000E-002    -5.4152445120642415E-006
  -2.3949999999999999E-002    -5.5445178872521526E-006
  -2.3900000000000001E-002    -5.6763321745682806E-006
  -2.3850000000000000E-002    -5.8108842677223619E-006
  -2.3800000000000002E-002    -5.9484459074000421E-006
  -2.3750000000000000E-002    -6.0891662766119391E-006
  -2.3699999999999999E-002    -6.2329923454118816E-006
  -2.3650000000000001E-002    -6.3797802972216485E-006
  -2.3599999999999999E-002    -6.5294887218186446E-006
  -2.3550000000000001E-002    -6.6822854287185275E-006
  -2.3500000000000000E-002    -6.8384478019529397E-006
  -2.3449999999999999E-002    -6.9981602430360066E-006
  -2.3400000000000001E-002    -7.1613925163519372E-006
  -2.3349999999999999E-002    -7.3279768789832191E-006
  -2.3300000000000001E-002    -7.4978151666326588E-006
  -2.3250000000000000E-002    -7.6710234121814359E-006
  -2.3199999999999998E-002    -7.8478793009099054E-006
  -2.3150000000000000E-002    -8.0286113615286033E-006
  -2.3099999999999999E-002    -8.2132364323633767E-006
  -2.3050000000000001E-002    -8.4015956612228912E-006
  -2.3000000000000000E-002    -8.5935611053966232E-006
  -2.2950000000000002E-002    -8.7892154367173668E-006
  -2.2900000000000000E-002    -8.9888420571008010E-006
  -2.2849999999999999E-002    -9.1927284711155401E-006
  -2.2800000000000001E-002    -9.4009604383676929E-006
  -2.2749999999999999E-002    -9.6134150077392515E-006
  -2.2700000000000001E-002    -9.8299444968303474E-006
  -2.2650000000000000E-002    -1.0050594951966223E-005
  -2.2599999999999999E-002    -1.0275644968544906E-005
  -2.2550000000000001E-002    -1.0505418977020602E-005
  -2.2499999999999999E-002    -1.0740048970835978E-005
  -2.2450000000000001E-002    -1.0979415561278386E-005
  -2.2400000000000000E-002    -1.1223327226116333E-005
  -2.2349999999999998E-002    -1.1471770795631521E-005
  -2.2300000000000000E-002    -1.1725002770494128E-005
  -2.2249999999999999E-002    -1.1983381187937450E-005
  -2.2200000000000001E-002    -1.2247098002414552E-005
  -2.2150000000000000E-002    -1.2516068099970948E-005
  -2.2100000000000002E-002    -1.2790077061433604E-005
  -2.2050000000000000E-002    -1.3069059607356526E-005
  -2.1999999999999999E-002    -1.3353239792544452E-005
  -2.1950000000000001E-002    -1.3643002052789638E-005
  -2.1899999999999999E-002    -1.3938609545573590E-005
  -2.1850000000000001E-002    -1.4240027307009467E-005
  -2.1800000000000000E-002    -1.4547039805500735E-005
  -2.1749999999999999E-002    -1.4859534214309207E-005
  -2.1700000000000001E-002    -1.5177710833078618E-005
  -2.1649999999999999E-002    -1.5501990871369658E-005
  -2.1600000000000001E-002    -1.5832726096551876E-005
  -2.1550000000000000E-002    -1.6169960887932302E-005
  -2.1499999999999998E-002    -1.6513479162644793E-005
  -2.1450000000000000E-002    -1.6863100797528250E-005
  -2.1399999999999999E-002    -1.7218948929582783E-005
  -2.1350000000000001E-002    -1.7581429901320763E-005
  -2.1299999999999999E-002    -1.7950953084505756E-005
  -2.1250000000000002E-002    -1.8327630510483199E-005
  -2.1200000000000000E-002    -1.8711253040123737E-005
  -2.1149999999999999E-002    -1.9101575072399818E-005
  -2.1100000000000001E-002    -1.9498626866015458E-005
  -2.1049999999999999E-002    -1.9902790820785329E-005
  -2.1000000000000001E-002    -2.0314522091355465E-005
  -2.0950000000000000E-002    -2.0734013805039138E-005
  -2.0899999999999998E-002    -2.1161111368095735E-005
  -2.0850000000000000E-002    -2.1595550718241930E-005
  -2.0799999999999999E-002    -2.2037308025431258E-005
  -2.0750000000000001E-002    -2.2486737633201703E-005
  -2.0700000000000000E-002    -2.2944355205302952E-005
  -2.0649999999999998E-002    -2.3410461576591925E-005
  -2.0600000000000000E-002    -2.3884971426856785E-005
  -2.0549999999999999E-002    -2.4367601986420333E-005
  -2.0500000000000001E-002    -2.4858246418544124E-005
  -2.0449999999999999E-002    -2.5357189115234677E-005
  -2.0400000000000001E-002    -2.5864954320596988E-005
  -2.0350000000000000E-002    -2.6381929339265052E-005
  -2.0299999999999999E-002    -2.6908103552587905E-005
  -2.0250000000000001E-002    -2.7443186332772171E-005
  -2.0199999999999999E-002    -2.7986979291086407E-005
  -2.0150000000000001E-002    -2.8539663120119978E-005
  -2.0100000000000000E-002    -2.9101747739593474E-005
  -2.0049999999999998E-002    -2.9673697063013205E-005
  -2.0000000000000000E-002    -3.0255608320611875E-005
  -1.9949999999999999E-002    -3.0847232705213881E-005
  -1.9900000000000001E-002    -3.1448318244670730E-005
  -1.9850000000000000E-002    -3.2058966007707959E-005
  -1.9799999999999998E-002    -3.2679650023408502E-005
  -1.9750000000000000E-002    -3.3310909813575164E-005
  -1.9699999999999999E-002    -3.3952969104311579E-005
  -1.9650000000000001E-002    -3.4605648793173060E-005
  -1.9599999999999999E-002    -3.5268660663244701E-005
  -1.9550000000000001E-002    -3.5941990617882402E-005
  -1.9500000000000000E-002    -3.6626051125928664E-005
  -1.9449999999999999E-002    -3.7321415602414981E-005
  -1.9400000000000001E-002    -3.8028418700725189E-005
  -1.9349999999999999E-002    -3.8746974636491181E-005
  -1.9300000000000001E-002    -3.9476775282182473E-005
  -1.9250000000000000E-002    -4.0217711230297650E-005
  -1.9199999999999998E-002    -4.0970082727543250E-005
  -1.9150000000000000E-002    -4.1734452075384191E-005
  -1.9099999999999999E-002    -4.2511228605160247E-005
  -1.9050000000000001E-002    -4.3300396556855620E-005
  -1.9000000000000000E-002    -4.4101683092854583E-005
  -1.8949999999999998E-002    -4.4914895193904651E-005
  -1.8900000000000000E-002    -4.5740241269982094E-005
  -1.8849999999999999E-002    -4.6578260942065482E-005
  -1.8800000000000001E-002    -4.7429452526870213E-005
  -1.8749999999999999E-002    -4.8293938404249238E-005
  -1.8700000000000001E-002    -4.9171486820197145E-005
  -1.8650000000000000E-002    -5.0061868674416538E-005
  -1.8599999999999998E-002    -5.0965198262600453E-005
  -1.8550000000000001E-002    -5.1881966811270379E-005
  -1.8499999999999999E-002    -5.2812712336732605E-005
  -1.8450000000000001E-002    -5.3757677757203950E-005
  -1.8400000000000000E-002    -5.4716695167470364E-005
  -1.8349999999999998E-002    -5.5689501236162861E-005
  -1.8300000000000000E-002    -5.6676094444508079E-005
  -1.8249999999999999E-002    -5.7676876580689784E-005
  -1.8200000000000001E-002    -5.8692377346785315E-005
  -1.8149999999999999E-002    -5.9722908572965732E-005
  -1.8100000000000002E-002    -6.0768397776611615E-005
  -1.8050000000000000E-002    -6.1828561023099997E-005
  -1.7999999999999999E-002    -6.2903309506390546E-005
  -1.7950000000000001E-002    -6.3992938603879630E-005
  -1.7899999999999999E-002    -6.5097991048629301E-005
  -1.7850000000000001E-002    -6.6218863606341436E-005
  -1.7800000000000000E-002    -6.7355565066075604E-005
  -1.7749999999999998E-002    -6.8507850587959889E-005
  -1.7700000000000000E-002    -6.9675587449672009E-005
  -1.7649999999999999E-002    -7.0858986019235097E-005
  -1.7600000000000001E-002    -7.2058569479015275E-005
  -1.7550000000000000E-002    -7.3274788181283359E-005
  -1.7499999999999998E-002    -7.4507739685946930E-005
  -1.7450000000000000E-002    -7.5757230046035240E-005
  -1.7399999999999999E-002    -7.7023058536049229E-005
  -1.7350000000000001E-002    -7.8305378640322970E-005
  -1.7299999999999999E-002    -7.9604607131007543E-005
  -1.7250000000000001E-002    -8.0921219263985013E-005
  -1.7200000000000000E-002    -8.2255406487825487E-005
  -1.7149999999999999E-002    -8.3607002573545368E-005
  -1.7100000000000001E-002    -8.4975776819243715E-005
  -1.7049999999999999E-002    -8.6361774998725197E-005
  -1.7000000000000001E-002    -8.7765385449512759E-005
  -1.6950000000000000E-002    -8.9187092214320190E-005
  -1.6899999999999998E-002    -9.0627143093567429E-005
  -1.6850000000000000E-002    -9.2085417065715334E-005
  -1.6799999999999999E-002    -9.3561653290862685E-005
  -1.6750000000000001E-002    -9.5055825772376480E-005
  -1.6700000000000000E-002    -9.6568253175193457E-005
  -1.6649999999999998E-002    -9.8099409259697784E-005
  -1.6600000000000000E-002    -9.9649623532267981E-005
  -1.6549999999999999E-002    -1.0121888566916220E-004
  -1.6500000000000001E-002    -1.0280697092422180E-004
  -1.6449999999999999E-002    -1.0441373452773180E-004
  -1.6400000000000001E-002    -1.0603939386895939E-004
  -1.6350000000000000E-002    -1.0768438734975059E-004
  -1.6299999999999999E-002    -1.0934911169920437E-004
  -1.6250000000000001E-002    -1.1103361593361137E-004
  -1.6199999999999999E-002    -1.1273765721483804E-004
  -1.6150000000000001E-002    -1.1446103015184456E-004
  -1.6100000000000000E-002    -1.1620383393756039E-004
  -1.6049999999999998E-002    -1.1796643574909742E-004
  -1.6000000000000000E-002    -1.1974924967090227E-004
  -1.5949999999999999E-002    -1.2155241520454905E-004
  -1.5900000000000001E-002    -1.2337573149079971E-004
  -1.5850000000000000E-002    -1.2521894491023536E-004
  -1.5799999999999998E-002    -1.2708201258852342E-004
  -1.5750000000000000E-002    -1.2896527144854068E-004
  -1.5699999999999999E-002    -1.3086916110212907E-004
  -1.5650000000000001E-002    -1.3279390458840090E-004
  -1.5599999999999999E-002    -1.3473938444829054E-004
  -1.5550000000000001E-002    -1.3670529921042579E-004
  -1.5500000000000000E-002    -1.3869152585263065E-004
  -1.5449999999999998E-002    -1.4069830721767098E-004
  -1.5400000000000000E-002    -1.4272610587152598E-004
  -1.5349999999999999E-002    -1.4477520257840144E-004
  -1.5300000000000001E-002    -1.4684551597474600E-004
  -1.5250000000000000E-002    -1.4893668978381889E-004
  -1.5199999999999998E-002    -1.5104850220066534E-004
  -1.5150000000000000E-002    -1.5318109197743983E-004
  -1.5099999999999999E-002    -1.5533487631686808E-004
  -1.5050000000000001E-002    -1.5751020670160860E-004
  -1.4999999999999999E-002    -1.5970704031325998E-004
  -1.4949999999999998E-002    -1.6192504918666008E-004
  -1.4900000000000000E-002    -1.6416389852913569E-004
  -1.4849999999999999E-002    -1.6642359815401730E-004
  -1.4800000000000001E-002    -1.6870450799859148E-004
  -1.4749999999999999E-002    -1.7100704648783538E-004
  -1.4700000000000001E-002    -1.7333126204955381E-004
  -1.4650000000000000E-002    -1.7567683104947451E-004
  -1.4599999999999998E-002    -1.7804334911520326E-004
  -1.4550000000000000E-002    -1.8043066983736714E-004
  -1.4499999999999999E-002    -1.8283911206921983E-004
  -1.4450000000000001E-002    -1.8526908666318656E-004
  -1.4400000000000000E-002    -1.8772073096646081E-004
  -1.4349999999999998E-002    -1.9019377916908679E-004
  -1.4300000000000000E-002    -1.9268775349525483E-004
  -1.4249999999999999E-002    -1.9520242361367409E-004
  -1.4200000000000001E-002    -1.9773798942601759E-004
  -1.4149999999999999E-002    -2.0029479349275241E-004
  -1.4099999999999998E-002    -2.0287304791356109E-004
  -1.4050000000000000E-002    -2.0547250965858969E-004
  -1.3999999999999999E-002    -2.0809267984100500E-004
  -1.3950000000000001E-002    -2.1073321769053807E-004
  -1.3899999999999999E-002    -2.1339413467688417E-004
  -1.3850000000000001E-002    -2.1607576125886848E-004
  -1.3800000000000000E-002    -2.1877835008597170E-004
  -1.3749999999999998E-002    -2.2150173494676862E-004
  -1.3700000000000000E-002    -2.2424543082665314E-004
  -1.3649999999999999E-002    -2.2700896421828031E-004
  -1.3600000000000001E-002    -2.2979227011721748E-004
  -1.3550000000000000E-002    -2.3259555537776081E-004
  -1.3499999999999998E-002    -2.3541915350184850E-004
  -1.3450000000000000E-002    -2.3826298081321639E-004
  -1.3399999999999999E-002    -2.4112661441362364E-004
  -1.3350000000000001E-002    -2.4400947836124141E-004
  -1.3299999999999999E-002    -2.4691133736135987E-004
  -1.3249999999999998E-002    -2.4983227539242248E-004
  -1.3200000000000000E-002    -2.5277256101813555E-004
  -1.3149999999999998E-002    -2.5573218823443585E-004
  -1.3100000000000001E-002    -2.5871078917038062E-004
  -1.3049999999999999E-002    -2.6170777171144943E-004
  -1.3000000000000001E-002    -2.6472267399150996E-004
  -1.2950000000000000E-002    -2.6775555102037408E-004
  -1.2899999999999998E-002    -2.7080652661260970E-004
  -1.2850000000000000E-002    -2.7387569832362367E-004
  -1.2799999999999999E-002    -2.7696266538039326E-004