  -4.0000000000000001E-002     0.0000000000000000     
  -3.9949999999999999E-002     0.0000000000000000     
  -3.9899999999999998E-002     0.0000000000000000     
  -3.9850000000000003E-002     0.0000000000000000     
  -3.9800000000000002E-002     1.3650010606659332E-016
  -3.9750000000000001E-002     1.1359829401608296E-015
  -3.9699999999999999E-002     4.5035029770295783E-015
  -3.9649999999999998E-002     1.0833284570922271E-014
  -3.9600000000000003E-002     1.5985726169590951E-014
  -3.9550000000000002E-002     9.3040892865675883E-015
  -3.9500000000000000E-002    -2.0044485976915521E-014
  -3.9449999999999999E-002    -7.0067382954625550E-014
  -3.9399999999999998E-002    -1.2069172393347061E-013
  -3.9350000000000003E-002    -1.5135807791204305E-013
  -3.9300000000000002E-002    -1.7289850564128385E-013
  -3.9250000000000000E-002    -2.3457786910824173E-013
  -3.9199999999999999E-002    -3.7084296076082081E-013
  -3.9150000000000004E-002    -5.0993382886791140E-013
  -3.9100000000000003E-002    -4.3549398435221363E-013
  -3.9050000000000001E-002     1.0999332123453253E-013
  -3.9000000000000000E-002     1.2014631866545724E-012
  -3.8949999999999999E-002     2.5508990796561046E-012
  -3.8900000000000004E-002     3.5621380191790772E-012
  -3.8850000000000003E-002     3.6534253697801154E-012
  -3.8800000000000001E-002     2.6394529397073829E-012
  -3.8750000000000000E-002     8.6424938244554430E-013
  -3.8699999999999998E-002    -1.0523700858356431E-012
  -3.8650000000000004E-002    -2.6664785301536892E-012
  -3.8600000000000002E-002    -3.9831548965174784E-012
  -3.8550000000000001E-002    -5.3183878807670595E-012
  -3.8500000000000000E-002    -6.8816371088417090E-012
  -3.8449999999999998E-002    -8.4582747510521624E-012
  -3.8400000000000004E-002    -9.4617351954313737E-012
  -3.8350000000000002E-002    -9.2681206586650738E-012
  -3.8300000000000001E-002    -7.5032382750070464E-012
  -3.8249999999999999E-002    -4.0683877013776007E-012
  -3.8199999999999998E-002     9.7293018327901818E-013
  -3.8150000000000003E-002     7.3592824051373250E-012
  -3.8100000000000002E-002     1.4377705686642306E-011
  -3.8050000000000000E-002     2.0702721204781638E-011
  -3.7999999999999999E-002     2.4720002413304510E-011
  -3.7949999999999998E-002     2.5322667032249679E-011
  -3.7900000000000003E-002     2.2625830689325025E-011
  -3.7850000000000002E-002     1.7944322487394616E-011
  -3.7800000000000000E-002     1.2922527246405316E-011
  -3.7749999999999999E-002     8.4406460661148049E-012
  -3.7699999999999997E-002     4.1379021991959534E-012
  -3.7650000000000003E-002    -1.1559709480679756E-012
  -3.7600000000000001E-002    -8.5851880116138522E-012
  -3.7550000000000000E-002    -1.8780292205964808E-011
  -3.7499999999999999E-002    -3.1924642274311130E-011
  -3.7449999999999997E-002    -4.7844173619576184E-011
  -3.7400000000000003E-002    -6.5515066015693870E-011
  -3.7350000000000001E-002    -8.2151655850611331E-011
  -3.7300000000000000E-002    -9.2874503346109720E-011
  -3.7249999999999998E-002    -9.1881898235122852E-011
  -3.7200000000000004E-002    -7.4913709806736254E-011
  -3.7150000000000002E-002    -4.1571656806712601E-011
  -3.7100000000000001E-002     4.0644917097513042E-012
  -3.7050000000000000E-002     5.4893168932648956E-011
  -3.6999999999999998E-002     1.0322061640312765E-010
  -3.6950000000000004E-002     1.4263293642653332E-010
  -3.6900000000000002E-002     1.6866605590721636E-010
  -3.6850000000000001E-002     1.7881941316772545E-010
  -3.6799999999999999E-002     1.7271537449180559E-010
  -3.6749999999999998E-002     1.5238737065523067E-010
  -3.6700000000000003E-002     1.2188473381550934E-010
  -3.6650000000000002E-002     8.5728874084966009E-011
  -3.6600000000000001E-002     4.7051113098395407E-011
  -3.6549999999999999E-002     7.0506670986817631E-012
  -3.6499999999999998E-002    -3.3434372315120385E-011
  -3.6450000000000003E-002    -7.1432813094246213E-011
  -3.6400000000000002E-002    -1.0081791986260042E-010
  -3.6350000000000000E-002    -1.1415017245389875E-010
  -3.6299999999999999E-002    -1.0624332539407927E-010
  -3.6249999999999998E-002    -7.6585559130841587E-011
  -3.6200000000000003E-002    -2.8605143186398249E-011
  -3.6150000000000002E-002     3.3451292538254419E-011
  -3.6100000000000000E-002     1.0716725894149912E-010
  -3.6049999999999999E-002     1.9189875163149042E-010
  -3.6000000000000004E-002     2.8650713439709357E-010
  -3.5950000000000003E-002     3.8747924789352554E-010
  -3.5900000000000001E-002     4.8939951448781565E-010
  -3.5850000000000000E-002     5.8707607252916549E-010
  -3.5799999999999998E-002     6.7678817166778617E-010
  -3.5750000000000004E-002     7.5515857048532170E-010
  -3.5700000000000003E-002     8.1705998590071511E-010
  -3.5650000000000001E-002     8.5559106552396477E-010
  -3.5600000000000000E-002     8.6547341082622770E-010
  -3.5549999999999998E-002     8.4763522277643171E-010
  -3.5500000000000004E-002     8.1089616665196306E-010
  -3.5450000000000002E-002     7.6873968635741395E-010
  -3.5400000000000001E-002     7.3344546959238759E-010
  -3.5349999999999999E-002     7.1220691300189175E-010
  -3.5299999999999998E-002     7.0782397902037278E-010
  -3.5250000000000004E-002     7.2203540526227832E-010
  -3.5200000000000002E-002     7.5705966890346792E-010
  -3.5150000000000001E-002     8.1309396866242510E-010
  -3.5099999999999999E-002     8.8425645696661884E-010
  -3.5049999999999998E-002     9.5784040469868511E-010
  -3.5000000000000003E-002     1.0190332292851299E-009
  -3.4950000000000002E-002     1.0578713573516432E-009
  -3.4900000000000000E-002     1.0725694906356421E-009
  -3.4849999999999999E-002     1.0664498839891549E-009
  -3.4799999999999998E-002     1.0417468801283362E-009
  -3.4750000000000003E-002     9.9664469467744807E-010
  -3.4700000000000002E-002     9.2872478106444173E-010
  -3.4650000000000000E-002     8.4151391561614729E-010
  -3.4599999999999999E-002     7.4745601120655525E-010
  -3.4549999999999997E-002     6.6392661963126650E-010
  -3.4500000000000003E-002     6.0577485647598560E-010
  -3.4450000000000001E-002     5.8143008645874686E-010
  -3.4400000000000000E-002     5.9607923724278430E-010
  -3.4349999999999999E-002     6.5812015185159856E-010
  -3.4299999999999997E-002     7.8138447944639215E-010
  -3.4250000000000003E-002     9.7952226460516974E-010
  -3.4200000000000001E-002     1.2569113103340803E-009
  -3.4150000000000000E-002     1.6045816819524754E-009
  -3.4099999999999998E-002     2.0055279963763893E-009
  -3.4049999999999997E-002     2.4450976705254362E-009
  -3.4000000000000002E-002     2.9172955898239448E-009
  -3.3950000000000001E-002     3.4216996604172262E-009
  -3.3900000000000000E-002     3.9546272437621094E-009
  -3.3849999999999998E-002     4.5035131072311389E-009
  -3.3799999999999997E-002     5.0499509764306323E-009
  -3.3750000000000002E-002     5.5780939722203193E-009
  -3.3700000000000001E-002     6.0799049303204393E-009
  -3.3649999999999999E-002     6.5523785337295960E-009
  -3.3599999999999998E-002     6.9906041530663047E-009
  -3.3550000000000003E-002     7.3852973839256938E-009
  -3.3500000000000002E-002     7.7289734245084788E-009
  -3.3450000000000001E-002     8.0254231811717645E-009
  -3.3399999999999999E-002     8.2922889930235970E-009
  -3.3349999999999998E-002     8.5518743647208998E-009
  -3.3300000000000003E-002     8.8163212193295689E-009
  -3.3250000000000002E-002     9.0794051956020080E-009
  -3.3200000000000000E-002     9.3220068098830460E-009
  -3.3149999999999999E-002     9.5263430062458313E-009
  -3.3099999999999997E-002     9.6863507096358096E-009
  -3.3050000000000003E-002     9.8055877041350059E-009
  -3.3000000000000002E-002     9.8858959532436009E-009
  -3.2950000000000000E-002     9.9184972101661816E-009
  -3.2899999999999999E-002     9.8863381508683769E-009
  -3.2850000000000004E-002     9.7753313584449305E-009
  -3.2800000000000003E-002     9.5836718057755599E-009
  -3.2750000000000001E-002     9.3207607657758003E-009
  -3.2700000000000000E-002     8.9978851898735974E-009
  -3.2649999999999998E-002     8.6208913081522984E-009
  -3.2600000000000004E-002     8.1927519018779329E-009
  -3.2550000000000003E-002     7.7233622727257976E-009
  -3.2500000000000001E-002     7.2359364641270287E-009
  -3.2450000000000000E-002     6.7620160108083519E-009
  -3.2399999999999998E-002     6.3280530784579645E-009
  -3.2350000000000004E-002     5.9450600203435300E-009
  -3.2300000000000002E-002     5.6103801561422477E-009
  -3.2250000000000001E-002     5.3194190926963947E-009
  -3.2199999999999999E-002     5.0758584399664537E-009
  -3.2149999999999998E-002     4.8905699120533557E-009
  -3.2100000000000004E-002     4.7704299139537019E-009
  -3.2050000000000002E-002     4.7080085307430477E-009
  -3.2000000000000001E-002     4.6822303587561344E-009
  -3.1949999999999999E-002     4.6695571241968900E-009
  -3.1899999999999998E-002     4.6552441917014158E-009
  -3.1850000000000003E-002     4.6344817642140517E-009
  -3.1800000000000002E-002     4.6033629535205632E-009
  -3.1750000000000000E-002     4.5498129507014890E-009
  -3.1699999999999999E-002     4.4548855310932493E-009
  -3.1649999999999998E-002     4.3048631185118262E-009
  -3.1600000000000003E-002     4.1038223997558778E-009
  -3.1550000000000002E-002     3.8750073541517045E-009
  -3.1500000000000000E-002     3.6488713314944986E-009
  -3.1449999999999999E-002     3.4471871253638427E-009
  -3.1399999999999997E-002     3.2756080914111106E-009
  -3.1350000000000003E-002     3.1290594988169851E-009
  -3.1300000000000001E-002     3.0029836516725441E-009
  -3.1250000000000000E-002     2.8992126833645645E-009
  -3.1199999999999999E-002     2.8215801035096390E-009
  -3.1150000000000001E-002     2.7668268361164702E-009
  -3.1100000000000003E-002     2.7209134997632325E-009
  -3.1050000000000001E-002     2.6654061130901909E-009
  -3.1000000000000000E-002     2.5885693841831363E-009
  -3.0949999999999998E-002     2.4908497422074605E-009
  -3.0900000000000000E-002     2.3793105550198513E-009
  -3.0850000000000002E-002     2.2557971000432718E-009
  -3.0800000000000001E-002     2.1096681999563022E-009
  -3.0750000000000000E-002     1.9221763287100731E-009
  -3.0699999999999998E-002     1.6793488580669474E-009
  -3.0650000000000000E-002     1.3827346341352074E-009
  -3.0600000000000002E-002     1.0493135767155447E-009
  -3.0550000000000001E-002     7.0134426212297593E-010
  -3.0499999999999999E-002     3.5536275684542037E-010
  -3.0449999999999998E-002     1.9425233243265429E-011
  -3.0400000000000000E-002    -3.0062674895647508E-010
  -3.0350000000000002E-002    -5.9379380177511537E-010
  -3.0300000000000001E-002    -8.4433950800527349E-010
  -3.0249999999999999E-002    -1.0412127035578420E-009
  -3.0200000000000001E-002    -1.1884600055422770E-009
  -3.0150000000000000E-002    -1.3066027853085267E-009
  -3.0100000000000002E-002    -1.4224628276524855E-009
  -3.0050000000000000E-002    -1.5553473332673112E-009
  -2.9999999999999999E-002    -1.7112237589224951E-009
  -2.9950000000000001E-002    -1.8896316999824728E-009
  -2.9899999999999999E-002    -2.0964415640266161E-009
  -2.9850000000000002E-002    -2.3497930368754980E-009
  -2.9800000000000000E-002    -2.6723757822311014E-009
  -2.9749999999999999E-002    -3.0758855205262177E-009
  -2.9700000000000001E-002    -3.5514415974555378E-009
  -2.9650000000000003E-002    -4.0753042267587066E-009
  -2.9600000000000001E-002    -4.6257182258823530E-009
  -2.9550000000000000E-002    -5.1963354357115113E-009
  -2.9499999999999998E-002    -5.7943086789584042E-009
  -2.9450000000000000E-002    -6.4249759747747453E-009
  -2.9400000000000003E-002    -7.0776664746066836E-009
  -2.9350000000000001E-002    -7.7266010088561981E-009
  -2.9300000000000000E-002    -8.3471037624882181E-009
  -2.9249999999999998E-002    -8.9328823868008082E-009
  -2.9200000000000000E-002    -9.4986014824493796E-009
  -2.9150000000000002E-002    -1.0065395278655567E-008
  -2.9100000000000001E-002    -1.0642973434404327E-008
  -2.9049999999999999E-002    -1.1225351934877201E-008
  -2.8999999999999998E-002    -1.1804296491685632E-008
  -2.8950000000000000E-002    -1.2387203534348361E-008
  -2.8900000000000002E-002    -1.3001161137598775E-008
  -2.8850000000000001E-002    -1.3677659273194826E-008
  -2.8799999999999999E-002    -1.4431163561769371E-008
  -2.8749999999999998E-002    -1.5251545152832862E-008
  -2.8700000000000000E-002    -1.6117720688859298E-008
  -2.8650000000000002E-002    -1.7019660374976086E-008
  -2.8600000000000000E-002    -1.7967403220643954E-008
  -2.8549999999999999E-002    -1.8977838627162935E-008
  -2.8500000000000001E-002    -2.0051877780170863E-008
  -2.8450000000000000E-002    -2.1164927860853340E-008
  -2.8400000000000002E-002    -2.2281770002498291E-008
  -2.8350000000000000E-002    -2.3383358439432345E-008
  -2.8299999999999999E-002    -2.4480621228340502E-008
  -2.8250000000000001E-002    -2.5601601357781938E-008
  -2.8200000000000003E-002    -2.6763652241187730E-008
  -2.8150000000000001E-002    -2.7957417339903953E-008
  -2.8100000000000000E-002    -2.9159077578140262E-008
  -2.8049999999999999E-002    -3.0360408793316612E-008
  -2.8000000000000001E-002    -3.1588105592252261E-008
  -2.7950000000000003E-002    -3.2892691140279965E-008
  -2.7900000000000001E-002    -3.4315333063741033E-008
  -2.7850000000000000E-002    -3.5862116548129775E-008
  -2.7799999999999998E-002    -3.7508846466952044E-008
  -2.7750000000000000E-002    -3.9231103069505074E-008
  -2.7700000000000002E-002    -4.1030467577305196E-008
  -2.7650000000000001E-002    -4.2931752365068312E-008
  -2.7600000000000000E-002    -4.4954153577843917E-008
  -2.7549999999999998E-002    -4.7084827320754743E-008
  -2.7500000000000000E-002    -4.9281557256109370E-008
  -2.7450000000000002E-002    -5.1503487355972645E-008
  -2.7400000000000001E-002    -5.3741541452895853E-008
  -2.7349999999999999E-002    -5.6019932058458025E-008
  -2.7299999999999998E-002    -5.8367588566890205E-008
  -2.7250000000000000E-002    -6.0787347345103128E-008
  -2.7200000000000002E-002    -6.3253256346141357E-008
  -2.7150000000000001E-002    -6.5739160135682980E-008
  -2.7099999999999999E-002    -6.8251260270798085E-008
  -2.7049999999999998E-002    -7.0832559414108662E-008
  -2.7000000000000000E-002    -7.3533488746554905E-008
  -2.6950000000000002E-002    -7.6375655737949623E-008
  -2.6900000000000000E-002    -7.9342540590220601E-008
  -2.6849999999999999E-002    -8.2405652229131927E-008
  -2.6800000000000001E-002    -8.5560667728983174E-008
  -2.6749999999999999E-002    -8.8838334530503668E-008
  -2.6700000000000002E-002    -9.2279021747519413E-008
  -2.6650000000000000E-002    -9.5895037048859204E-008
  -2.6599999999999999E-002    -9.9657356019664305E-008
  -2.6550000000000001E-002    -1.0352061485323812E-007
  -2.6500000000000003E-002    -1.0746355775295366E-007
  -2.6450000000000001E-002    -1.1150709056395511E-007
  -2.6400000000000000E-002    -1.1569257126857174E-007
  -2.6349999999999998E-002    -1.2004093934044814E-007
  -2.6300000000000000E-002    -1.2453152020932553E-007
  -2.6250000000000002E-002    -1.2912131553399642E-007
  -2.6200000000000001E-002    -1.3378699614263902E-007
  -2.6150000000000000E-002    -1.3855039565466521E-007
  -2.6099999999999998E-002    -1.4346333803842126E-007
  -2.6050000000000000E-002    -1.4856620901577188E-007
  -2.6000000000000002E-002    -1.5385938631008971E-007
  -2.5950000000000001E-002    -1.5931427236747807E-007
  -2.5899999999999999E-002    -1.6491297968195270E-007
  -2.5849999999999998E-002    -1.7067869117503661E-007
  -2.5800000000000000E-002    -1.7666665107790208E-007
  -2.5750000000000002E-002    -1.8292389041037349E-007
  -2.5700000000000001E-002    -1.8945439346126380E-007
  -2.5649999999999999E-002    -1.9622208560678675E-007
  -2.5599999999999998E-002    -2.0318825035161014E-007
  -2.5550000000000000E-002    -2.1034817941009438E-007
  -2.5500000000000002E-002    -2.1773300541110575E-007
  -2.5450000000000000E-002    -2.2537624796523300E-007
  -2.5399999999999999E-002    -2.3327824490144890E-007
  -2.5349999999999998E-002    -2.4140351421841784E-007
  -2.5300000000000000E-002    -2.4971414166698335E-007
  -2.5250000000000002E-002    -2.5820848459771323E-007
  -2.5200000000000000E-002    -2.6692782366235765E-007
  -2.5149999999999999E-002    -2.7592502329551736E-007
  -2.5100000000000001E-002    -2.8522364991615741E-007
  -2.5049999999999999E-002    -2.9480624779958478E-007
  -2.5000000000000001E-002    -3.0464233151053047E-007
  -2.4950000000000000E-002    -3.1472927178684301E-007
  -2.4899999999999999E-002    -3.2510673604371515E-007
  -2.4850000000000001E-002    -3.3583100313776218E-007
  -2.4800000000000003E-002    -3.4693276686810106E-007
  -2.4750000000000001E-002    -3.5839848910848693E-007
  -2.4700000000000000E-002    -3.7019306694228282E-007
  -2.4649999999999998E-002    -3.8230251373697593E-007
  -2.4600000000000000E-002    -3.9475564362257207E-007
  -2.4550000000000002E-002    -4.0760436161097478E-007
  -2.4500000000000001E-002    -4.2087972079989968E-007
  -2.4450000000000000E-002    -4.3456562309482291E-007
  -2.4399999999999998E-002    -4.4861533389174555E-007
  -2.4350000000000000E-002    -4.6299645208363275E-007
  -2.4299999999999999E-002    -4.7772394179741378E-007
  -2.4250000000000001E-002    -4.9285093883994327E-007
  -2.4199999999999999E-002    -5.0842713109417103E-007
  -2.4150000000000001E-002    -5.2446317289701376E-007
  -2.4100000000000000E-002    -5.4093460015774361E-007
  -2.4049999999999998E-002    -5.5782044220686399E-007
  -2.4000000000000000E-002    -5.7513941668763961E-007
  -2.3949999999999999E-002    -5.9294898649361205E-007
  -2.3900000000000001E-002    -6.1130865584500137E-007
  -2.3850000000000000E-002    -6.3024132698355942E-007
  -2.3800000000000002E-002    -6.4972983297990966E-007
  -2.3750000000000000E-002    -6.6975098174751281E-007
  -2.3699999999999999E-002    -6.9031450020874096E-007
  -2.3650000000000001E-002    -7.1146907257451802E-007
  -2.3599999999999999E-002    -7.3327083931877918E-007
  -2.3550000000000001E-002    -7.5574288504516872E-007
  -2.3500000000000000E-002    -7.7886513391681016E-007
  -2.3449999999999999E-002    -8.0260418868603877E-007
  -2.3400000000000001E-002    -8.2695405038890465E-007
  -2.3349999999999999E-002    -8.5194949936126700E-007
  -2.3300000000000001E-002    -8.7763971513793343E-007
  -2.3250000000000000E-002    -9.0404830771899211E-007
  -2.3199999999999998E-002    -9.3115912804334770E-007
  -2.3150000000000000E-002    -9.5894243881503272E-007
  -2.3099999999999999E-002    -9.8739786936323045E-007
  -2.3050000000000001E-002    -1.0165724464662297E-006
  -2.3000000000000000E-002    -1.0465366741891301E-006
  -2.2950000000000002E-002    -1.0773412015392342E-006
  -2.2900000000000000E-002    -1.1089928046255322E-006
  -2.2849999999999999E-002    -1.1414728261178398E-006
  -2.2800000000000001E-002    -1.1747780406020224E-006
  -2.2749999999999999E-002    -1.2089462828552620E-006
  -2.2700000000000001E-002    -1.2440400717286102E-006
  -2.2650000000000000E-002    -1.2801055750647638E-006
  -2.2599999999999999E-002    -1.3171469736521111E-006
  -2.2550000000000001E-002    -1.3551391776700639E-006
  -2.2499999999999999E-002    -1.3940685181650734E-006
  -2.2450000000000001E-002    -1.4339619450590309E-006
  -2.2400000000000000E-002    -1.4748763199174491E-006
  -2.2349999999999998E-002    -1.5168612093052303E-006
  -2.2300000000000000E-002    -1.5599293791524960E-006
  -2.2249999999999999E-002    -1.6040647173699216E-006
  -2.2200000000000001E-002    -1.6492597092042356E-006
  -2.2150000000000000E-002    -1.6955436350602263E-006
  -2.2100000000000002E-002    -1.7429768844943010E-006
  -2.2050000000000000E-002    -1.7916184855554181E-006
  -2.1999999999999999E-002    -1.8414970802275309E-006
  -2.1950000000000001E-002    -1.8926146044465925E-006
  -2.1899999999999999E-002    -1.9449783428329235E-006
  -2.1850000000000001E-002    -1.9986287504196914E-006
  -2.1800000000000000E-002    -2.0536328694865495E-006
  -2.1749999999999999E-002    -2.1100543505987703E-006
  -2.1700000000000001E-002    -2.1679239718965220E-006
  -2.1649999999999999E-002    -2.2272447464048359E-006
  -2.1600000000000001E-002    -2.2880209363624527E-006
  -2.1550000000000000E-002    -2.3502862600911347E-006
  -2.1499999999999998E-002    -2.4140975661290516E-006
  -2.1450000000000000E-002    -2.4795074346011518E-006
  -2.1399999999999999E-002    -2.5465358839715433E-006
  -2.1350000000000001E-002    -2.6151774004143441E-006
  -2.1299999999999999E-002    -2.6854325566337455E-006
  -2.1250000000000002E-002    -2.7573328048172519E-006
  -2.1200000000000000E-002    -2.8309372138253147E-006
  -2.1149999999999999E-002    -2.9063023546781849E-006
  -2.1100000000000001E-002    -2.9834588161330286E-006
  -2.1049999999999999E-002    -3.0624157565400590E-006
  -2.1000000000000001E-002    -3.1431910190766704E-006
  -2.0950000000000000E-002    -3.2258351342373830E-006
  -2.0899999999999998E-002    -3.3104258385397065E-006
  -2.0850000000000000E-002    -3.3970348207977140E-006
  -2.0799999999999999E-002    -3.4857025035367294E-006
  -2.0750000000000001E-002    -3.5764452648919147E-006
  -2.0700000000000000E-002    -3.6692855604318368E-006
  -2.0649999999999998E-002    -3.7642754114695594E-006
  -2.0600000000000000E-002    -3.8614865991896867E-006
  -2.0549999999999999E-002    -3.9609799052480910E-006
  -2.0500000000000001E-002    -4.0627799373798196E-006
  -2.0449999999999999E-002    -4.1668870965219930E-006
  -2.0400000000000001E-002    -4.2733136375039385E-006
  -2.0350000000000000E-002    -4.3821076738545683E-006
  -2.0299999999999999E-002    -4.4933417388275209E-006
  -2.0250000000000001E-002    -4.6070803522168745E-006
  -2.0199999999999999E-002    -4.7233541793992933E-006
  -2.0150000000000001E-002    -4.8421761564602331E-006
  -2.0100000000000000E-002    -4.9635774020558620E-006
  -2.0049999999999998E-002    -5.0876350759872174E-006
  -2.0000000000000000E-002    -5.2144520488053711E-006
  -1.9949999999999999E-002    -5.3441154959655305E-006
  -1.9900000000000001E-002    -5.4766703830988405E-006
  -1.9850000000000000E-002    -5.6121299115677787E-006
  -1.9799999999999998E-002    -5.7505258703003921E-006
  -1.9750000000000000E-002    -5.8919398071987744E-006
  -1.9699999999999999E-002    -6.0364861224344440E-006
  -1.9650000000000001E-002    -6.1842576320049660E-006
  -1.9599999999999999E-002    -6.3352899668053068E-006
  -1.9550000000000001E-002    -6.4895788613183852E-006
  -1.9500000000000000E-002    -6.6471363755676685E-006
  -1.9449999999999999E-002    -6.8080333912969845E-006
  -1.9400000000000001E-002    -6.9723809555960232E-006
  -1.9349999999999999E-002    -7.1402777675982064E-006
  -1.9300000000000001E-002    -7.3117664852440237E-006
  -1.9250000000000000E-002    -7.4868436347360078E-006
  -1.9199999999999998E-002    -7.6655251987963607E-006
  -1.9150000000000000E-002    -7.8478928211177621E-006
  -1.9099999999999999E-002    -8.0340791742573819E-006
  -1.9050000000000001E-002    -8.2242068031159404E-006
  -1.9000000000000000E-002    -8.4183340026772408E-006
  -1.8949999999999998E-002    -8.6164683864380980E-006
  -1.8900000000000000E-002    -8.8186259299636042E-006
  -1.8849999999999999E-002    -9.0248891057931942E-006
  -1.8800000000000001E-002    -9.2354026625088155E-006
  -1.8749999999999999E-002    -9.4503020972772807E-006
  -1.8700000000000001E-002    -9.6696563852730932E-006
  -1.8650000000000000E-002    -9.8934690736583845E-006
  -1.8599999999999998E-002    -1.0121743768064214E-005
  -1.8550000000000001E-002    -1.0354554456963408E-005
  -1.8499999999999999E-002    -1.0592046985706739E-005
  -1.8450000000000001E-002    -1.0834364219425119E-005
  -1.8400000000000000E-002    -1.1081578103710652E-005
  -1.8349999999999998E-002    -1.1333681322200739E-005
  -1.8300000000000000E-002    -1.1590664250170797E-005
  -1.8249999999999999E-002    -1.1852590871299531E-005
  -1.8200000000000001E-002    -1.2119614983495752E-005
  -1.8149999999999999E-002    -1.2391906738926934E-005
  -1.8100000000000002E-002    -1.2669570278143927E-005
  -1.8050000000000000E-002    -1.2952623547051031E-005
  -1.7999999999999999E-002    -1.3241068728340384E-005
  -1.7950000000000001E-002    -1.3534977605608834E-005
  -1.7899999999999999E-002    -1.3834515998749632E-005
  -1.7850000000000001E-002    -1.4139875040240307E-005
  -1.7800000000000000E-002    -1.4451182740912759E-005
  -1.7749999999999998E-002    -1.4768463171732770E-005
  -1.7700000000000000E-002    -1.5091708394921973E-005
  -1.7649999999999999E-002    -1.5420965368015139E-005
  -1.7600000000000001E-002    -1.5756383592256188E-005
  -1.7550000000000000E-002    -1.6098157088278712E-005
  -1.7499999999999998E-002    -1.6446425575533881E-005
  -1.7450000000000000E-002    -1.6801219271951044E-005
  -1.7399999999999999E-002    -1.7162522587749763E-005
  -1.7350000000000001E-002    -1.7530367392597806E-005
  -1.7299999999999999E-002    -1.7904907197535986E-005
  -1.7250000000000001E-002    -1.8286350810387047E-005
  -1.7200000000000000E-002    -1.8674868685683551E-005
  -1.7149999999999999E-002    -1.9070514134211362E-005
  -1.7100000000000001E-002    -1.9473270069745238E-005
  -1.7049999999999999E-002    -1.9883160089085173E-005
  -1.7000000000000001E-002    -2.0300331271162610E-005
  -1.6950000000000000E-002    -2.0725007818646472E-005
  -1.6899999999999998E-002    -2.1157384065769250E-005
  -1.6850000000000000E-002    -2.1597530240182863E-005
  -1.6799999999999999E-002    -2.2045432297072508E-005
  -1.6750000000000001E-002    -2.2501105515738362E-005
  -1.6700000000000000E-002    -2.2964689187560949E-005
  -1.6649999999999998E-002    -2.3436413146415612E-005
  -1.6600000000000000E-002    -2.3916477777967132E-005
  -1.6549999999999999E-002    -2.4404967039717389E-005
  -1.6500000000000001E-002    -2.4901859245529482E-005
  -1.6449999999999999E-002    -2.5407158603907283E-005
  -1.6400000000000001E-002    -2.5920990104151168E-005
  -1.6350000000000000E-002    -2.6443579906663587E-005
  -1.6299999999999999E-002    -2.6975146994780628E-005
  -1.6250000000000001E-002    -2.7515788599391968E-005
  -1.6199999999999999E-002    -2.8065500411863534E-005
  -1.6150000000000001E-002    -2.8624277887460529E-005
  -1.6100000000000000E-002    -2.9192232866815628E-005
  -1.6049999999999998E-002    -2.9769589775687312E-005
  -1.6000000000000000E-002    -3.0356576424659613E-005
  -1.5949999999999999E-002    -3.0953339965333635E-005
  -1.5900000000000001E-002    -3.1559885239554851E-005
  -1.5850000000000000E-002    -3.2176214980078063E-005
  -1.5799999999999998E-002    -3.2802440887571177E-005
  -1.5750000000000000E-002    -3.3438787829643429E-005
  -1.5699999999999999E-002    -3.4085509653477227E-005
  -1.5650000000000001E-002    -3.4742737972198962E-005
  -1.5599999999999999E-002    -3.5410492957209430E-005
  -1.5550000000000001E-002    -3.6088770539055105E-005
  -1.5500000000000000E-002    -3.6777659013476003E-005
  -1.5449999999999998E-002    -3.7477366605437563E-005
  -1.5400000000000000E-002    -3.8188140901678286E-005
  -1.5349999999999999E-002    -3.8910127503796677E-005
  -1.5300000000000001E-002    -3.9643348254596710E-005
  -1.5250000000000000E-002    -4.0387786336138237E-005
  -1.5199999999999998E-002    -4.1143533399632971E-005
  -1.5150000000000000E-002    -4.1910801328466632E-005
  -1.5099999999999999E-002    -4.2689859143608155E-005
  -1.5050000000000001E-002    -4.3480867250394935E-005
  -1.4999999999999999E-002    -4.4283864807733261E-005
  -1.4949999999999998E-002    -4.5098833386381539E-005
  -1.4900000000000000E-002    -4.5925853891826054E-005
  -1.4849999999999999E-002    -4.6765127859330759E-005
  -1.4800000000000001E-002    -4.7616929491041080E-005
  -1.4749999999999999E-002    -4.8481448547140720E-005
  -1.4700000000000001E-002    -4.9358712033005037E-005
  -1.4650000000000000E-002    -5.0248688006544874E-005
  -1.4599999999999998E-002    -5.1151428849905862E-005
  -1.4550000000000000E-002    -5.2067126913722100E-005
  -1.4499999999999999E-002    -5.2996052033476884E-005
  -1.4450000000000001E-002    -5.3938390576283844E-005
  -1.4400000000000000E-002    -5.4894179864621501E-005
  -1.4349999999999998E-002    -5.5863397199521121E-005
  -1.4300000000000000E-002    -5.6846083673847715E-005
  -1.4249999999999999E-002    -5.7842408750184409E-005
  -1.4200000000000001E-002    -5.8852642696086805E-005
  -1.4149999999999999E-002    -5.9876994200794432E-005
  -1.4099999999999998E-002    -6.0915531546835351E-005
  -1.4050000000000000E-002    -6.1968196548391346E-005
  -1.3999999999999999E-002    -6.3035015262781445E-005
  -1.3950000000000001E-002    -6.4116126651103078E-005
  -1.3899999999999999E-002    -6.5211804980209819E-005
  -1.3850000000000001E-002    -6.6322294796461093E-005
  -1.3800000000000000E-002    -6.7447694338965494E-005
  -1.3749999999999998E-002    -6.8587932997659653E-005
  -1.3700000000000000E-002    -6.9742989319644298E-005
  -1.3649999999999999E-002    -7.0913017490517610E-005
  -1.3600000000000001E-002    -7.2098274030670402E-005
  -1.3550000000000000E-002    -7.3299021512882896E-005
  -1.3499999999999998E-002    -7.4515355751275458E-005
  -1.3450000000000000E-002    -7.5747226628829938E-005
  -1.3399999999999999E-002    -7.6994566020475514E-005
  -1.3350000000000001E-002    -7.8257476371214007E-005
  -1.3299999999999999E-002    -7.9536202874924737E-005
  -1.3249999999999998E-002    -8.0831019957883801E-005
  -1.3200000000000000E-002    -8.2142029889986347E-005
  -1.3149999999999998E-002    -8.3469170738522709E-005
  -1.3100000000000001E-002    -8.4812360917329931E-005
  -1.3049999999999999E-002    -8.6171651190102355E-005
  -1.3000000000000001E-002    -8.7547288390686759E-005
  -1.2950000000000000E-002    -8.8939572550921127E-005
  -1.2899999999999998E-002    -9.0348629785668829E-005
  -1.2850000000000000E-002    -9.1774400793605030E-005
  -1.2799999999999999E-002    -9.3216786850973982E-005