  -4.0000000000000001E-002     0.0000000000000000     
  -3.9949999999999999E-002     0.0000000000000000     
  -3.9899999999999998E-002     0.0000000000000000     
  -3.9850000000000003E-002     0.0000000000000000     
  -3.9800000000000002E-002     0.0000000000000000     
  -3.9750000000000001E-002     0.0000000000000000     
  -3.9699999999999999E-002     0.0000000000000000     
  -3.9649999999999998E-002     0.0000000000000000     
  -3.9600000000000003E-002     0.0000000000000000     
  -3.9550000000000002E-002     0.0000000000000000     
  -3.9500000000000000E-002     3.6425222157654731E-030
  -3.9449999999999999E-002     1.5039257786521186E-029
  -3.9399999999999998E-002    -3.3799342308860341E-028
  -3.9350000000000003E-002    -4.9304334708015117E-027
  -3.9300000000000002E-002    -3.4776909373326923E-026
  -3.9250000000000000E-002    -1.6345287795676360E-025
  -3.9199999999999999E-002    -5.5729814426772481E-025
  -3.9150000000000004E-002    -1.3822054242655193E-024
  -3.9100000000000003E-002    -2.2046388702919306E-024
  -3.9050000000000001E-002    -4.0259835702404187E-025
  -3.9000000000000000E-002     1.1166929395679282E-023
  -3.8949999999999999E-002     4.4481116918465345E-023
  -3.8900000000000004E-002     1.0784490430892786E-022
  -3.8850000000000003E-002     1.8007689143535641E-022
  -3.8800000000000001E-002     1.6794660724129698E-022
  -3.8750000000000000E-002    -1.2496723472663110E-022
  -3.8699999999999998E-002    -9.4983650541129458E-022
  -3.8650000000000004E-002    -2.3990992976596610E-021
  -3.8600000000000002E-002    -4.0083564507839473E-021
  -3.8550000000000001E-002    -4.3456998859092342E-021
  -3.8500000000000000E-002    -1.0234375377064336E-021
  -3.8449999999999998E-002     8.3078866952211700E-021
  -3.8400000000000004E-002     2.3741002961754381E-020
  -3.8350000000000002E-002     4.0350796633797990E-020
  -3.8300000000000001E-002     4.6800706485963404E-020
  -3.8249999999999999E-002     2.7853375936334548E-020
  -3.8199999999999998E-002    -2.7792837624757490E-020
  -3.8150000000000003E-002    -1.1622177532504568E-019
  -3.8100000000000002E-002    -2.0969999493894117E-019
  -3.8050000000000000E-002    -2.5904624335522211E-019
  -3.7999999999999999E-002    -2.1201975418294019E-019
  -3.7949999999999998E-002    -4.3401619317969062E-020
  -3.7900000000000003E-002     2.1893339220129349E-019
  -3.7850000000000002E-002     4.9266816036356611E-019
  -3.7800000000000000E-002     6.7599232196683941E-019
  -3.7749999999999999E-002     7.0700355626920820E-019
  -3.7699999999999997E-002     6.0987260592245192E-019
  -3.7650000000000003E-002     4.8212945146226717E-019
  -3.7600000000000001E-002     4.0366459669447101E-019
  -3.7550000000000000E-002     3.0536568963751918E-019
  -3.7499999999999999E-002    -1.0609630506681534E-019
  -3.7449999999999997E-002    -1.2572428717973220E-018
  -3.7400000000000003E-002    -3.4070734131593389E-018
  -3.7350000000000001E-002    -6.2324799327914147E-018
  -3.7300000000000000E-002    -8.5428367397363333E-018
  -3.7249999999999998E-002    -8.4201469478453308E-018
  -3.7200000000000004E-002    -3.9557283044170074E-018
  -3.7150000000000002E-002     5.5525355800973640E-018
  -3.7100000000000001E-002     1.8450015221134752E-017
  -3.7050000000000000E-002     3.0354871981912735E-017
  -3.6999999999999998E-002     3.5168456131085271E-017
  -3.6950000000000004E-002     2.7506823737252107E-017
  -3.6900000000000002E-002     5.7704299560271880E-018
  -3.6850000000000001E-002    -2.5615942490879771E-017
  -3.6799999999999999E-002    -5.6334535072739254E-017
  -3.6749999999999998E-002    -7.3405851912701784E-017
  -3.6700000000000003E-002    -6.6726050969564543E-017
  -3.6650000000000002E-002    -3.4568770491233879E-017
  -3.6600000000000001E-002     1.3926693194282907E-017
  -3.6549999999999999E-002     6.1310691340813301E-017
  -3.6499999999999998E-002     8.9035852688606925E-017
  -3.6450000000000003E-002     8.6147276848105256E-017
  -3.6400000000000002E-002     5.4757542234483237E-017
  -3.6350000000000000E-002     8.6882909561698589E-018
  -3.6299999999999999E-002    -3.4691938552999515E-017
  -3.6249999999999998E-002    -6.4909489171494837E-017
  -3.6200000000000003E-002    -8.4030426419140632E-017
  -3.6150000000000002E-002    -1.0212556153229615E-016
  -3.6100000000000000E-002    -1.2323834321182436E-016
  -3.6049999999999999E-002    -1.3017600994673259E-016
  -3.6000000000000004E-002    -8.0891810794513945E-017
  -3.5950000000000003E-002     7.3728082577054520E-017
  -3.5900000000000001E-002     3.5195630679413651E-016
  -3.5850000000000000E-002     6.9943302865652063E-016
  -3.5799999999999998E-002     9.7033578344574333E-016
  -3.5750000000000004E-002     9.5632226566446239E-016
  -3.5700000000000003E-002     4.6996799547050148E-016
  -3.5650000000000001E-002    -5.3978107358890383E-016
  -3.5600000000000000E-002    -1.8900394841352833E-015
  -3.5549999999999998E-002    -3.1439833676435033E-015
  -3.5500000000000004E-002    -3.7093689702886197E-015
  -3.5450000000000002E-002    -3.0504671564547965E-015
  -3.5400000000000001E-002    -9.5069282132953193E-016
  -3.5349999999999999E-002     2.2803927768225514E-015
  -3.5299999999999998E-002     5.7668166897993334E-015
  -3.5250000000000004E-002     8.2580719494435321E-015
  -3.5200000000000002E-002     8.5320869071654294E-015
  -3.5150000000000001E-002     5.8914692702405091E-015
  -3.5099999999999999E-002     5.6889122497742067E-016
  -3.5049999999999998E-002    -6.1438623065723741E-015
  -3.5000000000000003E-002    -1.2152967862359931E-014
  -3.4950000000000002E-002    -1.5181289224443003E-014
  -3.4900000000000000E-002    -1.3576962522345539E-014
  -3.4849999999999999E-002    -7.0367554901287638E-015
  -3.4799999999999998E-002     3.0428800045796194E-015
  -3.4750000000000003E-002     1.3777368235163979E-014
  -3.4700000000000002E-002     2.1575535703747178E-014
  -3.4650000000000000E-002     2.3288100797663642E-014
  -3.4599999999999999E-002     1.7358946778778911E-014
  -3.4549999999999997E-002     4.5699710960375692E-015
  -3.4500000000000003E-002    -1.1928141364570666E-014
  -3.4450000000000001E-002    -2.7381519014068448E-014
  -3.4400000000000000E-002    -3.6801340398435048E-014
  -3.4349999999999999E-002    -3.6514428984692581E-014
  -3.4299999999999997E-002    -2.5388928335855508E-014
  -3.4250000000000003E-002    -5.3222596018065072E-015
  -3.4200000000000001E-002     1.9173724061502626E-014
  -3.4150000000000000E-002     4.2146366577630524E-014
  -3.4099999999999998E-002     5.7741665704401076E-014
  -3.4049999999999997E-002     6.1626624810534701E-014
  -3.4000000000000002E-002     5.1912172409563471E-014
  -3.3950000000000001E-002     2.9430212145186007E-014
  -3.3900000000000000E-002    -2.5281974852212802E-015
  -3.3849999999999998E-002    -3.8762417820296890E-014
  -3.3799999999999997E-002    -7.2781638856639584E-014
  -3.3750000000000002E-002    -9.7455853421953271E-014
  -3.3700000000000001E-002    -1.0586218359452355E-013
  -3.3649999999999999E-002    -9.2556987355252167E-014
  -3.3599999999999998E-002    -5.5332156415382440E-014
  -3.3550000000000003E-002     2.8721846673300380E-015
  -3.3500000000000002E-002     7.2655960523542255E-014
  -3.3450000000000001E-002     1.3842322655005834E-013
  -3.3399999999999999E-002     1.8097692082868629E-013
  -3.3349999999999998E-002     1.8248228410446761E-013
  -3.3300000000000003E-002     1.3279700797816265E-013
  -3.3250000000000002E-002     3.5194776607478835E-014
  -3.3200000000000000E-002    -9.0924521065874750E-014
  -3.3149999999999999E-002    -2.1228925469441797E-013
  -3.3099999999999997E-002    -2.8953133117088509E-013
  -3.3050000000000003E-002    -2.8905083742197213E-013
  -3.3000000000000002E-002    -1.9562778566652669E-013
  -3.2950000000000000E-002    -2.1394372994015637E-014
  -3.2899999999999999E-002     1.9280496031071533E-013
  -3.2850000000000004E-002     3.8563497450884605E-013
  -3.2800000000000003E-002     4.9192700835423842E-013
  -3.2750000000000001E-002     4.6339346175040562E-013
  -3.2700000000000000E-002     2.8687527629045046E-013
  -3.2649999999999998E-002    -6.4863723641374201E-015
  -3.2600000000000004E-002    -3.4545793306290868E-013
  -3.2550000000000003E-002    -6.3645417748669442E-013
  -3.2500000000000001E-002    -7.9027856136927876E-013
  -3.2450000000000000E-002    -7.4978303785822868E-013
  -3.2399999999999998E-002    -5.0938226955830065E-013
  -3.2350000000000004E-002    -1.1951974131561860E-013
  -3.2300000000000002E-002     3.2605190670997846E-013
  -3.2250000000000001E-002     7.1654572166155758E-013
  -3.2199999999999999E-002     9.5563735911963358E-013
  -3.2149999999999998E-002     9.8800829323139448E-013
  -3.2100000000000004E-002     8.1254325139300744E-013
  -3.2050000000000002E-002     4.7859430226008073E-013
  -3.2000000000000001E-002     6.7741022267192315E-014
  -3.1949999999999999E-002    -3.3160758691918780E-013
  -3.1899999999999998E-002    -6.4750575643042403E-013
  -3.1850000000000003E-002    -8.3815760473425672E-013
  -3.1800000000000002E-002    -8.9310564833392328E-013
  -3.1750000000000000E-002    -8.2445683064441482E-013
  -3.1699999999999999E-002    -6.5454731771062468E-013
  -3.1649999999999998E-002    -4.0707816660415785E-013
  -3.1600000000000003E-002    -1.0589085449828668E-013
  -3.1550000000000002E-002     2.1941984853548622E-013
  -3.1500000000000000E-002     5.2652290519587253E-013
  -3.1449999999999999E-002     7.5939217747548470E-013
  -3.1399999999999997E-002     8.5864715673850584E-013
  -3.1350000000000003E-002     7.8284661200909345E-013
  -3.1300000000000001E-002     5.3357578629727477E-013
  -3.1250000000000000E-002     1.7242176723884058E-013
  -3.1199999999999999E-002    -1.8198024640187636E-013
  -3.1150000000000001E-002    -3.8272870942579536E-013
  -3.1100000000000003E-002    -3.0497056899246266E-013
  -3.1050000000000001E-002     9.7271543911631749E-014
  -3.1000000000000000E-002     7.4938308065008296E-013
  -3.0949999999999998E-002     1.4500139582279997E-012
  -3.0900000000000000E-002     1.9111312752355684E-012
  -3.0850000000000002E-002     1.8389665945531229E-012
  -3.0800000000000001E-002     1.0340575606492201E-012
  -3.0750000000000000E-002    -5.2199002501717641E-013
  -3.0699999999999998E-002    -2.6251138399670667E-012
  -3.0650000000000000E-002    -4.8725812289068004E-012
  -3.0600000000000002E-002    -6.7509349477539779E-012
  -3.0550000000000001E-002    -7.7648794193957051E-012
  -3.0499999999999999E-002    -7.5685674157038895E-012
  -3.0449999999999998E-002    -6.0584154978680157E-012
  -3.0400000000000000E-002    -3.3986927262623405E-012
  -3.0350000000000002E-002     2.6406049049644023E-014
  -3.0300000000000001E-002     3.7157587571013524E-012
  -3.0249999999999999E-002     7.1731904288246363E-012
  -3.0200000000000001E-002     1.0007692112353524E-011
  -3.0150000000000000E-002     1.1981992157747327E-011
  -3.0100000000000002E-002     1.3000530743245220E-011
  -3.0050000000000000E-002     1.3051139618790343E-011
  -2.9999999999999999E-002     1.2131401201658945E-011
  -2.9950000000000001E-002     1.0194649219962663E-011
  -2.9899999999999999E-002     7.1410884351068802E-012
  -2.9850000000000002E-002     2.8607328596361599E-012
  -2.9800000000000000E-002    -2.6854127689635359E-012
  -2.9749999999999999E-002    -9.3736157409066280E-012
  -2.9700000000000001E-002    -1.6845788456552830E-011
  -2.9650000000000003E-002    -2.4480112394122232E-011
  -2.9600000000000001E-002    -3.1410339764301515E-011
  -2.9550000000000000E-002    -3.6583781148667345E-011
  -2.9499999999999998E-002    -3.8837549660000055E-011
  -2.9450000000000000E-002    -3.6971794744690134E-011
  -2.9400000000000003E-002    -2.9806744571153207E-011
  -2.9350000000000001E-002    -1.6224085569517027E-011
  -2.9300000000000000E-002     4.7958439348023000E-012
  -2.9249999999999998E-002     3.4124027712577685E-011
  -2.9200000000000000E-002     7.2409318433512298E-011
  -2.9150000000000002E-002     1.1998353720371313E-010
  -2.9100000000000001E-002     1.7676505814237547E-010
  -2.9049999999999999E-002     2.4219171450981629E-010
  -2.8999999999999998E-002     3.1521636647354669E-010
  -2.8950000000000000E-002     3.9438499345450480E-010
  -2.8900000000000002E-002     4.7799539845947256E-010
  -2.8850000000000001E-002     5.6430780961000342E-010
  -2.8799999999999999E-002     6.5175896282771346E-010
  -2.8749999999999998E-002     7.3912737450644418E-010
  -2.8700000000000000E-002     8.2561073057508290E-010
  -2.8650000000000002E-002     9.1080208791391678E-010
  -2.8600000000000000E-002     9.9458709417366617E-010
  -2.8549999999999999E-002     1.0770062209240682E-009
  -2.8500000000000001E-002     1.1581355444648280E-009
  -2.8450000000000000E-002     1.2380299825104882E-009
  -2.8400000000000002E-002     1.3167422650557261E-009
  -2.8350000000000000E-002     1.3944023522023357E-009
  -2.8299999999999999E-002     1.4713147163669279E-009
  -2.8250000000000001E-002     1.5480250312998945E-009
  -2.8200000000000003E-002     1.6253180360247130E-009
  -2.8150000000000001E-002     1.7041330420145573E-009
  -2.8100000000000000E-002     1.7854134236110262E-009
  -2.8049999999999999E-002     1.8699294928162121E-009
  -2.8000000000000001E-002     1.9581210740229535E-009
  -2.7950000000000003E-002     2.0500002214783478E-009
  -2.7900000000000001E-002     2.1451362681206221E-009
  -2.7850000000000000E-002     2.2427257124303756E-009
  -2.7799999999999998E-002     2.3417300712214761E-009
  -2.7750000000000000E-002     2.4410570837131572E-009
  -2.7700000000000002E-002     2.5397500869421654E-009
  -2.7650000000000001E-002     2.6371597186146652E-009
  -2.7600000000000000E-002     2.7330642300280113E-009
  -2.7549999999999998E-002     2.8277227532374847E-009
  -2.7500000000000000E-002     2.9218445288527361E-009
  -2.7450000000000002E-002     3.0164832873020138E-009
  -2.7400000000000001E-002     3.1128751867996907E-009
  -2.7349999999999999E-002     3.2122615931943069E-009
  -2.7299999999999998E-002     3.3157342100059516E-009
  -2.7250000000000000E-002     3.4241388577442785E-009
  -2.7200000000000002E-002     3.5380461318495404E-009
  -2.7150000000000001E-002     3.6577706439979354E-009
  -2.7099999999999999E-002     3.7834099098867421E-009
  -2.7049999999999998E-002     3.9148601282780186E-009
  -2.7000000000000000E-002     4.0518085179929756E-009
  -2.6950000000000002E-002     4.1937071342149234E-009
  -2.6900000000000000E-002     4.3397731353062192E-009
  -2.6849999999999999E-002     4.4890566440122831E-009
  -2.6800000000000001E-002     4.6405920320014563E-009
  -2.6749999999999999E-002     4.7936012334939575E-009
  -2.6700000000000002E-002     4.9476811506258192E-009
  -2.6650000000000000E-002     5.1029037526722311E-009
  -2.6599999999999999E-002     5.2597687804785057E-009
  -2.6550000000000001E-002     5.4190273602514495E-009
  -2.6500000000000003E-002     5.5814508034454193E-009
  -2.6450000000000001E-002     5.7476501540759355E-009
  -2.6400000000000000E-002     5.9180414445068205E-009
  -2.6349999999999998E-002     6.0929754071045707E-009
  -2.6300000000000000E-002     6.2729688253738903E-009
  -2.6250000000000002E-002     6.4588989633965790E-009
  -2.6200000000000001E-002     6.6520245583323716E-009
  -2.6150000000000000E-002     6.8537713476384014E-009
  -2.6099999999999998E-002     7.0653251420166658E-009
  -2.6050000000000000E-002     7.2871784901001138E-009
  -2.6000000000000002E-002     7.5188478698859593E-009
  -2.5950000000000001E-002     7.7588840896060666E-009
  -2.5899999999999999E-002     8.0052288653024035E-009
  -2.5849999999999998E-002     8.2557787060609230E-009
  -2.5800000000000000E-002     8.5089521351181249E-009
  -2.5750000000000002E-002     8.7640463937502731E-009
  -2.5700000000000001E-002     9.0212659765968078E-009
  -2.5649999999999999E-002     9.2814631380455363E-009
  -2.5599999999999998E-002     9.5457517880331733E-009
  -2.5550000000000000E-002     9.8152114043635201E-009
  -2.5500000000000002E-002     1.0090815363258978E-008
  -2.5450000000000000E-002     1.0373587557009688E-008
  -2.5399999999999999E-002     1.0664848714934765E-008
  -2.5349999999999998E-002     1.0966349896684208E-008
  -2.5300000000000000E-002     1.1280138568496522E-008
  -2.5250000000000002E-002     1.1608148207111389E-008
  -2.5200000000000000E-002     1.1951662155572819E-008
  -2.5149999999999999E-002     1.2310891228586113E-008
  -2.5100000000000001E-002     1.2684885616904072E-008
  -2.5049999999999999E-002     1.3071855290332252E-008
  -2.5000000000000001E-002     1.3469775517072426E-008
  -2.4950000000000000E-002     1.3877031935068522E-008
  -2.4899999999999999E-002     1.4292821082580604E-008
  -2.4850000000000001E-002     1.4717143393766904E-008
  -2.4800000000000003E-002     1.5150445773367180E-008
  -2.4750000000000001E-002     1.5593107078078131E-008
  -2.4700000000000000E-002     1.6045065974518599E-008
  -2.4649999999999998E-002     1.6505793318159537E-008
  -2.4600000000000000E-002     1.6974647200781194E-008
  -2.4550000000000002E-002     1.7451410683628923E-008
  -2.4500000000000001E-002     1.7936767017418464E-008
  -2.4450000000000000E-002     1.8432424023373741E-008
  -2.4399999999999998E-002     1.8940822297777947E-008
  -2.4350000000000000E-002     1.9464552384187766E-008
  -2.4299999999999999E-002     2.0005711590078460E-008
  -2.4250000000000001E-002     2.0565504752602830E-008
  -2.4199999999999999E-002     2.1144211695571113E-008
  -2.4150000000000001E-002     2.1741497701965121E-008
  -2.4100000000000000E-002     2.2356844445993429E-008
  -2.4049999999999998E-002     2.2989875232654029E-008
  -2.4000000000000000E-002     2.3640404173624564E-008
  -2.3949999999999999E-002     2.4308254105950074E-008
  -2.3900000000000001E-002     2.4993015156182651E-008
  -2.3850000000000000E-002     2.5693957632085639E-008
  -2.3800000000000002E-002     2.6410248060357089E-008
  -2.3750000000000000E-002     2.7141435481476021E-008
  -2.3699999999999999E-002     2.7887982131573643E-008
  -2.3650000000000001E-002     2.8651578056188396E-008
  -2.3599999999999999E-002     2.9435032330198161E-008
  -2.3550000000000001E-002     3.0241766010310560E-008
  -2.3500000000000000E-002     3.1075050093334390E-008
  -2.3449999999999999E-002     3.1937329020097292E-008
  -2.3400000000000001E-002     3.2829880453902495E-008
  -2.3349999999999999E-002     3.3752903530317379E-008
  -2.3300000000000001E-002     3.4705903250986952E-008
  -2.3250000000000000E-002     3.5688137537136761E-008
  -2.3199999999999998E-002     3.6698917482465328E-008
  -2.3150000000000000E-002     3.7737605585012940E-008
  -2.3099999999999999E-002     3.8803424403852772E-008
  -2.3050000000000001E-002     3.9895245266513732E-008
  -2.3000000000000000E-002     4.1011590083861733E-008
  -2.2950000000000002E-002     4.2150878006061234E-008
  -2.2900000000000000E-002     4.3311856683527972E-008
  -2.2849999999999999E-002     4.4494018692039299E-008
  -2.2800000000000001E-002     4.5697772875101220E-008
  -2.2749999999999999E-002     4.6924286479008576E-008
  -2.2700000000000001E-002     4.8175129166032868E-008
  -2.2650000000000000E-002     4.9451875452516296E-008
  -2.2599999999999999E-002     5.0755913701852781E-008
  -2.2550000000000001E-002     5.2088504744479927E-008
  -2.2499999999999999E-002     5.3451051485225914E-008
  -2.2450000000000001E-002     5.4845300959266602E-008
  -2.2400000000000000E-002     5.6273352381232533E-008
  -2.2349999999999998E-002     5.7737388693083294E-008
  -2.2300000000000000E-002     5.9239292110764241E-008
  -2.2249999999999999E-002     6.0780318846706821E-008
  -2.2200000000000001E-002     6.2361133354928104E-008
  -2.2150000000000000E-002     6.3982172227505094E-008
  -2.2100000000000002E-002     6.5644217329159698E-008
  -2.2050000000000000E-002     6.7348823123132885E-008
  -2.1999999999999999E-002     6.9098427782457605E-008
  -2.1950000000000001E-002     7.0896009071265866E-008
  -2.1899999999999999E-002     7.2744533330923789E-008
  -2.1850000000000001E-002     7.4646499767142337E-008
  -2.1800000000000000E-002     7.6603912325418452E-008
  -2.1749999999999999E-002     7.8618739783674145E-008
  -2.1700000000000001E-002     8.0693597785989998E-008
  -2.1649999999999999E-002     8.2832200581251896E-008
  -2.1600000000000001E-002     8.5039213540987479E-008
  -2.1550000000000000E-002     8.7319315750697316E-008
  -2.1499999999999998E-002     8.9675774215002865E-008
  -2.1450000000000000E-002     9.2109201939643568E-008
  -2.1399999999999999E-002     9.4617035719182563E-008
  -2.1350000000000001E-002     9.7194211935570298E-008
  -2.1299999999999999E-002     9.9834783734955401E-008
  -2.1250000000000002E-002     1.0253378449898067E-007
  -2.1200000000000000E-002     1.0528857768130114E-007
  -2.1149999999999999E-002     1.0809903977683644E-007
  -2.1100000000000001E-002     1.1096640915022986E-007
  -2.1049999999999999E-002     1.1389149753514811E-007
  -2.1000000000000001E-002     1.1687302754611908E-007
  -2.0950000000000000E-002     1.1990714779549273E-007
  -2.0899999999999998E-002     1.2298829021645568E-007
  -2.0850000000000000E-002     1.2611118152403001E-007
  -2.0799999999999999E-002     1.2927295205641335E-007
  -2.0750000000000001E-002     1.3247431937087556E-007
  -2.0700000000000000E-002     1.3571927371003115E-007
  -2.0649999999999998E-002     1.3901322006067795E-007
  -2.0600000000000000E-002     1.4236046297002620E-007
  -2.0549999999999999E-002     1.4576224438558792E-007
  -2.0500000000000001E-002     1.4921614991281063E-007
  -2.0449999999999999E-002     1.5271739275553832E-007
  -2.0400000000000001E-002     1.5626127183574729E-007
  -2.0350000000000000E-002     1.5984580174539011E-007
  -2.0299999999999999E-002     1.6347320505726049E-007
  -2.0250000000000001E-002     1.6714970444781567E-007
  -2.0199999999999999E-002     1.7088371353100382E-007
  -2.0150000000000001E-002     1.7468329773303096E-007
  -2.0100000000000000E-002     1.7855414118578038E-007
  -2.0049999999999998E-002     1.8249898161230853E-007
  -2.0000000000000000E-002     1.8651865517106492E-007
  -1.9949999999999999E-002     1.9061436895374422E-007
  -1.9900000000000001E-002     1.9478990618845196E-007
  -1.9850000000000000E-002     1.9905274274001766E-007
  -1.9799999999999998E-002     2.0341353095071326E-007
  -1.9750000000000000E-002     2.0788404137679930E-007
  -1.9699999999999999E-002     2.1247455286727988E-007
  -1.9650000000000001E-002     2.1719160520197601E-007
  -1.9599999999999999E-002     2.2203718662828463E-007
  -1.9550000000000001E-002     2.2700966725313964E-007
  -1.9500000000000000E-002     2.3210591643541860E-007
  -1.9449999999999999E-002     2.3732383214757854E-007
  -1.9400000000000001E-002     2.4266407896662135E-007
  -1.9349999999999999E-002     2.4813063456653868E-007
  -1.9300000000000001E-002     2.5372980844931204E-007
  -1.9250000000000000E-002     2.5946828320273940E-007
  -1.9199999999999998E-002     2.6535109480690760E-007
  -1.9150000000000000E-002     2.7138004863384407E-007
  -1.9099999999999999E-002     2.7755362008419740E-007
  -1.9050000000000001E-002     2.8386810643911233E-007
  -1.9000000000000000E-002     2.9031948119577615E-007
  -1.8949999999999998E-002     2.9690559668450050E-007
  -1.8900000000000000E-002     3.0362781515958931E-007
  -1.8849999999999999E-002     3.1049122739744647E-007
  -1.8800000000000001E-002     3.1750351986189900E-007
  -1.8749999999999999E-002     3.2467288634817887E-007
  -1.8700000000000001E-002     3.3200542506768063E-007
  -1.8650000000000000E-002     3.3950342978304092E-007
  -1.8599999999999998E-002     3.4716494731073599E-007
  -1.8550000000000001E-002     3.5498514432742799E-007
  -1.8499999999999999E-002     3.6295893611973411E-007
  -1.8450000000000001E-002     3.7108395088319908E-007
  -1.8400000000000000E-002     3.7936241421781510E-007
  -1.8349999999999998E-002     3.8780108515807830E-007
  -1.8300000000000000E-002     3.9640932491539790E-007
  -1.8249999999999999E-002     4.0519553671078331E-007
  -1.8200000000000001E-002     4.1416394252091494E-007
  -1.8149999999999999E-002     4.2331313510519190E-007
  -1.8100000000000002E-002     4.3263702556676695E-007
  -1.8050000000000000E-002     4.4212854450427065E-007
  -1.7999999999999999E-002     4.5178413492942988E-007
  -1.7950000000000001E-002     4.6160737286228887E-007
  -1.7899999999999999E-002     4.7160954724169225E-007
  -1.7850000000000001E-002     4.8180715817113614E-007
  -1.7800000000000000E-002     4.9221646662136001E-007
  -1.7749999999999998E-002     5.0284780015650188E-007
  -1.7700000000000000E-002     5.1370172812339044E-007
  -1.7649999999999999E-002     5.2476899842868403E-007
  -1.7600000000000001E-002     5.3603459698950427E-007
  -1.7550000000000000E-002     5.4748426418907039E-007
  -1.7499999999999998E-002     5.5911090640806494E-007
  -1.7450000000000000E-002     5.7091765045819673E-007
  -1.7399999999999999E-002     5.8291738815053314E-007
  -1.7350000000000001E-002     5.9512735542995630E-007
  -1.7299999999999999E-002     6.0756274423581426E-007
  -1.7250000000000001E-002     6.2023067018050239E-007
  -1.7200000000000000E-002     6.3312855674754571E-007
  -1.7149999999999999E-002     6.4624633739446738E-007
  -1.7100000000000001E-002     6.5957277809202943E-007
  -1.7049999999999999E-002     6.7310205667333254E-007
  -1.7000000000000001E-002     6.8683870959128792E-007
  -1.6950000000000000E-002     7.0079775345772340E-007
  -1.6899999999999998E-002     7.1500057691514086E-007
  -1.6850000000000000E-002     7.2946815347133842E-007
  -1.6799999999999999E-002     7.4421418329859785E-007
  -1.6750000000000001E-002     7.5924128490024537E-007
  -1.6700000000000000E-002     7.7454178034540553E-007
  -1.6649999999999998E-002     7.9010315903414727E-007
  -1.6600000000000000E-002     8.0591475276995287E-007
  -1.6549999999999999E-002     8.2197414320978617E-007
  -1.6500000000000001E-002     8.3828978317401104E-007
  -1.6449999999999999E-002     8.5487878744644172E-007
  -1.6400000000000001E-002     8.7176150189033566E-007
  -1.6350000000000000E-002     8.8895435309948846E-007
  -1.6299999999999999E-002     9.0646484334080855E-007
  -1.6250000000000001E-002     9.2428969376286114E-007
  -1.6199999999999999E-002     9.4241756551160298E-007
  -1.6150000000000001E-002     9.6083545475852546E-007
  -1.6100000000000000E-002     9.7953482613548336E-007
  -1.6049999999999998E-002     9.9851676978212185E-007
  -1.6000000000000000E-002     1.0177926190594687E-006
  -1.5949999999999999E-002     1.0373805758679521E-006
  -1.5900000000000001E-002     1.0572996950603251E-006
  -1.5850000000000000E-002     1.0775628214968947E-006
  -1.5799999999999998E-002     1.0981722745805389E-006
  -1.5750000000000000E-002     1.1191190315685053E-006
  -1.5699999999999999E-002     1.1403861478952613E-006
  -1.5650000000000001E-002     1.1619557676899564E-006
  -1.5599999999999999E-002     1.1838160285910381E-006
  -1.5550000000000001E-002     1.2059652237018525E-006
  -1.5500000000000000E-002     1.2284131494829830E-006
  -1.5449999999999998E-002     1.2511769174127587E-006
  -1.5400000000000000E-002     1.2742746398404475E-006
  -1.5349999999999999E-002     1.2977189578751425E-006
  -1.5300000000000001E-002     1.3215128005726737E-006
  -1.5250000000000000E-002     1.3456501971338038E-006
  -1.5199999999999998E-002     1.3701202819273401E-006
  -1.5150000000000000E-002     1.3949139034549250E-006
  -1.5099999999999999E-002     1.4200295211734772E-006
  -1.5050000000000001E-002     1.4454762840071662E-006
  -1.4999999999999999E-002     1.4712718928657137E-006
  -1.4949999999999998E-002     1.4974372176213136E-006
  -1.4900000000000000E-002     1.5239894521602845E-006
  -1.4849999999999999E-002     1.5509360981265837E-006
  -1.4800000000000001E-002     1.5782734155058388E-006
  -1.4749999999999999E-002     1.6059898737163192E-006
  -1.4700000000000001E-002     1.6340718898147976E-006
  -1.4650000000000000E-002     1.6625114360646101E-006
  -1.4599999999999998E-002     1.6913102709468782E-006
  -1.4550000000000000E-002     1.7204805366762529E-006
  -1.4499999999999999E-002     1.7500410909565288E-006
  -1.4450000000000001E-002     1.7800104521125437E-006
  -1.4400000000000000E-002     1.8104008520933470E-006
  -1.4349999999999998E-002     1.8412146583051087E-006
  -1.4300000000000000E-002     1.8724445310133653E-006
  -1.4249999999999999E-002     1.9040775466488304E-006
  -1.4200000000000001E-002     1.9361009768409963E-006
  -1.4149999999999999E-002     1.9685077313879039E-006
  -1.4099999999999998E-002     2.0012985516382564E-006
  -1.4050000000000000E-002     2.0344805214868802E-006
  -1.3999999999999999E-002     2.0680647264131055E-006
  -1.3950000000000001E-002     2.1020607976631113E-006
  -1.3899999999999999E-002     2.1364736675902770E-006
  -1.3850000000000001E-002     2.1713013801297140E-006
  -1.3800000000000000E-002     2.2065371813255394E-006
  -1.3749999999999998E-002     2.2421716383288971E-006
  -1.3700000000000000E-002     2.2781962289183039E-006
  -1.3649999999999999E-002     2.3146055138725352E-006
  -1.3600000000000001E-002     2.3513979312970945E-006
  -1.3550000000000000E-002     2.3885763433632481E-006
  -1.3499999999999998E-002     2.4261448421972589E-006
  -1.3450000000000000E-002     2.4641082101782977E-006
  -1.3399999999999999E-002     2.5024688553370644E-006
  -1.3350000000000001E-002     2.5412267856783578E-006
  -1.3299999999999999E-002     2.5803788947132396E-006
  -1.3249999999999998E-002     2.6199201414655050E-006
  -1.3200000000000000E-002     2.6598450188352193E-006
  -1.3149999999999998E-002     2.7001479233349525E-006
  -1.3100000000000001E-002     2.7408259018808210E-006
  -1.3049999999999999E-002     2.7818790162407646E-006
  -1.3000000000000001E-002     2.8233107548952414E-006
  -1.2950000000000000E-002     2.8651271099749627E-006
  -1.2899999999999998E-002     2.9073345003141708E-006
  -1.2850000000000000E-002     2.9499379304399291E-006
  -1.2799999999999999E-002     2.9929389191123860E-006