  -4.0000000000000001E-002     0.0000000000000000     
  -3.9949999999999999E-002     0.0000000000000000     
  -3.9899999999999998E-002     0.0000000000000000     
  -3.9850000000000003E-002     0.0000000000000000     
  -3.9800000000000002E-002     0.0000000000000000     
  -3.9750000000000001E-002     0.0000000000000000     
  -3.9699999999999999E-002     0.0000000000000000     
  -3.9649999999999998E-002     0.0000000000000000     
  -3.9600000000000003E-002     0.0000000000000000     
  -3.9550000000000002E-002     0.0000000000000000     
  -3.9500000000000000E-002     0.0000000000000000     
  -3.9449999999999999E-002     0.0000000000000000     
  -3.9399999999999998E-002     0.0000000000000000     
  -3.9350000000000003E-002     0.0000000000000000     
  -3.9300000000000002E-002     0.0000000000000000     
  -3.9250000000000000E-002     0.0000000000000000     
  -3.9199999999999999E-002     0.0000000000000000     
  -3.9150000000000004E-002     0.0000000000000000     
  -3.9100000000000003E-002     0.0000000000000000     
  -3.9050000000000001E-002     0.0000000000000000     
  -3.9000000000000000E-002     0.0000000000000000     
  -3.8949999999999999E-002     0.0000000000000000     
  -3.8900000000000004E-002     0.0000000000000000     
  -3.8850000000000003E-002     0.0000000000000000     
  -3.8800000000000001E-002     0.0000000000000000     
  -3.8750000000000000E-002     0.0000000000000000     
  -3.8699999999999998E-002     0.0000000000000000     
  -3.8650000000000004E-002     0.0000000000000000     
  -3.8600000000000002E-002     0.0000000000000000     
  -3.8550000000000001E-002     0.0000000000000000     
  -3.8500000000000000E-002     0.0000000000000000     
  -3.8449999999999998E-002     0.0000000000000000     
  -3.8400000000000004E-002     0.0000000000000000     
  -3.8350000000000002E-002     0.0000000000000000     
  -3.8300000000000001E-002     0.0000000000000000     
  -3.8249999999999999E-002     0.0000000000000000     
  -3.8199999999999998E-002    -2.7318211297047080E-040
  -3.8150000000000003E-002     0.0000000000000000     
  -3.8100000000000002E-002     2.4238063126165295E-039
  -3.8050000000000000E-002     1.0005566953541935E-038
  -3.7999999999999999E-002     2.4139802254377838E-038
  -3.7949999999999998E-002     3.1467821492539467E-038
  -3.7900000000000003E-002    -2.2894411060275765E-038
  -3.7850000000000002E-002    -2.5088530890390928E-037
  -3.7800000000000000E-002    -7.4731704698912725E-037
  -3.7749999999999999E-002    -1.4368423541376102E-036
  -3.7699999999999997E-002    -1.6521161704634100E-036
  -3.7650000000000003E-002     2.8565462150528493E-037
  -3.7600000000000001E-002     7.1555351549555143E-036
  -3.7550000000000000E-002     2.1354463108140105E-035
  -3.7499999999999999E-002     4.0600058274218176E-035
  -3.7449999999999997E-002     5.0661142314609852E-035
  -3.7400000000000003E-002     1.8573175284829937E-035
  -3.7350000000000001E-002    -1.0428792032195382E-034
  -3.7300000000000000E-002    -3.5501029676955131E-034
  -3.7249999999999998E-002    -6.9725895883987092E-034
  -3.7200000000000004E-002    -9.3563238819671846E-034
  -3.7150000000000002E-002    -6.5918531544894151E-034
  -3.7100000000000001E-002     6.8679871500491539E-034
  -3.7050000000000000E-002     3.4941102097193072E-033
  -3.6999999999999998E-002     7.4310796966151561E-033
  -3.6950000000000004E-002     1.0819809626991558E-032
  -3.6900000000000002E-002     1.0410333775204877E-032
  -3.6850000000000001E-002     2.1397918164174048E-033
  -3.6799999999999999E-002    -1.6808149709144635E-032
  -3.6749999999999998E-002    -4.5128233600465223E-032
  -3.6700000000000003E-002    -7.5221327376467399E-032
  -3.6650000000000002E-002    -9.3679610793073507E-032
  -3.6600000000000001E-002    -8.5210546436933490E-032
  -3.6549999999999999E-002    -3.7776411931418559E-032
  -3.6499999999999998E-002     5.6367130414498819E-032
  -3.6450000000000003E-002     2.0828642301125745E-031
  -3.6400000000000002E-002     4.4448685279940541E-031
  -3.6350000000000000E-002     8.0327193317074899E-031
  -3.6299999999999999E-002     1.2820110419833519E-030
  -3.6249999999999998E-002     1.7128332341021133E-030
  -3.6200000000000003E-002     1.6000965931340368E-030
  -3.6150000000000002E-002     5.2346415855635190E-032
  -3.6100000000000000E-002    -3.9652309422022944E-030
  -3.6049999999999999E-002    -1.0848391705930353E-029
  -3.6000000000000004E-002    -1.9075922694923631E-029
  -3.5950000000000003E-002    -2.3976478196629141E-029
  -3.5900000000000001E-002    -1.7679173109004015E-029
  -3.5850000000000000E-002     8.3511116608920508E-030
  -3.5799999999999998E-002     5.7441839807983623E-029
  -3.5750000000000004E-002     1.1968020202804565E-028
  -3.5700000000000003E-002     1.6576351207019598E-028
  -3.5650000000000001E-002     1.4917804462341255E-028
  -3.5600000000000000E-002     2.2800809744721938E-029
  -3.5549999999999998E-002    -2.2920840239408634E-028
  -3.5500000000000004E-002    -5.5365698658065986E-028
  -3.5450000000000002E-002    -8.0609789056367845E-028
  -3.5400000000000001E-002    -7.7183390265373172E-028
  -3.5349999999999999E-002    -2.4972571316210927E-028
  -3.5299999999999998E-002     8.0922431771870724E-028
  -3.5250000000000004E-002     2.1587638407600595E-027
  -3.5200000000000002E-002     3.1985826236448495E-027
  -3.5150000000000001E-002     3.0954464481775094E-027
  -3.5099999999999999E-002     1.1295777456162051E-027
  -3.5049999999999998E-002    -2.7999819548456727E-027
  -3.5000000000000003E-002    -7.7170813411921336E-027
  -3.4950000000000002E-002    -1.1460547716764808E-026
  -3.4900000000000000E-002    -1.1199518146535563E-026
  -3.4849999999999999E-002    -4.6329489792869062E-027
  -3.4799999999999998E-002     8.4309527235339931E-027
  -3.4750000000000003E-002     2.4801693642803880E-026
  -3.4700000000000002E-002     3.7808348880873731E-026
  -3.4650000000000000E-002     3.9020717521592329E-026
  -3.4599999999999999E-002     2.1736651921903183E-026
  -3.4549999999999997E-002    -1.4810469183280218E-026
  -3.4500000000000003E-002    -6.2427793577839815E-026
  -3.4450000000000001E-002    -1.0420370316379431E-025
  -3.4400000000000000E-002    -1.1920080037357198E-025
  -3.4349999999999999E-002    -9.0880777302885701E-026
  -3.4299999999999997E-002    -1.6276026502835961E-026
  -3.4250000000000003E-002     8.8566419652874758E-026
  -3.4200000000000001E-002     1.9091477227214403E-025
  -3.4150000000000000E-002     2.5265196619634107E-025
  -3.4099999999999998E-002     2.4715575259351026E-025
  -3.4049999999999997E-002     1.7401082533709856E-025
  -3.4000000000000002E-002     6.2293766541056026E-026
  -3.3950000000000001E-002    -4.3445452740710478E-026
  -3.3900000000000000E-002    -1.1204719123378919E-025
  -3.3849999999999998E-002    -1.5649591458798795E-025
  -3.3799999999999997E-002    -2.4619561526886437E-025
  -3.3750000000000002E-002    -4.8185082810830929E-025
  -3.3700000000000001E-002    -9.2767459411180459E-025
  -3.3649999999999999E-002    -1.5194319076305543E-024
  -3.3599999999999998E-002    -1.9921863447598074E-024
  -3.3550000000000003E-002    -1.8852164994290205E-024
  -3.3500000000000002E-002    -6.7033074104669190E-025
  -3.3450000000000001E-002     1.9922068785545210E-024
  -3.3399999999999999E-002     5.9315168695762271E-024
  -3.3349999999999998E-002     1.0206059199474114E-023
  -3.3300000000000003E-002     1.3070020206945768E-023
  -3.3250000000000002E-002     1.2304318974360345E-023
  -3.3200000000000000E-002     5.9475955215686096E-024
  -3.3149999999999999E-002    -6.7021391621856222E-024
  -3.3099999999999997E-002    -2.4122414377592698E-023
  -3.3050000000000003E-002    -4.2063540833807472E-023
  -3.3000000000000002E-002    -5.3919648034748489E-023
  -3.2950000000000000E-002    -5.2195338712559995E-023
  -3.2899999999999999E-002    -3.0940832900808703E-023
  -3.2850000000000004E-002     1.1393146790201914E-023
  -3.2800000000000003E-002     6.9581341320699417E-023
  -3.2750000000000001E-002     1.3075720313113015E-022
  -3.2700000000000000E-002     1.7586759288565342E-022
  -3.2649999999999998E-002     1.8370084364583296E-022
  -3.2600000000000004E-002     1.3694356528356593E-022
  -3.2550000000000003E-002     2.8916209650994323E-023
  -3.2500000000000001E-002    -1.3090288237281257E-022
  -3.2450000000000000E-002    -3.1450889336596201E-022
  -3.2399999999999998E-002    -4.7758002663821311E-022
  -3.2350000000000004E-002    -5.6669309525383894E-022
  -3.2300000000000002E-002    -5.3076251703670470E-022
  -3.2250000000000001E-002    -3.3482455693893649E-022
  -3.2199999999999999E-002     2.6429138612834982E-023
  -3.2149999999999998E-002     5.1820027964943732E-022
  -3.2100000000000004E-002     1.0608928598467544E-021
  -3.2050000000000002E-002     1.5335039298900896E-021
  -3.2000000000000001E-002     1.7869754097981849E-021
  -3.1949999999999999E-002     1.6687310666521292E-021
  -3.1899999999999998E-002     1.0583266179769466E-021
  -3.1850000000000003E-002    -8.8368347944328979E-023
  -3.1800000000000002E-002    -1.6930745914556463E-021
  -3.1750000000000000E-002    -3.5188700199180164E-021
  -3.1699999999999999E-002    -5.1603437951020978E-021
  -3.1649999999999998E-002    -6.0784119284575375E-021
  -3.1600000000000003E-002    -5.6937948232620613E-021
  -3.1550000000000002E-002    -3.5406564591873906E-021
  -3.1500000000000000E-002     5.3863159234515032E-022
  -3.1449999999999999E-002     6.2015056622644333E-021
  -3.1399999999999997E-002     1.2481492120063323E-020
  -3.1350000000000003E-002     1.7806538874466078E-020
  -3.1300000000000001E-002     2.0218653468362729E-020
  -3.1250000000000000E-002     1.7811783587905526E-020
  -3.1199999999999999E-002     9.3382588857473923E-021
  -3.1150000000000001E-002    -5.1430224255750768E-021
  -3.1100000000000003E-002    -2.3767978632066250E-020
  -3.1050000000000001E-002    -4.2734422950925141E-020
  -3.1000000000000000E-002    -5.6713265967426521E-020
  -3.0949999999999998E-002    -5.9872986321167988E-020
  -3.0900000000000000E-002    -4.7417907519748502E-020
  -3.0850000000000002E-002    -1.7348467085280142E-020
  -3.0800000000000001E-002     2.8010427327145456E-020
  -3.0750000000000000E-002     8.1239096190132083E-020
  -3.0699999999999998E-002     1.3027161548324461E-019
  -3.0650000000000000E-002     1.6030354728493462E-019
  -3.0600000000000002E-002     1.5704793941167971E-019
  -3.0550000000000001E-002     1.1081598039289091E-019
  -3.0499999999999999E-002     2.0527022936266038E-020
  -3.0449999999999998E-002    -1.0346436152077948E-019
  -3.0400000000000000E-002    -2.3880486084649314E-019
  -3.0350000000000002E-002    -3.5359505669970605E-019
  -3.0300000000000001E-002    -4.1200893859832046E-019
  -3.0249999999999999E-002    -3.8245105757011074E-019
  -3.0200000000000001E-002    -2.4682219188678063E-019
  -3.0150000000000000E-002    -8.8379056664713803E-021
  -3.0100000000000002E-002     3.0092329895651276E-019
  -3.0050000000000000E-002     6.2533111709545857E-019
  -2.9999999999999999E-002     8.8767607794814152E-019
  -2.9950000000000001E-002     1.0053213714498235E-018
  -2.9899999999999999E-002     9.0845223414612105E-019
  -2.9850000000000002E-002     5.6071400399250067E-019
  -2.9800000000000000E-002    -2.2755279881281943E-020
  -2.9749999999999999E-002    -7.6495598655132911E-019
  -2.9700000000000001E-002    -1.5288951250114299E-018
  -2.9650000000000003E-002    -2.1345580858836429E-018
  -2.9600000000000001E-002    -2.3909848431328275E-018
  -2.9550000000000000E-002    -2.1397851992996857E-018
  -2.9499999999999998E-002    -1.3026106880779473E-018
  -2.9450000000000000E-002     7.7940632280330648E-020
  -2.9400000000000003E-002     1.8158331895374146E-018
  -2.9350000000000001E-002     3.5880928151281008E-018
  -2.9300000000000000E-002     4.9766081326627424E-018
  -2.9249999999999998E-002     5.5444978940980361E-018
  -2.9200000000000000E-002     4.9374897036397710E-018
  -2.9150000000000002E-002     2.9919372071205281E-018
  -2.9100000000000001E-002    -1.7546562483901111E-019
  -2.9049999999999999E-002    -4.1232365101625711E-018
  -2.8999999999999998E-002    -8.1086192751910346E-018
  -2.8950000000000000E-002    -1.1190675358929183E-017
  -2.8900000000000002E-002    -1.2407718466579661E-017
  -2.8850000000000001E-002    -1.1004102853687819E-017
  -2.8799999999999999E-002    -6.6629744442542228E-018
  -2.8749999999999998E-002     3.1042839555864129E-019
  -2.8700000000000000E-002     8.9115158617190333E-018
  -2.8650000000000002E-002     1.7509088146125588E-017
  -2.8600000000000000E-002     2.4085681394373343E-017
  -2.8549999999999999E-002     2.6626317900364521E-017
  -2.8500000000000001E-002     2.3596124832425938E-017
  -2.8450000000000000E-002     1.4412402716463397E-017
  -2.8400000000000002E-002    -2.0288760832931292E-019
  -2.8350000000000000E-002    -1.8100531910977965E-017
  -2.8299999999999999E-002    -3.5890584457206907E-017
  -2.8250000000000001E-002    -4.9460604914221209E-017
  -2.8200000000000003E-002    -5.4774276283048792E-017
  -2.8150000000000001E-002    -4.8822107468252700E-017
  -2.8100000000000000E-002    -3.0533589559644236E-017
  -2.8049999999999999E-002    -1.4303528335316393E-018
  -2.8000000000000001E-002     3.4184218903047533E-017
  -2.7950000000000003E-002     6.9636299827668685E-017
  -2.7900000000000001E-002     9.6919068204903734E-017
  -2.7850000000000000E-002     1.0824151534591167E-016
  -2.7799999999999998E-002     9.7834069324638021E-017
  -2.7750000000000000E-002     6.3648567810306506E-017
  -2.7700000000000002E-002     8.5457387241862601E-018
  -2.7650000000000001E-002    -5.9396018176542979E-017
  -2.7600000000000000E-002    -1.2768517951026804E-016
  -2.7549999999999998E-002    -1.8136054937939260E-016
  -2.7500000000000000E-002    -2.0584681869608628E-016
  -2.7450000000000002E-002    -1.9024971128698216E-016
  -2.7400000000000001E-002    -1.3043553248098438E-016
  -2.7349999999999999E-002    -3.1172695190249934E-017
  -2.7299999999999998E-002     9.3304268798409969E-017
  -2.7250000000000000E-002     2.2070845669364075E-016
  -2.7200000000000002E-002     3.2412348930648639E-016
  -2.7150000000000001E-002     3.7702995804709076E-016
  -2.7099999999999999E-002     3.5911009190937596E-016
  -2.7049999999999998E-002     2.6169802840914302E-016
  -2.7000000000000000E-002     9.1634730716968864E-017
  -2.6950000000000002E-002    -1.2756956844972961E-016
  -2.6900000000000000E-002    -3.5795657892531095E-016
  -2.6849999999999999E-002    -5.5279692955917042E-016
  -2.6800000000000001E-002    -6.6506414692203499E-016
  -2.6749999999999999E-002    -6.5734394124559030E-016
  -2.6700000000000002E-002    -5.1129800415774574E-016
  -2.6650000000000000E-002    -2.3460567006784743E-016
  -2.6599999999999999E-002     1.3647961178080811E-016
  -2.6550000000000001E-002     5.4017790737432165E-016
  -2.6500000000000003E-002     8.9805867254286560E-016
  -2.6450000000000001E-002     1.1287761877452536E-015
  -2.6400000000000000E-002     1.1645319817680253E-015
  -2.6349999999999998E-002     9.6723933355185376E-016
  -2.6300000000000000E-002     5.4097897531382204E-016
  -2.6250000000000002E-002    -6.2402613690945193E-017
  -2.6200000000000001E-002    -7.4673733347306147E-016
  -2.6150000000000000E-002    -1.3846530612512024E-015
  -2.6099999999999998E-002    -1.8390806354689350E-015
  -2.6050000000000000E-002    -1.9899400585828762E-015
  -2.6000000000000002E-002    -1.7612556878082041E-015
  -2.5950000000000001E-002    -1.1431696556505902E-015
  -2.5899999999999999E-002    -2.0357844244461933E-016
  -2.5849999999999998E-002     9.1449461131379849E-016
  -2.5800000000000000E-002     2.0112889387188842E-015
  -2.5750000000000002E-002     2.8629108576944349E-015
  -2.5700000000000001E-002     3.2634508978972747E-015
  -2.5649999999999999E-002     3.0692898797347138E-015
  -2.5599999999999998E-002     2.2368001962404265E-015
  -2.5550000000000000E-002     8.4481148883122422E-016
  -2.5500000000000002E-002    -9.0482271365240892E-016
  -2.5450000000000000E-002    -2.7115868378759819E-015
  -2.5399999999999999E-002    -4.2238864364795496E-015
  -2.5349999999999998E-002    -5.1031393862272708E-015
  -2.5300000000000000E-002    -5.0934035231773783E-015
  -2.5250000000000002E-002    -4.0830559047068069E-015
  -2.5200000000000000E-002    -2.1450123289590062E-015
  -2.5149999999999999E-002     4.5526404659192001E-016
  -2.5100000000000001E-002     3.2893970186864404E-015
  -2.5049999999999999E-002     5.8317647409552623E-015
  -2.5000000000000001E-002     7.5520838162851155E-015
  -2.4950000000000000E-002     8.0193472530579019E-015
  -2.4899999999999999E-002     6.9975977133629696E-015
  -2.4850000000000001E-002     4.5136238074007840E-015
  -2.4800000000000003E-002     8.8026626228038022E-016
  -2.4750000000000001E-002    -3.3337587334815289E-015
  -2.4700000000000000E-002    -7.3869028579556414E-015
  -2.4649999999999998E-002    -1.0489628415473542E-014
  -2.4600000000000000E-002    -1.1950815482838696E-014
  -2.4550000000000002E-002    -1.1319509965043176E-014
  -2.4500000000000001E-002    -8.4944303614538480E-015
  -2.4450000000000000E-002    -3.7774731378330887E-015
  -2.4399999999999998E-002     2.1438793049438416E-015
  -2.4350000000000000E-002     8.2881897889929302E-015
  -2.4299999999999999E-002     1.3535058138852988E-014
  -2.4250000000000001E-002     1.6820167833118658E-014
  -2.4199999999999999E-002     1.7337803448658300E-014
  -2.4150000000000001E-002     1.4714249230834635E-014
  -2.4100000000000000E-002     9.1177526360461304E-015
  -2.4049999999999998E-002     1.2793994724480400E-015
  -2.4000000000000000E-002    -7.5869163695272677E-015
  -2.3949999999999999E-002    -1.5960076851004825E-014
  -2.3900000000000001E-002    -2.2259927883979748E-014
  -2.3850000000000000E-002    -2.5129986093177712E-014
  -2.3800000000000002E-002    -2.3706786309172391E-014
  -2.3750000000000000E-002    -1.7825757170883912E-014
  -2.3699999999999999E-002    -8.1199691080895259E-015
  -2.3650000000000001E-002     4.0169364817650865E-015
  -2.3599999999999999E-002     1.6610620045720204E-014
  -2.3550000000000001E-002     2.7410324871725785E-014
  -2.3500000000000000E-002     3.4274362115181340E-014
  -2.3449999999999999E-002     3.5574004678459423E-014
  -2.3400000000000001E-002     3.0542821209766122E-014
  -2.3349999999999999E-002     1.9500963475956229E-014
  -2.3300000000000001E-002     3.8999412825124910E-015
  -2.3250000000000000E-002    -1.3838402776822375E-014
  -2.3199999999999998E-002    -3.0678644492903871E-014
  -2.3150000000000000E-002    -4.3476047320162461E-014
  -2.3099999999999999E-002    -4.9547269781742420E-014
  -2.3050000000000001E-002    -4.7206106060584526E-014
  -2.3000000000000000E-002    -3.6160138913390079E-014
  -2.2950000000000002E-002    -1.7681670410886248E-014
  -2.2900000000000000E-002     5.4980881362429479E-015
  -2.2849999999999999E-002     2.9573879388040133E-014
  -2.2800000000000001E-002     5.0279804620902964E-014
  -2.2749999999999999E-002     6.3633637215463571E-014
  -2.2700000000000001E-002     6.6682849284744201E-014
  -2.2650000000000000E-002     5.8114200525583859E-014
  -2.2599999999999999E-002     3.8605510433642639E-014
  -2.2550000000000001E-002     1.0838912652552432E-014
  -2.2499999999999999E-002    -2.0847307071513870E-014
  -2.2450000000000001E-002    -5.1126141379568300E-014
  -2.2400000000000000E-002    -7.4566277883819197E-014
  -2.2349999999999998E-002    -8.6587174687977060E-014
  -2.2300000000000000E-002    -8.4318927575562810E-014
  -2.2249999999999999E-002    -6.7210248435594658E-014
  -2.2200000000000001E-002    -3.7265186807295800E-014
  -2.2150000000000000E-002     1.1517338480821549E-015
  -2.2100000000000002E-002     4.1930568653850734E-014
  -2.2050000000000000E-002     7.8167373329045138E-014
  -2.1999999999999999E-002     1.0330716313121081E-013
  -2.1950000000000001E-002     1.1229407240589983E-013
  -2.1899999999999999E-002     1.0253355502049461E-013
  -2.1850000000000001E-002     7.4492453099820692E-014
  -2.1800000000000000E-002     3.1813142410128136E-014
  -2.1749999999999999E-002    -1.9108026964125372E-014
  -2.1700000000000001E-002    -7.0041153755086310E-014
  -2.1649999999999999E-002    -1.1221851304306217E-013
  -2.1600000000000001E-002    -1.3780977018842648E-013
  -2.1550000000000000E-002    -1.4133590085029082E-013
  -2.1499999999999998E-002    -1.2077342463500328E-013
  -2.1450000000000000E-002    -7.8135245874464392E-014
  -2.1399999999999999E-002    -1.9388734831150862E-014
  -2.1350000000000001E-002     4.6322446253792103E-014
  -2.1299999999999999E-002     1.0806592431147941E-013
  -2.1250000000000002E-002     1.5491562913940407E-013
  -2.1200000000000000E-002     1.7786412123200442E-013
  -2.1149999999999999E-002     1.7151984801735601E-013
  -2.1100000000000001E-002     1.3527211091994480E-013
  -2.1049999999999999E-002     7.3681394624067228E-014
  -2.1000000000000001E-002    -4.0226131314902840E-015
  -2.0950000000000000E-002    -8.5298124068388368E-014
  -2.0899999999999998E-002    -1.5630885330433720E-013
  -2.0850000000000000E-002    -2.0427678196566282E-013
  -2.0799999999999999E-002    -2.1976721516813265E-013
  -2.0750000000000001E-002    -1.9849587249373610E-013
  -2.0700000000000000E-002    -1.4231568786026932E-013
  -2.0649999999999998E-002    -5.9173234735844555E-014
  -2.0600000000000000E-002     3.7999210594222609E-014
  -2.0549999999999999E-002     1.3330256648829506E-013
  -2.0500000000000001E-002     2.1048159721048428E-013
  -2.0449999999999999E-002     2.5569463857221297E-013
  -2.0400000000000001E-002     2.5996901211849443E-013
  -2.0350000000000000E-002     2.2091020684420293E-013
  -2.0299999999999999E-002     1.4334857022329240E-013
  -2.0250000000000001E-002     3.8780929985550829E-014
  -2.0199999999999999E-002    -7.6336018151888469E-014
  -2.0150000000000001E-002    -1.8318775109064255E-013
  -2.0100000000000000E-002    -2.6368936511587447E-013
  -2.0049999999999998E-002    -3.0355465767240266E-013
  -2.0000000000000000E-002    -2.9483000401607109E-013
  -1.9949999999999999E-002    -2.3744835919001323E-013
  -1.9900000000000001E-002    -1.3950576849627879E-013
  -1.9850000000000000E-002    -1.6165914359112872E-014
  -1.9799999999999998E-002     1.1267492208304479E-013
  -1.9750000000000000E-002     2.2561515038100505E-013
  -1.9699999999999999E-002     3.0335274339083149E-013
  -1.9650000000000001E-002     3.3206453828363155E-013
  -1.9599999999999999E-002     3.0596765833742624E-013
  -1.9550000000000001E-002     2.2858362892996305E-013
  -1.9500000000000000E-002     1.1242942473666861E-013
  -1.9449999999999999E-002    -2.2877482184084881E-014
  -1.9400000000000001E-002    -1.5383441146244332E-013
  -1.9349999999999999E-002    -2.5707729249963108E-013
  -1.9300000000000001E-002    -3.1353545885712364E-013
  -1.9250000000000000E-002    -3.1198788192001504E-013
  -1.9199999999999998E-002    -2.5136876881653227E-013
  -1.9150000000000000E-002    -1.4136732046076975E-013
  -1.9099999999999999E-002    -1.1524459942295029E-015
  -1.9050000000000001E-002     1.4362200332044585E-013
  -1.9000000000000000E-002     2.6507155911638670E-013
  -1.8949999999999998E-002     3.3790359552124265E-013
  -1.8900000000000000E-002     3.4400213981058739E-013
  -1.8849999999999999E-002     2.7599168748315299E-013
  -1.8800000000000001E-002     1.3915158002178721E-013
  -1.8749999999999999E-002    -4.8686906253231072E-014
  -1.8700000000000001E-002    -2.5930720025895199E-013
  -1.8650000000000000E-002    -4.5805442762939207E-013
  -1.8599999999999998E-002    -6.0899392023854448E-013
  -1.8550000000000001E-002    -6.8051413922618484E-013
  -1.8499999999999999E-002    -6.5052378780025011E-013
  -1.8450000000000001E-002    -5.1043616629920158E-013
  -1.8400000000000000E-002    -2.6729718037153214E-013
  -1.8349999999999998E-002     5.6325733208768318E-014
  -1.8300000000000000E-002     4.2475105771853375E-013
  -1.8249999999999999E-002     7.9360117497241288E-013
  -1.8200000000000001E-002     1.1156284684472110E-012
  -1.8149999999999999E-002     1.3471071506099402E-012
  -1.8100000000000002E-002     1.4538312985265446E-012
  -1.8050000000000000E-002     1.4157871080834056E-012
  -1.7999999999999999E-002     1.2297535123024970E-012
  -1.7950000000000001E-002     9.0941478515692993E-013
  -1.7899999999999999E-002     4.8298517050023217E-013
  -1.7850000000000001E-002    -1.1204990900431096E-014
  -1.7800000000000000E-002    -5.3032965012001553E-013
  -1.7749999999999998E-002    -1.0328161984908387E-012
  -1.7700000000000000E-002    -1.4831043467181606E-012
  -1.7649999999999999E-002    -1.8544878717652291E-012
  -1.7600000000000001E-002    -2.1295071407467758E-012
  -1.7550000000000000E-002    -2.2978982255505007E-012
  -1.7499999999999998E-002    -2.3526725979807602E-012
  -1.7450000000000000E-002    -2.2853861742088527E-012
  -1.7399999999999999E-002    -2.0819352814287354E-012
  -1.7350000000000001E-002    -1.7202331307638135E-012
  -1.7299999999999999E-002    -1.1708398832546537E-012
  -1.7250000000000001E-002    -4.0109916789788735E-013
  -1.7200000000000000E-002     6.1734420639032432E-013
  -1.7149999999999999E-002     1.8984328177030234E-012
  -1.7100000000000001E-002     3.4303664609893009E-012
  -1.7049999999999999E-002     5.1647385491963101E-012
  -1.7000000000000001E-002     7.0078667416782446E-012
  -1.6950000000000000E-002     8.8157924577549743E-012
  -1.6899999999999998E-002     1.0393917516764093E-011
  -1.6850000000000000E-002     1.1501598273137511E-011
  -1.6799999999999999E-002     1.1861375686558212E-011
  -1.6750000000000001E-002     1.1171883242630769E-011
  -1.6700000000000000E-002     9.1230771568372333E-012
  -1.6649999999999998E-002     5.4122205686592830E-012
  -1.6600000000000000E-002    -2.4101203789483048E-013
  -1.6549999999999999E-002    -8.0816857180184624E-012
  -1.6500000000000001E-002    -1.8310147904001671E-011
  -1.6449999999999999E-002    -3.1076556180092289E-011
  -1.6400000000000001E-002    -4.6479623590475151E-011
  -1.6350000000000000E-002    -6.4569285838808921E-011
  -1.6299999999999999E-002    -8.5352534682279504E-011
  -1.6250000000000001E-002    -1.0880149150681350E-010
  -1.6199999999999999E-002    -1.3486227425534719E-010
  -1.6150000000000001E-002    -1.6346358910304095E-010
  -1.6100000000000000E-002    -1.9452383809390477E-010
  -1.6049999999999998E-002    -2.2795584659955752E-010
  -1.6000000000000000E-002    -2.6366912775875044E-010
  -1.5949999999999999E-002    -3.0156962984378118E-010
  -1.5900000000000001E-002    -3.4155794293487562E-010
  -1.5850000000000000E-002    -3.8352693761383088E-010
  -1.5799999999999998E-002    -4.2736027360382867E-010
  -1.5750000000000000E-002    -4.7293294527448017E-010
  -1.5699999999999999E-002    -5.2011455077229592E-010
  -1.5650000000000001E-002    -5.6877550289083245E-010
  -1.5599999999999999E-002    -6.1879598245571752E-010
  -1.5550000000000001E-002    -6.7007591779492410E-010
  -1.5500000000000000E-002    -7.2254511897844717E-010
  -1.5449999999999998E-002    -7.7617046605466327E-010
  -1.5400000000000000E-002    -8.3095991046722181E-010
  -1.5349999999999999E-002    -8.8696124506018118E-010
  -1.5300000000000001E-002    -9.4425543508450047E-010
  -1.5250000000000000E-002    -1.0029456206390753E-009
  -1.5199999999999998E-002    -1.0631433730002553E-009
  -1.5150000000000000E-002    -1.1249532542318057E-009
  -1.5099999999999999E-002    -1.1884600008488716E-009
  -1.5050000000000001E-002    -1.2537202973754976E-009
  -1.4999999999999999E-002    -1.3207592698931127E-009
  -1.4949999999999998E-002    -1.3895749064660896E-009
  -1.4900000000000000E-002    -1.4601476410244169E-009
  -1.4849999999999999E-002    -1.5324548893241832E-009
  -1.4800000000000001E-002    -1.6064876007769587E-009
  -1.4749999999999999E-002    -1.6822645810939886E-009
  -1.4700000000000001E-002    -1.7598440529375744E-009
  -1.4650000000000000E-002    -1.8393275323634705E-009
  -1.4599999999999998E-002    -1.9208565639751793E-009
  -1.4550000000000000E-002    -2.0046022794147239E-009
  -1.4499999999999999E-002    -2.0907493398024362E-009
  -1.4450000000000001E-002    -2.1794772171852181E-009
  -1.4400000000000000E-002    -2.2709419254400992E-009
  -1.4349999999999998E-002    -2.3652599625322050E-009
  -1.4300000000000000E-002    -2.4625003979439878E-009
  -1.4249999999999999E-002    -2.5626822104069569E-009
  -1.4200000000000001E-002    -2.6657806892469086E-009
  -1.4149999999999999E-002    -2.7717396787661915E-009
  -1.4099999999999998E-002    -2.8804877129649079E-009
  -1.4050000000000000E-002    -2.9919555396570439E-009
  -1.3999999999999999E-002    -3.1060956037027703E-009
  -1.3950000000000001E-002    -3.2228946218499821E-009
  -1.3899999999999999E-002    -3.3423846271610441E-009
  -1.3850000000000001E-002    -3.4646488384170417E-009
  -1.3800000000000000E-002    -3.5898202334978766E-009
  -1.3749999999999998E-002    -3.7180791040671389E-009
  -1.3700000000000000E-002    -3.8496415488056294E-009
  -1.3649999999999999E-002    -3.9847492087906437E-009
  -1.3600000000000001E-002    -4.1236544773109686E-009
  -1.3550000000000000E-002    -4.2666055935904019E-009
  -1.3499999999999998E-002    -4.4138337294963381E-009
  -1.3450000000000000E-002    -4.5655405294360361E-009
  -1.3399999999999999E-002    -4.7218902234113940E-009
  -1.3350000000000001E-002    -4.8830070607562211E-009
  -1.3299999999999999E-002    -5.0489776780505099E-009
  -1.3249999999999998E-002    -5.2198599935065195E-009
  -1.3200000000000000E-002    -5.3956960298645949E-009
  -1.3149999999999998E-002    -5.5765253238299569E-009
  -1.3100000000000001E-002    -5.7623974469360278E-009
  -1.3049999999999999E-002    -5.9533837866476823E-009
  -1.3000000000000001E-002    -6.1495818493564687E-009
  -1.2950000000000000E-002    -6.3511125261544811E-009
  -1.2899999999999998E-002    -6.5581156707433401E-009
  -1.2850000000000000E-002    -6.7707403675235440E-009
  -1.2799999999999999E-002    -6.9891353380536275E-009