  -4.0000000000000001E-002     0.0000000000000000     
  -3.9949999999999999E-002     0.0000000000000000     
  -3.9899999999999998E-002     0.0000000000000000     
  -3.9850000000000003E-002     0.0000000000000000     
  -3.9800000000000002E-002     0.0000000000000000     
  -3.9750000000000001E-002     0.0000000000000000     
  -3.9699999999999999E-002     0.0000000000000000     
  -3.9649999999999998E-002     0.0000000000000000     
  -3.9600000000000003E-002     0.0000000000000000     
  -3.9550000000000002E-002     0.0000000000000000     
  -3.9500000000000000E-002     0.0000000000000000     
  -3.9449999999999999E-002     0.0000000000000000     
  -3.9399999999999998E-002     0.0000000000000000     
  -3.9350000000000003E-002     0.0000000000000000     
  -3.9300000000000002E-002     0.0000000000000000     
  -3.9250000000000000E-002     0.0000000000000000     
  -3.9199999999999999E-002     0.0000000000000000     
  -3.9150000000000004E-002     0.0000000000000000     
  -3.9100000000000003E-002     0.0000000000000000     
  -3.9050000000000001E-002     0.0000000000000000     
  -3.9000000000000000E-002     0.0000000000000000     
  -3.8949999999999999E-002     0.0000000000000000     
  -3.8900000000000004E-002     0.0000000000000000     
  -3.8850000000000003E-002     0.0000000000000000     
  -3.8800000000000001E-002     0.0000000000000000     
  -3.8750000000000000E-002     0.0000000000000000     
  -3.8699999999999998E-002     0.0000000000000000     
  -3.8650000000000004E-002     0.0000000000000000     
  -3.8600000000000002E-002     0.0000000000000000     
  -3.8550000000000001E-002     0.0000000000000000     
  -3.8500000000000000E-002     0.0000000000000000     
  -3.8449999999999998E-002     0.0000000000000000     
  -3.8400000000000004E-002     0.0000000000000000     
  -3.8350000000000002E-002     0.0000000000000000     
  -3.8300000000000001E-002     0.0000000000000000     
  -3.8249999999999999E-002     0.0000000000000000     
  -3.8199999999999998E-002     0.0000000000000000     
  -3.8150000000000003E-002     0.0000000000000000     
  -3.8100000000000002E-002     0.0000000000000000     
  -3.8050000000000000E-002     0.0000000000000000     
  -3.7999999999999999E-002     0.0000000000000000     
  -3.7949999999999998E-002     0.0000000000000000     
  -3.7900000000000003E-002     0.0000000000000000     
  -3.7850000000000002E-002     0.0000000000000000     
  -3.7800000000000000E-002     0.0000000000000000     
  -3.7749999999999999E-002     0.0000000000000000     
  -3.7699999999999997E-002     0.0000000000000000     
  -3.7650000000000003E-002     0.0000000000000000     
  -3.7600000000000001E-002     0.0000000000000000     
  -3.7550000000000000E-002     0.0000000000000000     
  -3.7499999999999999E-002     0.0000000000000000     
  -3.7449999999999997E-002     0.0000000000000000     
  -3.7400000000000003E-002     0.0000000000000000     
  -3.7350000000000001E-002     0.0000000000000000     
  -3.7300000000000000E-002     0.0000000000000000     
  -3.7249999999999998E-002     0.0000000000000000     
  -3.7200000000000004E-002     0.0000000000000000     
  -3.7150000000000002E-002     0.0000000000000000     
  -3.7100000000000001E-002     0.0000000000000000     
  -3.7050000000000000E-002     0.0000000000000000     
  -3.6999999999999998E-002     0.0000000000000000     
  -3.6950000000000004E-002     0.0000000000000000     
  -3.6900000000000002E-002     0.0000000000000000     
  -3.6850000000000001E-002     0.0000000000000000     
  -3.6799999999999999E-002     0.0000000000000000     
  -3.6749999999999998E-002     0.0000000000000000     
  -3.6700000000000003E-002     0.0000000000000000     
  -3.6650000000000002E-002     0.0000000000000000     
  -3.6600000000000001E-002     0.0000000000000000     
  -3.6549999999999999E-002     0.0000000000000000     
  -3.6499999999999998E-002     0.0000000000000000     
  -3.6450000000000003E-002     0.0000000000000000     
  -3.6400000000000002E-002     0.0000000000000000     
  -3.6350000000000000E-002     0.0000000000000000     
  -3.6299999999999999E-002     0.0000000000000000     
  -3.6249999999999998E-002     0.0000000000000000     
  -3.6200000000000003E-002     0.0000000000000000     
  -3.6150000000000002E-002     0.0000000000000000     
  -3.6100000000000000E-002     0.0000000000000000     
  -3.6049999999999999E-002     1.4715598495857563E-038
  -3.6000000000000004E-002     4.8545765639765797E-038
  -3.5950000000000003E-002     8.3564987779995283E-038
  -3.5900000000000001E-002     3.1968685066496076E-038
  -3.5850000000000000E-002    -1.4406680007319614E-037
  -3.5799999999999998E-002    -4.1306269893648867E-037
  -3.5750000000000004E-002    -6.4123561220466376E-037
  -3.5700000000000003E-002    -5.9806674087638943E-037
  -3.5650000000000001E-002    -6.0070929831002546E-038
  -3.5600000000000000E-002     1.0462592972694630E-036
  -3.5549999999999998E-002     2.4754272338682806E-036
  -3.5500000000000004E-002     3.5705927892152477E-036
  -3.5450000000000002E-002     3.3670437167699426E-036
  -3.5400000000000001E-002     9.8048849064652365E-037
  -3.5349999999999999E-002    -3.7499249130701719E-036
  -3.5299999999999998E-002    -9.6104139163081115E-036
  -3.5250000000000004E-002    -1.3847458336071529E-035
  -3.5200000000000002E-002    -1.3010030535621592E-035
  -3.5150000000000001E-002    -4.9082223497720618E-036
  -3.5099999999999999E-002     8.9890197935272700E-036
  -3.5049999999999998E-002     2.2343590564535536E-035
  -3.5000000000000003E-002     2.5868383269901241E-035
  -3.4950000000000002E-002     1.3247098129234936E-035
  -3.4900000000000000E-002    -1.0815685926759628E-035
  -3.4849999999999999E-002    -2.5687823205017610E-035
  -3.4799999999999998E-002    -9.7411632690334240E-038
  -3.4750000000000003E-002     8.8027904651784738E-035
  -3.4700000000000002E-002     2.2134478269924536E-034
  -3.4650000000000000E-002     3.1867038848855360E-034
  -3.4599999999999999E-002     2.4100809404136556E-034
  -3.4549999999999997E-002    -1.5163350219448302E-034
  -3.4500000000000003E-002    -8.9525309967289632E-034
  -3.4450000000000001E-002    -1.8083812439889764E-033
  -3.4400000000000000E-002    -2.4425338139637147E-033
  -3.4349999999999999E-002    -2.1706976229291913E-033
  -3.4299999999999997E-002    -4.3918402083914787E-034
  -3.4250000000000003E-002     2.8834281331655609E-033
  -3.4200000000000001E-002     7.2165625924735399E-033
  -3.4150000000000000E-002     1.1215110217235217E-032
  -3.4099999999999998E-002     1.3038993292975662E-032
  -3.4049999999999997E-002     1.0847664642163586E-032
  -3.4000000000000002E-002     3.2710584156087491E-033
  -3.3950000000000001E-002    -1.0348407212114405E-032
  -3.3900000000000000E-002    -2.9831272457201716E-032
  -3.3849999999999998E-002    -5.3604305639022544E-032
  -3.3799999999999997E-002    -7.7029686366587680E-032
  -3.3750000000000002E-002    -8.9628094091299579E-032
  -3.3700000000000001E-002    -7.2885927720617018E-032
  -3.3649999999999999E-002    -2.3410322644931102E-033
  -3.3599999999999998E-002     1.4169994300998563E-031
  -3.3550000000000003E-002     3.5321679782463093E-031
  -3.3500000000000002E-002     5.7488703211427776E-031
  -3.3450000000000001E-002     6.8319073392954889E-031
  -3.3399999999999999E-002     5.0626275336807538E-031
  -3.3349999999999998E-002    -1.0772994302263477E-031
  -3.3300000000000003E-002    -1.1751203555396299E-030
  -3.3250000000000002E-002    -2.4535845320306713E-030
  -3.3200000000000000E-002    -3.3867526972614537E-030
  -3.3149999999999999E-002    -3.2028681411318139E-030
  -3.3099999999999997E-002    -1.2142953504728738E-030
  -3.3050000000000003E-002     2.7318983361132788E-030
  -3.3000000000000002E-002     7.8279430112783047E-030
  -3.2950000000000000E-002     1.2170214629317528E-029
  -3.2899999999999999E-002     1.3157623865477173E-029
  -3.2850000000000004E-002     8.4805895119169911E-030
  -3.2800000000000003E-002    -2.5575367888580685E-030
  -3.2750000000000001E-002    -1.7955998576381211E-029
  -3.2700000000000000E-002    -3.2849208817796630E-029
  -3.2649999999999998E-002    -4.0688556193147968E-029
  -3.2600000000000004E-002    -3.5605217577480302E-029
  -3.2550000000000003E-002    -1.5075743261160257E-029
  -3.2500000000000001E-002     1.8386752368669414E-029
  -3.2450000000000000E-002     5.7500299604257960E-029
  -3.2399999999999998E-002     9.2395676580282352E-029
  -3.2350000000000004E-002     1.1338470787398857E-028
  -3.2300000000000002E-002     1.1236224370357554E-028
  -3.2250000000000001E-002     8.1758494663533219E-029
  -3.2199999999999999E-002     1.2381788566137849E-029
  -3.2149999999999998E-002    -1.0576947254032207E-028
  -3.2100000000000004E-002    -2.7491915695336494E-028
  -3.2050000000000002E-002    -4.7185307711611583E-028
  -3.2000000000000001E-002    -6.2789755455545701E-028
  -3.1949999999999999E-002    -6.2252112852270561E-028
  -3.1899999999999998E-002    -3.1051768493355404E-028
  -3.1850000000000003E-002     4.0575713550293889E-028
  -3.1800000000000002E-002     1.4713993071181707E-027
  -3.1750000000000000E-002     2.5863003148455144E-027
  -3.1699999999999999E-002     3.1949455996013961E-027
  -3.1649999999999998E-002     2.6241188381984743E-027
  -3.1600000000000003E-002     3.8396042335733635E-028
  -3.1550000000000002E-002    -3.4426691090701820E-027
  -3.1500000000000000E-002    -7.8952442660545210E-027
  -3.1449999999999999E-002    -1.1136579740226372E-026
  -3.1399999999999997E-002    -1.0926041700937826E-026
  -3.1350000000000003E-002    -5.5517650060043548E-027
  -3.1300000000000001E-002     5.0506449678225958E-027
  -3.1250000000000000E-002     1.8492793192701838E-026
  -3.1199999999999999E-002     2.9994032360458379E-026
  -3.1150000000000001E-002     3.3635328017297061E-026
  -3.1100000000000003E-002     2.4645134799960064E-026
  -3.1050000000000001E-002     1.9718857143482263E-027
  -3.1000000000000000E-002    -2.9997502115846187E-026
  -3.0949999999999998E-002    -6.1642990129481465E-026
  -3.0900000000000000E-002    -8.0666222947466436E-026
  -3.0850000000000002E-002    -7.6384372235588293E-026
  -3.0800000000000001E-002    -4.4182684898477713E-026
  -3.0750000000000000E-002     1.1808041348641383E-026
  -3.0699999999999998E-002     7.9140146874413101E-026
  -3.0650000000000000E-002     1.4049723655551017E-025
  -3.0600000000000002E-002     1.7852414090622096E-025
  -3.0550000000000001E-002     1.7967093512123436E-025
  -3.0499999999999999E-002     1.3545899149504152E-025
  -3.0449999999999998E-002     4.1713158916171247E-026
  -3.0400000000000000E-002    -1.0138733095251991E-025
  -3.0350000000000002E-002    -2.8492687076783722E-025
  -3.0300000000000001E-002    -4.8144067646883225E-025
  -3.0249999999999999E-002    -6.3387148032378314E-025
  -3.0200000000000001E-002    -6.5322273136692032E-025
  -3.0150000000000000E-002    -4.3682521816366721E-025
  -3.0100000000000002E-002     8.6496724712834045E-026
  -3.0050000000000000E-002     8.9215119670703021E-025
  -2.9999999999999999E-002     1.8023811132094630E-024
  -2.9950000000000001E-002     2.4747039913326273E-024
  -2.9899999999999999E-002     2.4719524444952164E-024
  -2.9850000000000002E-002     1.4236120147579229E-024
  -2.9800000000000000E-002    -7.5719425354840364E-025
  -2.9749999999999999E-002    -3.6849949025062394E-024
  -2.9700000000000001E-002    -6.4512445294686377E-024
  -2.9650000000000003E-002    -7.8007094369849616E-024
  -2.9600000000000001E-002    -6.5485039793342415E-024
  -2.9550000000000000E-002    -2.1381157785213206E-024
  -2.9499999999999998E-002     4.8664655693685070E-024
  -2.9450000000000000E-002     1.2606120327732983E-023
  -2.9400000000000003E-002     1.8259518826270142E-023
  -2.9350000000000001E-002     1.8901194063795017E-023
  -2.9300000000000000E-002     1.2668454538741737E-023
  -2.9249999999999998E-002    -1.7968752585214729E-025
  -2.9200000000000000E-002    -1.6791060562088470E-023
  -2.9150000000000002E-002    -3.2175478000528387E-023
  -2.9100000000000001E-002    -4.0600351540664128E-023
  -2.9049999999999999E-002    -3.7542521568192129E-023
  -2.8999999999999998E-002    -2.1512670758874863E-023
  -2.8950000000000000E-002     4.9742724839673683E-024
  -2.8900000000000002E-002     3.5735389540180972E-023
  -2.8850000000000001E-002     6.2511767821301056E-023
  -2.8799999999999999E-002     7.7249702703859681E-023
  -2.8749999999999998E-002     7.4233079669632806E-023
  -2.8700000000000000E-002     5.1363781146222212E-023
  -2.8650000000000002E-002     1.0384802403461871E-023
  -2.8600000000000000E-002    -4.3561688047209493E-023
  -2.8549999999999999E-002    -1.0233079681155446E-022
  -2.8500000000000001E-002    -1.5466039614125687E-022
  -2.8450000000000000E-002    -1.8587186087205621E-022
  -2.8400000000000002E-002    -1.7864155308980940E-022
  -2.8350000000000000E-002    -1.1649164523206409E-022
  -2.8299999999999999E-002     9.1041458884034498E-024
  -2.8250000000000001E-002     1.8912425234274830E-022
  -2.8200000000000003E-002     3.8867689244283283E-022
  -2.8150000000000001E-002     5.4562729499396112E-022
  -2.8100000000000000E-002     5.8147707252084276E-022
  -2.8049999999999999E-002     4.2620072116301484E-022
  -2.8000000000000001E-002     5.2376766900947376E-023
  -2.7950000000000003E-002    -4.9303039172424639E-022
  -2.7900000000000001E-002    -1.0751002332619339E-021
  -2.7850000000000000E-002    -1.4896492895282172E-021
  -2.7799999999999998E-002    -1.5189557372144419E-021
  -2.7750000000000000E-002    -1.0142626744061143E-021
  -2.7700000000000002E-002     2.0816183887933422E-023
  -2.7650000000000001E-002     1.3809951982705773E-021
  -2.7600000000000000E-002     2.6755104406445829E-021
  -2.7549999999999998E-002     3.4226875822240309E-021
  -2.7500000000000000E-002     3.2064281177070392E-021
  -2.7450000000000002E-002     1.8481462570034666E-021
  -2.7400000000000001E-002    -4.7003144864422815E-022
  -2.7349999999999999E-002    -3.1897873682795533E-021
  -2.7299999999999998E-002    -5.4969524242290690E-021
  -2.7250000000000000E-002    -6.5572085419306016E-021
  -2.7200000000000002E-002    -5.7979128812598249E-021
  -2.7150000000000001E-002    -3.1385219612436558E-021
  -2.7099999999999999E-002     9.2045956495419484E-022
  -2.7049999999999998E-002     5.3951789166262861E-021
  -2.7000000000000000E-002     9.0803541716681207E-021
  -2.6950000000000002E-002     1.0889653434088747E-020
  -2.6900000000000000E-002     1.0157976639368649E-020
  -2.6849999999999999E-002     6.8069379231520552E-021
  -2.6800000000000001E-002     1.3357556283215117E-021
  -2.6749999999999999E-002    -5.3240199774172016E-021
  -2.6700000000000002E-002    -1.1998712804034125E-020
  -2.6650000000000000E-002    -1.7417997088491656E-020
  -2.6599999999999999E-002    -2.0286525359093443E-020
  -2.6550000000000001E-002    -1.9342122590866568E-020
  -2.6500000000000003E-002    -1.3524643737724952E-020
  -2.6450000000000001E-002    -2.3621780192908689E-021
  -2.6400000000000000E-002     1.3438764780242189E-020
  -2.6349999999999998E-002     3.1400955431120672E-020
  -2.6300000000000000E-002     4.7050805492666215E-020
  -2.6250000000000002E-002     5.4459936556311843E-020
  -2.6200000000000001E-002     4.7768646399171657E-020
  -2.6150000000000000E-002     2.3508382535877549E-020
  -2.6099999999999998E-002    -1.6949305567426600E-020
  -2.6050000000000000E-002    -6.5856766412582102E-020
  -2.6000000000000002E-002    -1.0952314627311627E-019
  -2.5950000000000001E-002    -1.3130151933193037E-019
  -2.5899999999999999E-002    -1.1681131832804735E-019
  -2.5849999999999998E-002    -6.0012812933077389E-020
  -2.5800000000000000E-002     3.2044301614882325E-020
  -2.5750000000000002E-002     1.3807089404642585E-019
  -2.5700000000000001E-002     2.2642109884563148E-019
  -2.5649999999999999E-002     2.6378869867437894E-019
  -2.5599999999999998E-002     2.2653579260744078E-019
  -2.5550000000000000E-002     1.1095415580813593E-019
  -2.5500000000000002E-002    -6.1582297672517261E-020
  -2.5450000000000000E-002    -2.4740788590762648E-019
  -2.5399999999999999E-002    -3.9158267494105183E-019
  -2.5349999999999998E-002    -4.4434731129428478E-019
  -2.5300000000000000E-002    -3.7780549070049245E-019
  -2.5250000000000002E-002    -1.9693756423028006E-019
  -2.5200000000000000E-002     5.9391303025017429E-020
  -2.5149999999999999E-002     3.2835293721871011E-019
  -2.5100000000000001E-002     5.4089526370480304E-019
  -2.5049999999999999E-002     6.4117302519611119E-019
  -2.5000000000000001E-002     6.0092577701051936E-019
  -2.4950000000000000E-002     4.2426075523268890E-019
  -2.4899999999999999E-002     1.4249207102294522E-019
  -2.4850000000000001E-002    -1.9699975787258639E-019
  -2.4800000000000003E-002    -5.4161703048804384E-019
  -2.4750000000000001E-002    -8.3890046936319696E-019
  -2.4700000000000000E-002    -1.0354214706068741E-018
  -2.4649999999999998E-002    -1.0736563434584893E-018
  -2.4600000000000000E-002    -8.9487066323462017E-019
  -2.4550000000000002E-002    -4.5507165623724650E-019
  -2.4500000000000001E-002     2.4527246745753255E-019
  -2.4450000000000000E-002     1.1268459180020272E-018
  -2.4399999999999998E-002     2.0103137930950274E-018
  -2.4350000000000000E-002     2.6286720396235838E-018
  -2.4299999999999999E-002     2.6857884473300641E-018
  -2.4250000000000001E-002     1.9564010559009649E-018
  -2.4199999999999999E-002     4.0095874133494626E-019
  -2.4150000000000001E-002    -1.7485466979883339E-018
  -2.4100000000000000E-002    -3.9785728966672462E-018
  -2.4049999999999998E-002    -5.5896345254286008E-018
  -2.4000000000000000E-002    -5.8921402657035309E-018
  -2.3949999999999999E-002    -4.4542675097439351E-018
  -2.3900000000000001E-002    -1.3197588091125364E-018
  -2.3850000000000000E-002     2.8948360132763029E-018
  -2.3800000000000002E-002     7.0874629865472651E-018
  -2.3750000000000000E-002     9.9484309168231968E-018
  -2.3699999999999999E-002     1.0362998950583748E-017
  -2.3650000000000001E-002     7.8136812422545205E-018
  -2.3599999999999999E-002     2.6371150721359125E-018
  -2.3550000000000001E-002    -3.9764466289026787E-018
  -2.3500000000000000E-002    -1.0271606246244602E-017
  -2.3449999999999999E-002    -1.4431543868888081E-017
  -2.3400000000000001E-002    -1.5137694722934800E-017
  -2.3349999999999999E-002    -1.1993200711538967E-017
  -2.3300000000000001E-002    -5.6573471167818854E-018
  -2.3250000000000000E-002     2.3594315744776268E-018
  -2.3199999999999998E-002     1.0162772438689775E-017
  -2.3150000000000000E-002     1.6025565577030843E-017
  -2.3099999999999999E-002     1.8815902209162097E-017
  -2.3050000000000001E-002     1.8155170188189440E-017
  -2.3000000000000000E-002     1.4287760026091664E-017
  -2.2950000000000002E-002     7.7835569787065643E-018
  -2.2900000000000000E-002    -7.2237837990620761E-019
  -2.2849999999999999E-002    -1.0570729644994803E-017
  -2.2800000000000001E-002    -2.0847919360374138E-017
  -2.2749999999999999E-002    -3.0020531790419562E-017
  -2.2700000000000001E-002    -3.5721182639449211E-017
  -2.2650000000000000E-002    -3.4996337503558794E-017
  -2.2599999999999999E-002    -2.5174207967285706E-017
  -2.2550000000000001E-002    -5.2135101242267575E-018
  -2.2499999999999999E-002     2.2936232769715312E-017
  -2.2450000000000001E-002     5.3636376151408442E-017
  -2.2400000000000000E-002     7.8136638714616568E-017
  -2.2349999999999998E-002     8.6670197873183125E-017
  -2.2300000000000000E-002     7.1709518146973448E-017
  -2.2249999999999999E-002     3.1412216848925728E-017
  -2.2200000000000001E-002    -2.8073401568028938E-017
  -2.2150000000000000E-002    -9.2660269292377728E-017
  -2.2100000000000002E-002    -1.4330071637912731E-016
  -2.2050000000000000E-002    -1.6143288598320410E-016
  -2.1999999999999999E-002    -1.3537913190750709E-016
  -2.1950000000000001E-002    -6.5519857972137150E-017
  -2.1899999999999999E-002     3.3855983002370739E-017
  -2.1850000000000001E-002     1.3721319646632906E-016
  -2.1800000000000000E-002     2.1462468895131224E-016
  -2.1749999999999999E-002     2.4090133180614535E-016
  -2.1700000000000001E-002     2.0401872472094513E-016
  -2.1649999999999999E-002     1.0982286410453416E-016
  -2.1600000000000001E-002    -1.8891943268512872E-017
  -2.1550000000000000E-002    -1.4889892918109839E-016
  -2.1499999999999998E-002    -2.4654505939414155E-016
  -2.1450000000000000E-002    -2.8776726773103176E-016
  -2.1399999999999999E-002    -2.6456822644581855E-016
  -2.1350000000000001E-002    -1.8575268420653276E-016
  -2.1299999999999999E-002    -7.2021947573057177E-017
  -2.1250000000000002E-002     5.2166317384224101E-017
  -2.1200000000000000E-002     1.6625818122080563E-016
  -2.1149999999999999E-002     2.5742302707969570E-016
  -2.1100000000000001E-002     3.1914991783614239E-016
  -2.1049999999999999E-002     3.4603455829353667E-016
  -2.1000000000000001E-002     3.2849459706848865E-016
  -2.0950000000000000E-002     2.5176558814586582E-016
  -2.0899999999999998E-002     1.0183545590848942E-016
  -2.0850000000000000E-002    -1.2258604919799057E-016
  -2.0799999999999999E-002    -3.9695378509905133E-016
  -2.0750000000000001E-002    -6.6400601507203192E-016
  -2.0700000000000000E-002    -8.3985995461959570E-016
  -2.0649999999999998E-002    -8.3563098381175100E-016
  -2.0600000000000000E-002    -5.9046867923422250E-016
  -2.0549999999999999E-002    -1.0531431948453634E-016
  -2.0500000000000001E-002     5.3682343570664749E-016
  -2.0449999999999999E-002     1.1764218258266323E-015
  -2.0400000000000001E-002     1.6135680124871698E-015
  -2.0350000000000000E-002     1.6680721474232607E-015
  -2.0299999999999999E-002     1.2459682071147755E-015
  -2.0250000000000001E-002     3.8871760729686494E-016
  -2.0199999999999999E-002    -7.1633983983902046E-016
  -2.0150000000000001E-002    -1.7746882903732779E-015
  -2.0100000000000000E-002    -2.4660392289001980E-015
  -2.0049999999999998E-002    -2.5451722232062469E-015
  -2.0000000000000000E-002    -1.9288155701259729E-015
  -1.9949999999999999E-002    -7.3653696988938483E-016
  -1.9900000000000001E-002     7.3271420431930776E-016
  -1.9850000000000000E-002     2.0848424271420040E-015
  -1.9799999999999998E-002     2.9496298202454649E-015
  -1.9750000000000000E-002     3.0944042680736963E-015
  -1.9699999999999999E-002     2.4925342077320757E-015
  -1.9650000000000001E-002     1.3226274416983682E-015
  -1.9599999999999999E-002    -9.9954202350082517E-017
  -1.9550000000000001E-002    -1.4317401083812991E-015
  -1.9500000000000000E-002    -2.4070139497290189E-015
  -1.9449999999999999E-002    -2.9000570052491702E-015
  -1.9400000000000001E-002    -2.9225254012080377E-015
  -1.9349999999999999E-002    -2.5642186060582071E-015
  -1.9300000000000001E-002    -1.9121980542502644E-015
  -1.9250000000000000E-002    -9.9465956677417377E-016
  -1.9199999999999998E-002     2.1470988193696030E-016
  -1.9150000000000000E-002     1.7262238179884654E-015
  -1.9099999999999999E-002     3.4292042048713256E-015
  -1.9050000000000001E-002     5.0116207807782056E-015
  -1.9000000000000000E-002     5.9658465945404849E-015
  -1.8949999999999998E-002     5.7134959977956420E-015
  -1.8900000000000000E-002     3.8305849547296423E-015
  -1.8849999999999999E-002     2.9894418510740747E-016
  -1.8800000000000001E-002    -4.3240866785907318E-015
  -1.8749999999999999E-002    -8.9183641618613765E-015
  -1.8700000000000001E-002    -1.2043094115270908E-014
  -1.8650000000000000E-002    -1.2369726960391111E-014
  -1.8599999999999998E-002    -9.1796433329032270E-015
  -1.8550000000000001E-002    -2.7482896651666441E-015
  -1.8499999999999999E-002     5.5523056279331486E-015
  -1.8450000000000001E-002     1.3521639252614230E-014
  -1.8400000000000000E-002     1.8731915094028460E-014
  -1.8349999999999998E-002     1.9294062062000933E-014
  -1.8300000000000000E-002     1.4536589705398117E-014
  -1.8249999999999999E-002     5.3471902470084154E-015
  -1.8200000000000001E-002    -5.9764603408860549E-015
  -1.8149999999999999E-002    -1.6356243480930219E-014
  -1.8100000000000002E-002    -2.2858417361628497E-014
  -1.8050000000000000E-002    -2.3609639024087074E-014
  -1.7999999999999999E-002    -1.8387186237023116E-014
  -1.7950000000000001E-002    -8.6716293935568296E-015
  -1.7899999999999999E-002     2.8596052527871466E-015
  -1.7850000000000001E-002     1.3214051943313040E-014
  -1.7800000000000000E-002     2.0017353660056747E-014
  -1.7749999999999998E-002     2.2157206218441708E-014
  -1.7700000000000000E-002     1.9916414437798347E-014
  -1.7649999999999999E-002     1.4583920212424793E-014
  -1.7600000000000001E-002     7.7500575469441509E-015
  -1.7550000000000000E-002     6.2416206168922246E-016
  -1.7499999999999998E-002    -6.3030559165565790E-015
  -1.7450000000000000E-002    -1.3094472914017361E-014
  -1.7399999999999999E-002    -1.9790184505800827E-014
  -1.7350000000000001E-002    -2.5737011399027190E-014
  -1.7299999999999999E-002    -2.9235423489645113E-014
  -1.7250000000000001E-002    -2.7817940957469353E-014
  -1.7200000000000000E-002    -1.9203463417962613E-014
  -1.7149999999999999E-002    -2.6307089983517752E-015
  -1.7100000000000001E-002     1.9991566589010537E-014
  -1.7049999999999999E-002     4.3735475581830469E-014
  -1.7000000000000001E-002     6.1507656606840655E-014
  -1.6950000000000000E-002     6.6068312387819461E-014
  -1.6899999999999998E-002     5.2668847473451297E-014
  -1.6850000000000000E-002     2.1387524319930670E-014
  -1.6799999999999999E-002    -2.1816729466831580E-014
  -1.6750000000000001E-002    -6.5983595540566875E-014
  -1.6700000000000000E-002    -9.7974132604559949E-014
  -1.6649999999999998E-002    -1.0650827415121730E-013
  -1.6600000000000000E-002    -8.6129725313660588E-014
  -1.6549999999999999E-002    -3.9675016473127850E-014
  -1.6500000000000001E-002     2.1790308815140824E-014
  -1.6449999999999999E-002     8.1790090921806530E-014
  -1.6400000000000001E-002     1.2325929936007202E-013
  -1.6350000000000000E-002     1.3384402635686909E-013
  -1.6299999999999999E-002     1.0988824054262297E-013
  -1.6250000000000001E-002     5.7694287173247483E-014
  -1.6199999999999999E-002    -8.4381134214271333E-015
  -1.6150000000000001E-002    -7.0751117096055915E-014
  -1.6100000000000000E-002    -1.1356840896306272E-013
  -1.6049999999999998E-002    -1.2789217655826551E-013
  -1.6000000000000000E-002    -1.1347819656604835E-013
  -1.5949999999999999E-002    -7.7781822595181932E-014
  -1.5900000000000001E-002    -3.2376553694979382E-014
  -1.5850000000000000E-002     1.1585610773425913E-014
  -1.5799999999999998E-002     4.6977050342181942E-014
  -1.5750000000000000E-002     7.1932240166498046E-014
  -1.5699999999999999E-002     8.8375663666491466E-014
  -1.5650000000000001E-002     9.8750502675222507E-014
  -1.5599999999999999E-002     1.0274173547521193E-013
  -1.5550000000000001E-002     9.5880240053893007E-014
  -1.5500000000000000E-002     7.1117374142448675E-014
  -1.5449999999999998E-002     2.3055430448896269E-014
  -1.5400000000000000E-002    -4.6912374294461393E-014
  -1.5349999999999999E-002    -1.2710637392870233E-013
  -1.5300000000000001E-002    -1.9599984612747590E-013
  -1.5250000000000000E-002    -2.2751754907152089E-013
  -1.5199999999999998E-002    -2.0009532496634980E-013
  -1.5150000000000000E-002    -1.0650874171340419E-013
  -1.5099999999999999E-002     3.9457583115567671E-014
  -1.5050000000000001E-002     2.0287336264038225E-013
  -1.4999999999999999E-002     3.3540639883533618E-013
  -1.4949999999999998E-002     3.8942446814980991E-013
  -1.4900000000000000E-002     3.3425814741951110E-013
  -1.4849999999999999E-002     1.6902860946847731E-013
  -1.4800000000000001E-002    -7.2988978142701777E-014
  -1.4749999999999999E-002    -3.3097455982497581E-013
  -1.4700000000000001E-002    -5.3295096200806080E-013
  -1.4650000000000000E-002    -6.1716842574000008E-013
  -1.4599999999999998E-002    -5.5158471106570017E-013
  -1.4550000000000000E-002    -3.4478577761939966E-013
  -1.4499999999999999E-002    -4.4358827456505642E-014
  -1.4450000000000001E-002     2.7704523245832002E-013
  -1.4400000000000000E-002     5.4342863759285209E-013
  -1.4349999999999998E-002     6.9764479566566950E-013
  -1.4300000000000000E-002     7.1661009374765494E-013
  -1.4249999999999999E-002     6.1461908696172629E-013
  -1.4200000000000001E-002     4.3421847064142871E-013
  -1.4149999999999999E-002     2.2863370810304040E-013
  -1.4099999999999998E-002     4.2716281493980837E-014
  -1.4050000000000000E-002    -1.0037724639108334E-013
  -1.3999999999999999E-002    -2.0215327621499884E-013
  -1.3950000000000001E-002    -2.8117097409033343E-013
  -1.3899999999999999E-002    -3.5904791509736023E-013
  -1.3850000000000001E-002    -4.4688498778214236E-013
  -1.3800000000000000E-002    -5.3857542340815523E-013
  -1.3749999999999998E-002    -6.1424465774145842E-013
  -1.3700000000000000E-002    -6.5225906273336243E-013
  -1.3649999999999999E-002    -6.4389411771198501E-013
  -1.3600000000000001E-002    -6.0283245409409325E-013
  -1.3550000000000000E-002    -5.6324476332969553E-013
  -1.3499999999999998E-002    -5.6490538158718295E-013
  -1.3450000000000000E-002    -6.2987169733436099E-013
  -1.3399999999999999E-002    -7.4017923951466558E-013
  -1.3350000000000001E-002    -8.2748830574144727E-013
  -1.3299999999999999E-002    -7.8258010965601144E-013
  -1.3249999999999998E-002    -4.8572815691469429E-013
  -1.3200000000000000E-002     1.4940117556722782E-013
  -1.3149999999999998E-002     1.1323235101293183E-012
  -1.3100000000000001E-002     2.3688930591431179E-012
  -1.3049999999999999E-002     3.6633660514817645E-012
  -1.3000000000000001E-002     4.7528465538237974E-012
  -1.2950000000000000E-002     5.3665847807304878E-012
  -1.2899999999999998E-002     5.2933204694460834E-012
  -1.2850000000000000E-002     4.4359329577636775E-012
  -1.2799999999999999E-002     2.8358324802996160E-012