  -4.0000000000000001E-002     0.0000000000000000     
  -3.9949999999999999E-002     0.0000000000000000     
  -3.9899999999999998E-002     0.0000000000000000     
  -3.9850000000000003E-002     0.0000000000000000     
  -3.9800000000000002E-002     0.0000000000000000     
  -3.9750000000000001E-002     0.0000000000000000     
  -3.9699999999999999E-002     0.0000000000000000     
  -3.9649999999999998E-002     0.0000000000000000     
  -3.9600000000000003E-002     0.0000000000000000     
  -3.9550000000000002E-002     0.0000000000000000     
  -3.9500000000000000E-002     0.0000000000000000     
  -3.9449999999999999E-002     0.0000000000000000     
  -3.9399999999999998E-002     0.0000000000000000     
  -3.9350000000000003E-002     0.0000000000000000     
  -3.9300000000000002E-002     0.0000000000000000     
  -3.9250000000000000E-002     0.0000000000000000     
  -3.9199999999999999E-002     0.0000000000000000     
  -3.9150000000000004E-002     0.0000000000000000     
  -3.9100000000000003E-002     0.0000000000000000     
  -3.9050000000000001E-002     0.0000000000000000     
  -3.9000000000000000E-002     0.0000000000000000     
  -3.8949999999999999E-002     0.0000000000000000     
  -3.8900000000000004E-002     0.0000000000000000     
  -3.8850000000000003E-002     0.0000000000000000     
  -3.8800000000000001E-002     0.0000000000000000     
  -3.8750000000000000E-002     0.0000000000000000     
  -3.8699999999999998E-002     0.0000000000000000     
  -3.8650000000000004E-002     0.0000000000000000     
  -3.8600000000000002E-002     0.0000000000000000     
  -3.8550000000000001E-002     0.0000000000000000     
  -3.8500000000000000E-002     7.7611420255057405E-040
  -3.8449999999999998E-002     1.7351228862983004E-039
  -3.8400000000000004E-002    -7.1240280266049345E-040
  -3.8350000000000002E-002    -1.3997014358599886E-038
  -3.8300000000000001E-002    -5.9876926846800222E-038
  -3.8249999999999999E-002    -1.6824891496803376E-037
  -3.8199999999999998E-002    -3.4525214978653900E-037
  -3.8150000000000003E-002    -3.9907237205801615E-037
  -3.8100000000000002E-002     2.7342642477805885E-037
  -3.8050000000000000E-002     3.1384753506710304E-036
  -3.7999999999999999E-002     1.0522021650063656E-035
  -3.7949999999999998E-002     2.3740394028282522E-035
  -3.7900000000000003E-002     3.7001761519785512E-035
  -3.7850000000000002E-002     2.5799571084372079E-035
  -3.7800000000000000E-002    -6.5039852307770113E-035
  -3.7749999999999999E-002    -3.1390087405462125E-034
  -3.7699999999999997E-002    -7.5823861597784487E-034
  -3.7650000000000003E-002    -1.2373592769517710E-033
  -3.7600000000000001E-002    -1.1634111538653607E-033
  -3.7550000000000000E-002     6.1265571296981478E-034
  -3.7499999999999999E-002     5.4745872013944977E-033
  -3.7449999999999997E-002     1.3802729361491793E-032
  -3.7400000000000003E-002     2.2699038964771895E-032
  -3.7350000000000001E-002     2.3546527933314391E-032
  -3.7300000000000000E-002     1.7985810539583790E-033
  -3.7249999999999998E-002    -5.7485635179556712E-032
  -3.7200000000000004E-002    -1.5583246198663841E-031
  -3.7150000000000002E-002    -2.6147004797849553E-031
  -3.7100000000000001E-002    -2.9385901468663288E-031
  -3.7050000000000000E-002    -1.3128557545172573E-031
  -3.6999999999999998E-002     3.3911809345900749E-031
  -3.6950000000000004E-002     1.1241556282665632E-030
  -3.6900000000000002E-002     2.0076381521961655E-030
  -3.6850000000000001E-002     2.4816792603328799E-030
  -3.6799999999999999E-002     1.8195450395909042E-030
  -3.6749999999999998E-002    -6.3673102995154217E-031
  -3.6700000000000003E-002    -4.9885660628540883E-030
  -3.6650000000000002E-002    -1.0256383921165648E-029
  -3.6600000000000001E-002    -1.4139146052726261E-029
  -3.6549999999999999E-002    -1.3441239976654735E-029
  -3.6499999999999998E-002    -5.3914493270858756E-030
  -3.6450000000000003E-002     1.0382998123193235E-029
  -3.6400000000000002E-002     3.0151047139093350E-029
  -3.6350000000000000E-002     4.6126298019023011E-029
  -3.6299999999999999E-002     4.9577243508070199E-029
  -3.6249999999999998E-002     3.6798495885316295E-029
  -3.6200000000000003E-002     1.4938195809929542E-029
  -3.6150000000000002E-002     1.9169864174463899E-030
  -3.6100000000000000E-002     1.4694359822820520E-029
  -3.6049999999999999E-002     4.5829032671084826E-029
  -3.6000000000000004E-002     3.9958867134983123E-029
  -3.5950000000000003E-002    -1.0570321504123341E-028
  -3.5900000000000001E-002    -4.9060620969830467E-028
  -3.5850000000000000E-002    -1.1037940179646453E-027
  -3.5799999999999998E-002    -1.6996358760503023E-027
  -3.5750000000000004E-002    -1.7478053224941822E-027
  -3.5700000000000003E-002    -5.6923107214705125E-028
  -3.5650000000000001E-002     2.2858684878884117E-027
  -3.5600000000000000E-002     6.5071466130219976E-027
  -3.5549999999999998E-002     1.0614621541542603E-026
  -3.5500000000000004E-002     1.2050405051075105E-026
  -3.5450000000000002E-002     8.0423338781134314E-027
  -3.5400000000000001E-002    -2.8677708882875600E-027
  -3.5349999999999999E-002    -1.9260378953278984E-026
  -3.5299999999999998E-002    -3.6221358289807440E-026
  -3.5250000000000004E-002    -4.6477312491399575E-026
  -3.5200000000000002E-002    -4.3235242086041230E-026
  -3.5150000000000001E-002    -2.3463037473011716E-026
  -3.5099999999999999E-002     1.0445762788858328E-026
  -3.5049999999999998E-002     5.2169495852242674E-026
  -3.5000000000000003E-002     9.5558036950425212E-026
  -3.4950000000000002E-002     1.3797931241854590E-025
  -3.4900000000000000E-002     1.7817376436772473E-025
  -3.4849999999999999E-002     2.0618264974058595E-025
  -3.4799999999999998E-002     1.8953675240627306E-025
  -3.4750000000000003E-002     6.8140152492642280E-026
  -3.4700000000000002E-002    -2.2591035342881305E-025
  -3.4650000000000000E-002    -7.1479394010436179E-025
  -3.4599999999999999E-002    -1.3003087550410007E-024
  -3.4549999999999997E-002    -1.7094081437796362E-024
  -3.4500000000000003E-002    -1.5204792453875914E-024
  -3.4450000000000001E-002    -3.1924768147917495E-025
  -3.4400000000000000E-002     2.0224958908312215E-024
  -3.4349999999999999E-002     5.0420822364507732E-024
  -3.4299999999999997E-002     7.5360957074349765E-024
  -3.4250000000000003E-002     7.7648111876989880E-024
  -3.4200000000000001E-002     4.1109611717233953E-024
  -3.4150000000000000E-002    -3.9278601774221544E-024
  -3.4099999999999998E-002    -1.4803699067244831E-023
  -3.4049999999999997E-002    -2.4607716495115893E-023
  -3.4000000000000002E-002    -2.7883252389261595E-023
  -3.3950000000000001E-002    -1.9667021949281601E-023
  -3.3900000000000000E-002     1.7718555063924709E-024
  -3.3849999999999998E-002     3.2636247065290973E-023
  -3.3799999999999997E-002     6.3115799794203219E-023
  -3.3750000000000002E-002     7.9640927374693494E-023
  -3.3700000000000001E-002     6.9707394373061822E-023
  -3.3649999999999999E-002     2.7736075826305113E-023
  -3.3599999999999998E-002    -4.0526186444101227E-023
  -3.3550000000000003E-002    -1.1745364795712004E-022
  -3.3500000000000002E-002    -1.7783048097269087E-022
  -3.3450000000000001E-002    -1.9676555972326767E-022
  -3.3399999999999999E-002    -1.5809519913631376E-022
  -3.3349999999999998E-002    -5.9715194832363368E-023
  -3.3300000000000003E-002     8.6062265274937925E-023
  -3.3250000000000002E-002     2.5597286460039035E-022
  -3.3200000000000000E-002     4.1933839750104468E-022
  -3.3149999999999999E-002     5.3799797347808669E-022
  -3.3099999999999997E-002     5.6271348745349796E-022
  -3.3050000000000003E-002     4.3218997796518580E-022
  -3.3000000000000002E-002     8.5251201345131148E-023
  -3.2950000000000000E-002    -5.0543125953446307E-022
  -3.2899999999999999E-002    -1.2810661597059930E-021
  -3.2850000000000004E-002    -2.0470854719250463E-021
  -3.2800000000000003E-002    -2.4633274577257359E-021
  -3.2750000000000001E-002    -2.1127755682969895E-021
  -3.2700000000000000E-002    -6.6462665068377227E-022
  -3.2649999999999998E-002     1.8995601238809879E-021
  -3.2600000000000004E-002     5.0835631061466823E-021
  -3.2550000000000003E-002     7.8210467537076514E-021
  -3.2500000000000001E-002     8.6759984172337501E-021
  -3.2450000000000000E-002     6.3281076139292371E-021
  -3.2399999999999998E-002     2.3962740889878462E-022
  -3.2350000000000004E-002    -8.7372858439231756E-021
  -3.2300000000000002E-002    -1.8127281412410921E-020
  -3.2250000000000001E-002    -2.4234531116441504E-020
  -3.2199999999999999E-002    -2.3244577215440993E-020
  -3.2149999999999998E-002    -1.2789214310114742E-020
  -3.2100000000000004E-002     6.5510707185940728E-021
  -3.2050000000000002E-002     3.0473164637141373E-020
  -3.2000000000000001E-002     5.1455678650782582E-020
  -3.1949999999999999E-002     6.0701696478006546E-020
  -3.1899999999999998E-002     5.1122475825458387E-020
  -3.1850000000000003E-002     2.0445673415535377E-020
  -3.1800000000000002E-002    -2.6716671006449355E-020
  -3.1750000000000000E-002    -7.8828104682220300E-020
  -3.1699999999999999E-002    -1.1980614673926014E-019
  -3.1649999999999998E-002    -1.3338210489400095E-019
  -3.1600000000000003E-002    -1.0825709711079001E-019
  -3.1550000000000002E-002    -4.2500212583475608E-020
  -3.1500000000000000E-002     5.4200314013061996E-020
  -3.1449999999999999E-002     1.6120003422124401E-019
  -3.1399999999999997E-002     2.5043417993413867E-019
  -3.1350000000000003E-002     2.9212329186160342E-019
  -3.1300000000000001E-002     2.6164098925376180E-019
  -3.1250000000000000E-002     1.4655249469182544E-019
  -3.1199999999999999E-002    -4.7099193387405133E-020
  -3.1150000000000001E-002    -2.9037522889540136E-019
  -3.1100000000000003E-002    -5.3056009279831546E-019
  -3.1050000000000001E-002    -6.9607845231320517E-019
  -3.1000000000000000E-002    -7.0938059583235325E-019
  -3.0949999999999998E-002    -5.0841052350010618E-019
  -3.0900000000000000E-002    -7.3920503163038771E-020
  -3.0850000000000002E-002     5.4459430943916033E-019
  -3.0800000000000001E-002     1.2154320864244410E-018
  -3.0750000000000000E-002     1.7355744410321939E-018
  -3.0699999999999998E-002     1.8734312044376391E-018
  -3.0650000000000000E-002     1.4409277200837518E-018
  -3.0600000000000002E-002     3.7888948187672351E-019
  -3.0550000000000001E-002    -1.1726476578207655E-018
  -3.0499999999999999E-002    -2.8526562626500522E-018
  -3.0449999999999998E-002    -4.1321782617226861E-018
  -3.0400000000000000E-002    -4.4478971057028769E-018
  -3.0350000000000002E-002    -3.3919730152320145E-018
  -3.0300000000000001E-002    -9.0427162210003259E-019
  -3.0249999999999999E-002     2.6039101950572235E-018
  -3.0200000000000001E-002     6.2595514006140415E-018
  -3.0150000000000000E-002     8.9032681926875049E-018
  -3.0100000000000002E-002     9.4093772619238769E-018
  -3.0050000000000000E-002     7.0719811932879060E-018
  -2.9999999999999999E-002     1.9372582216834407E-018
  -2.9950000000000001E-002    -5.0435592178230063E-018
  -2.9899999999999999E-002    -1.2127604756707013E-017
  -2.9850000000000002E-002    -1.7171474424043208E-017
  -2.9800000000000000E-002    -1.8219902421579038E-017
  -2.9749999999999999E-002    -1.4135331145068110E-017
  -2.9700000000000001E-002    -5.0784680271811422E-018
  -2.9650000000000003E-002     7.3247868573254379E-018
  -2.9600000000000001E-002     2.0215139434796691E-017
  -2.9550000000000000E-002     3.0105382043603540E-017
  -2.9499999999999998E-002     3.3728346708504358E-017
  -2.9450000000000000E-002     2.8926135652588255E-017
  -2.9400000000000003E-002     1.5364057343361629E-017
  -2.9350000000000001E-002    -5.1093696277559283E-018
  -2.9300000000000000E-002    -2.8561989056518612E-017
  -2.9249999999999998E-002    -4.9558596053827665E-017
  -2.9200000000000000E-002    -6.2166176369885539E-017
  -2.9150000000000002E-002    -6.1259230364150889E-017
  -2.9100000000000001E-002    -4.3934616762664457E-017
  -2.9049999999999999E-002    -1.0773404543639730E-017
  -2.8999999999999998E-002     3.3380435339035045E-017
  -2.8950000000000000E-002     7.9484135364000939E-017
  -2.8900000000000002E-002     1.1549960226704156E-016
  -2.8850000000000001E-002     1.2882938830187166E-016
  -2.8799999999999999E-002     1.0972708011065928E-016
  -2.8749999999999998E-002     5.4988981620395802E-017
  -2.8700000000000000E-002    -2.9145920447411372E-017
  -2.8650000000000002E-002    -1.2610313946068710E-016
  -2.8600000000000000E-002    -2.1104803254239231E-016
  -2.8549999999999999E-002    -2.5618670599051755E-016
  -2.8500000000000001E-002    -2.3851109949555639E-016
  -2.8450000000000000E-002    -1.4812409120565446E-016
  -2.8400000000000002E-002     5.4490173425971037E-018
  -2.8350000000000000E-002     1.9155737092248367E-016
  -2.8299999999999999E-002     3.6300337976658470E-016
  -2.8250000000000001E-002     4.6684602666541712E-016
  -2.8200000000000003E-002     4.5927357119698935E-016
  -2.8150000000000001E-002     3.2059991526745199E-016
  -2.8100000000000000E-002     6.5651174682006597E-017
  -2.8049999999999999E-002    -2.5452091364294849E-016
  -2.8000000000000001E-002    -5.6153084133889587E-016
  -2.7950000000000003E-002    -7.6801179912305104E-016
  -2.7900000000000001E-002    -8.0118009005918756E-016
  -2.7850000000000000E-002    -6.2526403007834206E-016
  -2.7799999999999998E-002    -2.5614870947286053E-016
  -2.7750000000000000E-002     2.3668430889024916E-016
  -2.7700000000000002E-002     7.4251696513414248E-016
  -2.7650000000000001E-002     1.1337140218327299E-015
  -2.7600000000000000E-002     1.2963187416307821E-015
  -2.7549999999999998E-002     1.1594875247516815E-015
  -2.7500000000000000E-002     7.1660327607766648E-016
  -2.7450000000000002E-002     3.2980454038881763E-017
  -2.7400000000000001E-002    -7.6183033953001633E-016
  -2.7349999999999999E-002    -1.4959779896918235E-015
  -2.7299999999999998E-002    -1.9878308694184048E-015
  -2.7250000000000000E-002    -2.0838793808760754E-015
  -2.7200000000000002E-002    -1.6959926944133428E-015
  -2.7150000000000001E-002    -8.3153417652252241E-016
  -2.7099999999999999E-002     3.9044473775129600E-016
  -2.7049999999999998E-002     1.7434404229650738E-015
  -2.7000000000000000E-002     2.9230180521134651E-015
  -2.6950000000000002E-002     3.6025198380705843E-015
  -2.6900000000000000E-002     3.5093513121788424E-015
  -2.6849999999999999E-002     2.5081132399355649E-015
  -2.6800000000000001E-002     6.6952561500902107E-016
  -2.6749999999999999E-002    -1.6991143577875009E-015
  -2.6700000000000002E-002    -4.0822743845773662E-015
  -2.6650000000000000E-002    -5.8512945595379946E-015
  -2.6599999999999999E-002    -6.4151475219184614E-015
  -2.6550000000000001E-002    -5.3948156338780926E-015
  -2.6500000000000003E-002    -2.7735756755264759E-015
  -2.6450000000000001E-002     1.0279889979710992E-015
  -2.6400000000000000E-002     5.1905147149104745E-015
  -2.6349999999999998E-002     8.6578536257314872E-015
  -2.6300000000000000E-002     1.0395398655780418E-014
  -2.6250000000000002E-002     9.6829198257326940E-015
  -2.6200000000000001E-002     6.3598985601163887E-015
  -2.6150000000000000E-002     9.4455575903815815E-016
  -2.6099999999999998E-002    -5.4236337498809525E-015
  -2.6050000000000000E-002    -1.1220623564470629E-014
  -2.6000000000000002E-002    -1.4903501664542699E-014
  -2.5950000000000001E-002    -1.5313445057643131E-014
  -2.5899999999999999E-002    -1.2007589534429045E-014
  -2.5849999999999998E-002    -5.4264598546550653E-015
  -2.5800000000000000E-002     3.1539000787292991E-015
  -2.5750000000000002E-002     1.1878716500891624E-014
  -2.5700000000000001E-002     1.8719394001152788E-014
  -2.5649999999999999E-002     2.1930026347790746E-014
  -2.5599999999999998E-002     2.0450982827410383E-014
  -2.5550000000000000E-002     1.4173702514070139E-014
  -2.5500000000000002E-002     4.0170356265982774E-015
  -2.5450000000000000E-002    -8.1942393666385309E-015
  -2.5399999999999999E-002    -2.0024877898477936E-014
  -2.5349999999999998E-002    -2.8853593973783484E-014
  -2.5300000000000000E-002    -3.2369648171785587E-014
  -2.5250000000000002E-002    -2.9075662975758335E-014
  -2.5200000000000000E-002    -1.8718706104783265E-014
  -2.5149999999999999E-002    -2.5581158972978349E-015
  -2.5100000000000001E-002     1.6626513320404721E-014
  -2.5049999999999999E-002     3.4865154039772760E-014
  -2.5000000000000001E-002     4.7688036033306638E-014
  -2.4950000000000000E-002     5.1108564456017040E-014
  -2.4899999999999999E-002     4.2719662932685133E-014
  -2.4850000000000001E-002     2.2630750292624133E-014
  -2.4800000000000003E-002    -6.0621467882928055E-015
  -2.4750000000000001E-002    -3.7522630089502537E-014
  -2.4700000000000000E-002    -6.4228076955514562E-014
  -2.4649999999999998E-002    -7.8694449626703936E-014
  -2.4600000000000000E-002    -7.5497421022825000E-014
  -2.4550000000000002E-002    -5.3051480855578946E-014
  -2.4500000000000001E-002    -1.4587336140347989E-014
  -2.4450000000000000E-002     3.2076971798455268E-014
  -2.4399999999999998E-002     7.6068653772589779E-014
  -2.4350000000000000E-002     1.0601463215732759E-013
  -2.4299999999999999E-002     1.1299945138221568E-013
  -2.4250000000000001E-002     9.3128995476483309E-014
  -2.4199999999999999E-002     4.8951524506294955E-014
  -2.4150000000000001E-002    -1.0732571665637746E-014
  -2.4100000000000000E-002    -7.2706322367673193E-014
  -2.4049999999999998E-002    -1.2238956344342877E-013
  -2.4000000000000000E-002    -1.4733826598261765E-013
  -2.3949999999999999E-002    -1.4029451152890993E-013
  -2.3900000000000001E-002    -1.0102503647182267E-013
  -2.3850000000000000E-002    -3.6524714323288454E-014
  -2.3800000000000002E-002     4.0407557658494540E-014
  -2.3750000000000000E-002     1.1382446303840359E-013
  -2.3699999999999999E-002     1.6788198268479892E-013
  -2.3650000000000001E-002     1.9000487104399598E-013
  -2.3599999999999999E-002     1.7340044071515562E-013
  -2.3550000000000001E-002     1.1855497454181250E-013
  -2.3500000000000000E-002     3.3543317653067504E-014
  -2.3449999999999999E-002    -6.6881049124045634E-014
  -2.3400000000000001E-002    -1.6336717096697538E-013
  -2.3349999999999999E-002    -2.3509241945689121E-013
  -2.3300000000000001E-002    -2.6366620708745035E-013
  -2.3250000000000000E-002    -2.3731257001604354E-013
  -2.3199999999999998E-002    -1.5455289871945175E-013
  -2.3150000000000000E-002    -2.6400583896563260E-014
  -2.3099999999999999E-002     1.2390526510184463E-013
  -2.3050000000000001E-002     2.6424099265746552E-013
  -2.3000000000000000E-002     3.5991604641598199E-013
  -2.2950000000000002E-002     3.8194407489735591E-013
  -2.2900000000000000E-002     3.1538309504763210E-013
  -2.2849999999999999E-002     1.6539399333138749E-013
  -2.2800000000000001E-002    -4.1141121308335949E-014
  -2.2749999999999999E-002    -2.5966635036082539E-013
  -2.2700000000000001E-002    -4.3739053174990842E-013
  -2.2650000000000000E-002    -5.2617957302843787E-013
  -2.2599999999999999E-002    -4.9566979260780648E-013
  -2.2550000000000001E-002    -3.4291492321484712E-013
  -2.2499999999999999E-002    -9.5516150651431470E-014
  -2.2450000000000001E-002     1.9318293543098932E-013
  -2.2400000000000000E-002     4.5606199140278153E-013
  -2.2349999999999998E-002     6.2847458585164297E-013
  -2.2300000000000000E-002     6.6456311096769106E-013
  -2.2249999999999999E-002     5.4927534921816326E-013
  -2.2200000000000001E-002     3.0284782121867068E-013
  -2.2150000000000000E-002    -2.3417617211885069E-014
  -2.2100000000000002E-002    -3.5889942714857709E-013
  -2.2050000000000000E-002    -6.2980457975817131E-013
  -2.1999999999999999E-002    -7.7563905457614003E-013
  -2.1950000000000001E-002    -7.6214374471834593E-013
  -2.1899999999999999E-002    -5.8806334836731161E-013
  -2.1850000000000001E-002    -2.8484810328529003E-013
  -2.1800000000000000E-002     8.9955518813100987E-014
  -2.1749999999999999E-002     4.6374933694751801E-013
  -2.1700000000000001E-002     7.6207984494029153E-013
  -2.1649999999999999E-002     9.2187887593520832E-013
  -2.1600000000000001E-002     9.0306259508911259E-013
  -2.1550000000000000E-002     6.9714196516916393E-013
  -2.1499999999999998E-002     3.3159605956864475E-013
  -2.1450000000000000E-002    -1.3125742069794765E-013
  -2.1399999999999999E-002    -6.0196187911485667E-013
  -2.1350000000000001E-002    -9.7848165744025881E-013
  -2.1299999999999999E-002    -1.1664131479521495E-012
  -2.1250000000000002E-002    -1.1016439445231774E-012
  -2.1200000000000000E-002    -7.7041083699566966E-013
  -2.1149999999999999E-002    -2.2083587817952530E-013
  -2.1100000000000001E-002     4.3915171545411560E-013
  -2.1049999999999999E-002     1.0598377438466369E-012
  -2.1000000000000001E-002     1.4817788666297751E-012
  -2.0950000000000000E-002     1.5754045172251050E-012
  -2.0899999999999998E-002     1.2782589269031326E-012
  -2.0850000000000000E-002     6.1910169978457784E-013
  -2.0799999999999999E-002    -2.7955729195925608E-013
  -2.0750000000000001E-002    -1.2236254643198898E-012
  -2.0700000000000000E-002    -1.9905734248976485E-012
  -2.0649999999999998E-002    -2.3834287453347201E-012
  -2.0600000000000000E-002    -2.2816100155541601E-012
  -2.0549999999999999E-002    -1.6746459266812042E-012
  -2.0500000000000001E-002    -6.6901043383233493E-013
  -2.0449999999999999E-002     5.3446724572696981E-013
  -2.0400000000000001E-002     1.6870563219126023E-012
  -2.0350000000000000E-002     2.5503195622937268E-012
  -2.0299999999999999E-002     2.9508985626328415E-012
  -2.0250000000000001E-002     2.8180817254345112E-012
  -2.0199999999999999E-002     2.1955088703611804E-012
  -2.0150000000000001E-002     1.2255980929078718E-012
  -2.0100000000000000E-002     1.1234570897759189E-013
  -2.0049999999999998E-002    -9.2702939498042207E-013
  -2.0000000000000000E-002    -1.7096364410446769E-012
  -1.9949999999999999E-002    -2.1234884632591097E-012
  -1.9900000000000001E-002    -2.1468807836192707E-012
  -1.9850000000000000E-002    -1.8488587343387923E-012
  -1.9799999999999998E-002    -1.3726783948741355E-012
  -1.9750000000000000E-002    -9.0621375470600476E-013
  -1.9699999999999999E-002    -6.4386214568135351E-013
  -1.9650000000000001E-002    -7.4449379865717402E-013
  -1.9599999999999999E-002    -1.2902259137512386E-012
  -1.9550000000000001E-002    -2.2517417182547364E-012
  -1.9500000000000000E-002    -3.4670919832305580E-012
  -1.9449999999999999E-002    -4.6413223853490582E-012
  -1.9400000000000001E-002    -5.3725875996387071E-012
  -1.9349999999999999E-002    -5.2058980237538301E-012
  -1.9300000000000001E-002    -3.7086804299988230E-012
  -1.9250000000000000E-002    -5.5462830578093938E-013
  -1.9199999999999998E-002     4.4034357667356797E-012
  -1.9150000000000000E-002     1.1092190043986059E-011
  -1.9099999999999999E-002     1.9223455215529279E-011
  -1.9050000000000001E-002     2.8351599405790752E-011
  -1.9000000000000000E-002     3.7973392897267535E-011
  -1.8949999999999998E-002     4.7647659123985757E-011
  -1.8900000000000000E-002     5.7104018668347764E-011
  -1.8849999999999999E-002     6.6310299770982763E-011
  -1.8800000000000001E-002     7.5477769076899445E-011
  -1.8749999999999999E-002     8.4999542884708385E-011
  -1.8700000000000001E-002     9.5336581606833851E-011
  -1.8650000000000000E-002     1.0688082826521808E-010
  -1.8599999999999998E-002     1.1983256474581923E-010
  -1.8550000000000001E-002     1.3412566234361209E-010
  -1.8499999999999999E-002     1.4942132418043079E-010
  -1.8450000000000001E-002     1.6517216266740898E-010
  -1.8400000000000000E-002     1.8073956903440590E-010
  -1.8349999999999998E-002     1.9553360203487708E-010
  -1.8300000000000000E-002     2.0914037468161909E-010
  -1.8249999999999999E-002     2.2140676379608859E-010
  -1.8200000000000001E-002     2.3246593205220945E-010
  -1.8149999999999999E-002     2.4270121340643814E-010
  -1.8100000000000002E-002     2.5266191447326274E-010
  -1.8050000000000000E-002     2.6295204348458559E-010
  -1.7999999999999999E-002     2.7411610070384868E-010
  -1.7950000000000001E-002     2.8654214763371212E-010
  -1.7899999999999999E-002     3.0039697606553248E-010
  -1.7850000000000001E-002     3.1560005535171095E-010
  -1.7800000000000000E-002     3.3183821492620181E-010
  -1.7749999999999998E-002     3.4861849292840804E-010
  -1.7700000000000000E-002     3.6535385329834110E-010
  -1.7649999999999999E-002     3.8147161668978749E-010
  -1.7600000000000001E-002     3.9653079737211866E-010
  -1.7550000000000000E-002     4.1032786539095251E-010
  -1.7499999999999998E-002     4.2296786043556376E-010
  -1.7450000000000000E-002     4.3487902674622020E-010
  -1.7399999999999999E-002     4.4675742852950670E-010
  -1.7350000000000001E-002     4.5944288788691591E-010
  -1.7299999999999999E-002     4.7374519869753512E-010
  -1.7250000000000001E-002     4.9025840219799779E-010
  -1.7200000000000000E-002     5.0920808610829980E-010
  -1.7149999999999999E-002     5.3037562702169707E-010
  -1.7100000000000001E-002     5.5312630976132162E-010
  -1.7049999999999999E-002     5.7654310693529889E-010
  -1.7000000000000001E-002     5.9963983414536774E-010
  -1.6950000000000000E-002     6.2160129730557496E-010
  -1.6899999999999998E-002     6.4199001026075961E-010
  -1.6850000000000000E-002     6.6086370530725251E-010
  -1.6799999999999999E-002     6.7877032981464924E-010
  -1.6750000000000001E-002     6.9662066615621071E-010
  -1.6700000000000000E-002     7.1546921689122660E-010
  -1.6649999999999998E-002     7.3626082719353074E-010
  -1.6600000000000000E-002     7.5960705823479012E-010
  -1.6549999999999999E-002     7.8564766469703715E-010
  -1.6500000000000001E-002     8.1402957778643875E-010
  -1.6449999999999999E-002     8.4400415869398222E-010
  -1.6400000000000001E-002     8.7461378544994401E-010
  -1.6350000000000000E-002     9.0492039696698588E-010
  -1.6299999999999999E-002     9.3422232103891952E-010
  -1.6250000000000001E-002     9.6221046638849590E-010
  -1.6199999999999999E-002     9.8903590429812855E-010
  -1.6150000000000001E-002     1.0152808716781321E-009
  -1.6100000000000000E-002     1.0418431805910498E-009
  -1.6049999999999998E-002     1.0697621931776510E-009
  -1.6000000000000000E-002     1.1000191304929084E-009
  -1.5949999999999999E-002     1.1333485352240127E-009
  -1.5900000000000001E-002     1.1700923225706937E-009
  -1.5850000000000000E-002     1.2101229387929766E-009
  -1.5799999999999998E-002     1.2528509347632746E-009
  -1.5750000000000000E-002     1.2973192138674637E-009
  -1.5699999999999999E-002     1.3423751309396934E-009
  -1.5650000000000001E-002     1.3868941248238627E-009
  -1.5599999999999999E-002     1.4300159033384318E-009
  -1.5550000000000001E-002     1.4713461142855927E-009
  -1.5500000000000000E-002     1.5110749656120011E-009
  -1.5449999999999998E-002     1.5499789759876571E-009
  -1.5400000000000000E-002     1.5892942084699470E-009
  -1.5349999999999999E-002     1.6304802464059453E-009
  -1.5300000000000001E-002     1.6749196001302604E-009
  -1.5250000000000000E-002     1.7236211145735040E-009
  -1.5199999999999998E-002     1.7769955640067595E-009
  -1.5150000000000000E-002     1.8347641100035853E-009
  -1.5099999999999999E-002     1.8960237282362323E-009
  -1.5050000000000001E-002     1.9594619986061622E-009
  -1.4999999999999999E-002     2.0236699371484674E-009
  -1.4949999999999998E-002     2.0874785673273496E-009
  -1.4900000000000000E-002     2.1502354795000358E-009
  -1.4849999999999999E-002     2.2119546167603061E-009
  -1.4800000000000001E-002     2.2733021432740665E-009
  -1.4749999999999999E-002     2.3354293130128582E-009
  -1.4700000000000001E-002     2.3996922222520166E-009
  -1.4650000000000000E-002     2.4673347423796415E-009
  -1.4599999999999998E-002     2.5392043348022919E-009
  -1.4550000000000000E-002     2.6155738350151623E-009
  -1.4499999999999999E-002     2.6961024664563813E-009
  -1.4450000000000001E-002     2.7799402018570998E-009
  -1.4400000000000000E-002     2.8659436302887261E-009
  -1.4349999999999998E-002     2.9529535250430321E-009
  -1.4300000000000000E-002     3.0400661767897130E-009
  -1.4249999999999999E-002     3.1268489899651050E-009
  -1.4200000000000001E-002     3.2134546468952145E-009
  -1.4149999999999999E-002     3.3006156313651643E-009
  -1.4099999999999998E-002     3.3895253683327768E-009
  -1.4050000000000000E-002     3.4816194324177463E-009
  -1.3999999999999999E-002     3.5783055461363399E-009
  -1.3950000000000001E-002     3.6806847593348751E-009
  -1.3899999999999999E-002     3.7893181638364649E-009
  -1.3850000000000001E-002     3.9040938539594265E-009
  -1.3800000000000000E-002     4.0242266325622026E-009
  -1.3749999999999998E-002     4.1484000070098894E-009
  -1.3700000000000000E-002     4.2750346000367050E-009
  -1.3649999999999999E-002     4.4026262712079255E-009
  -1.3600000000000001E-002     4.5300907038768059E-009
  -1.3550000000000000E-002     4.6570276439706339E-009
  -1.3499999999999998E-002     4.7838402109519312E-009
  -1.3450000000000000E-002     4.9116764296017044E-009
  -1.3399999999999999E-002     5.0421986198349906E-009
  -1.3350000000000001E-002     5.1772386179910797E-009
  -1.3299999999999999E-002     5.3184187569380456E-009
  -1.3249999999999998E-002     5.4668302851752781E-009
  -1.3200000000000000E-002     5.6228405233648816E-009
  -1.3149999999999998E-002     5.7860661267270188E-009
  -1.3100000000000001E-002     5.9555190326854788E-009
  -1.3049999999999999E-002     6.1298735305109013E-009
  -1.3000000000000001E-002     6.3077922392266410E-009
  -1.2950000000000000E-002     6.4882340793038700E-009
  -1.2899999999999998E-002     6.6706735938846165E-009
  -1.2850000000000000E-002     6.8551985471817564E-009
  -1.2799999999999999E-002     7.0424763506315953E-009