  -4.0000000000000001E-002     0.0000000000000000     
  -3.9949999999999999E-002     0.0000000000000000     
  -3.9899999999999998E-002     0.0000000000000000     
  -3.9850000000000003E-002     0.0000000000000000     
  -3.9800000000000002E-002     0.0000000000000000     
  -3.9750000000000001E-002    -5.9430979530514869E-020
  -3.9699999999999999E-002    -3.4238547235996869E-019
  -3.9649999999999998E-002    -8.2482301676059367E-019
  -3.9600000000000003E-002    -6.0864627749882635E-019
  -3.9550000000000002E-002     2.7161809102392426E-018
  -3.9500000000000000E-002     1.4541953524791950E-017
  -3.9449999999999999E-002     4.9852672034858692E-017
  -3.9399999999999998E-002     1.4812658407353151E-016
  -3.9350000000000003E-002     3.8362401361184894E-016
  -3.9300000000000002E-002     8.3018623036153227E-016
  -3.9250000000000000E-002     1.4317488779053406E-015
  -3.9199999999999999E-002     1.7881547105692937E-015
  -3.9150000000000004E-002     9.9724997299179540E-016
  -3.9100000000000003E-002    -2.1863574587943740E-015
  -3.9050000000000001E-002    -8.6632551771018027E-015
  -3.9000000000000000E-002    -1.7874140924625233E-014
  -3.8949999999999999E-002    -2.6834114256555024E-014
  -3.8900000000000004E-002    -3.0185725266020061E-014
  -3.8850000000000003E-002    -2.1880393940309996E-014
  -3.8800000000000001E-002     1.7823908810351354E-015
  -3.8750000000000000E-002     3.9096854150977265E-014
  -3.8699999999999998E-002     8.1716516821457799E-014
  -3.8650000000000004E-002     1.1647918509235992E-013
  -3.8600000000000002E-002     1.2996067063802081E-013
  -3.8550000000000001E-002     1.1378637451059124E-013
  -3.8500000000000000E-002     6.8083441479906944E-014
  -3.8449999999999998E-002     1.2958777796057073E-015
  -3.8400000000000004E-002    -7.3550191490797634E-014
  -3.8350000000000002E-002    -1.4424006759115792E-013
  -3.8300000000000001E-002    -2.0374453836361406E-013
  -3.8249999999999999E-002    -2.5138369939197202E-013
  -3.8199999999999998E-002    -2.8996862989926489E-013
  -3.8150000000000003E-002    -3.1982507651644415E-013
  -3.8100000000000002E-002    -3.3226102712303137E-013
  -3.8050000000000000E-002    -3.0623124187025989E-013
  -3.7999999999999999E-002    -2.1193795971309174E-013
  -3.7949999999999998E-002    -2.2996542346043246E-014
  -3.7900000000000003E-002     2.6551677047856410E-013
  -3.7850000000000002E-002     6.2073179917667443E-013
  -3.7800000000000000E-002     9.6739975694338128E-013
  -3.7749999999999999E-002     1.2023160246927420E-012
  -3.7699999999999997E-002     1.2269728378840604E-012
  -3.7650000000000003E-002     9.8789251398014033E-013
  -3.7600000000000001E-002     5.0797482845177831E-013
  -3.7550000000000000E-002    -1.0640329878766091E-013
  -3.7499999999999999E-002    -6.8919455008360988E-013
  -3.7449999999999997E-002    -1.0644079198257122E-012
  -3.7400000000000003E-002    -1.1072278159329002E-012
  -3.7350000000000001E-002    -7.9753547851367499E-013
  -3.7300000000000000E-002    -2.4752183978088651E-013
  -3.7249999999999998E-002     3.1021521941445093E-013
  -3.7200000000000004E-002     5.7921647461943392E-013
  -3.7150000000000002E-002     2.9283239856210771E-013
  -3.7100000000000001E-002    -6.7781327175664197E-013
  -3.7050000000000000E-002    -2.2370129083097103E-012
  -3.6999999999999998E-002    -4.0363766947897213E-012
  -3.6950000000000004E-002    -5.5294305702048349E-012
  -3.6900000000000002E-002    -6.1059564130101381E-012
  -3.6850000000000001E-002    -5.2729845650563486E-012
  -3.6799999999999999E-002    -2.8289169960013054E-012
  -3.6749999999999998E-002     1.0251538771013879E-012
  -3.6700000000000003E-002     5.6771341680254975E-012
  -3.6650000000000002E-002     1.0211442573648600E-011
  -3.6600000000000001E-002     1.3614065363509095E-011
  -3.6549999999999999E-002     1.5028446767531113E-011
  -3.6499999999999998E-002     1.3995495136748377E-011
  -3.6450000000000003E-002     1.0606001008479456E-011
  -3.6400000000000002E-002     5.5107019757023388E-012
  -3.6350000000000000E-002    -2.2751070968310884E-013
  -3.6299999999999999E-002    -5.4036171485511644E-012
  -3.6249999999999998E-002    -8.9845083530407166E-012
  -3.6200000000000003E-002    -1.0374249029667473E-011
  -3.6150000000000002E-002    -9.5576223956033408E-012
  -3.6100000000000000E-002    -7.0917339595260276E-012
  -3.6049999999999999E-002    -3.9595000372298264E-012
  -3.6000000000000004E-002    -1.3273082950489861E-012
  -3.5950000000000003E-002    -2.5942537200816325E-013
  -3.5900000000000001E-002    -1.4427262021714990E-012
  -3.5850000000000000E-002    -4.9752572070759331E-012
  -3.5799999999999998E-002    -1.0269316173608208E-011
  -3.5750000000000004E-002    -1.6104779790691893E-011
  -3.5700000000000003E-002    -2.0836182913547544E-011
  -3.5650000000000001E-002    -2.2715810359747684E-011
  -3.5600000000000000E-002    -2.0263442830365878E-011
  -3.5549999999999998E-002    -1.2606153220789239E-011
  -3.5500000000000004E-002     2.7214489172047025E-013
  -3.5450000000000002E-002     1.7407211844168440E-011
  -3.5400000000000001E-002     3.6875204504840338E-011
  -3.5349999999999999E-002     5.5966058762553793E-011
  -3.5299999999999998E-002     7.1503677369188526E-011
  -3.5250000000000004E-002     8.0276455735193109E-011
  -3.5200000000000002E-002     7.9500118854355344E-011
  -3.5150000000000001E-002     6.7204081806172547E-011
  -3.5099999999999999E-002     4.2437240033116118E-011
  -3.5049999999999998E-002     5.2341274594884375E-012
  -3.5000000000000003E-002    -4.3648760110695863E-011
  -3.4950000000000002E-002    -1.0315152410091766E-010
  -3.4900000000000000E-002    -1.7236684421449050E-010
  -3.4849999999999999E-002    -2.5090013238655130E-010
  -3.4799999999999998E-002    -3.3901068738139782E-010
  -3.4750000000000003E-002    -4.3745289113415434E-010
  -3.4700000000000002E-002    -5.4701803915017045E-010
  -3.4650000000000000E-002    -6.6789349351555606E-010
  -3.4599999999999999E-002    -7.9906346183828487E-010
  -3.4549999999999997E-002    -9.3801483332347662E-010
  -3.4500000000000003E-002    -1.0809307460121227E-009
  -3.4450000000000001E-002    -1.2233716629958809E-009
  -3.4400000000000000E-002    -1.3612291033544242E-009
  -3.4349999999999999E-002    -1.4916070036553536E-009
  -3.4299999999999997E-002    -1.6133071900461163E-009
  -3.4250000000000003E-002    -1.7267618669497430E-009
  -3.4200000000000001E-002    -1.8334856526830783E-009
  -3.4150000000000000E-002    -1.9353030914842789E-009
  -3.4099999999999998E-002    -2.0336720477338720E-009
  -3.4049999999999997E-002    -2.1293519529394216E-009
  -3.4000000000000002E-002    -2.2225132100126509E-009
  -3.3950000000000001E-002    -2.3131917054540887E-009
  -3.3900000000000000E-002    -2.4018509273931185E-009
  -3.3849999999999998E-002    -2.4897526314844612E-009
  -3.3799999999999997E-002    -2.5789018350980915E-009
  -3.3750000000000002E-002    -2.6715132412451008E-009
  -3.3700000000000001E-002    -2.7691778997821193E-009
  -3.3649999999999999E-002    -2.8720953678777377E-009
  -3.3599999999999998E-002    -2.9787544309442494E-009
  -3.3550000000000003E-002    -3.0862817326187838E-009
  -3.3500000000000002E-002    -3.1913841599774218E-009
  -3.3450000000000001E-002    -3.2915471975353238E-009
  -3.3399999999999999E-002    -3.3860354941652328E-009
  -3.3349999999999998E-002    -3.4763328584287572E-009
  -3.3300000000000003E-002    -3.5658845552672627E-009
  -3.3250000000000002E-002    -3.6592476438151964E-009
  -3.3200000000000000E-002    -3.7609109515989578E-009
  -3.3149999999999999E-002    -3.8741081758170896E-009
  -3.3099999999999997E-002    -3.9999159426664375E-009
  -3.3050000000000003E-002    -4.1368645609803908E-009
  -3.3000000000000002E-002    -4.2811872809032987E-009
  -3.2950000000000000E-002    -4.4276756606647007E-009
  -3.2899999999999999E-002    -4.5709348761160018E-009
  -3.2850000000000004E-002    -4.7066846791501773E-009
  -3.2800000000000003E-002    -4.8327131042942549E-009
  -3.2750000000000001E-002    -4.9491824831651842E-009
  -3.2700000000000000E-002    -5.0582159498735405E-009
  -3.2649999999999998E-002    -5.1629136463210193E-009
  -3.2600000000000004E-002    -5.2661339504568447E-009
  -3.2550000000000003E-002    -5.3694288627778256E-009
  -3.2500000000000001E-002    -5.4725017123233777E-009
  -3.2450000000000000E-002    -5.5734100061230801E-009
  -3.2399999999999998E-002    -5.6695424190461506E-009
  -3.2350000000000004E-002    -5.7591155005840334E-009
  -3.2300000000000002E-002    -5.8426867253946524E-009
  -3.2250000000000001E-002    -5.9240707426034858E-009
  -3.2199999999999999E-002    -6.0101644920769482E-009
  -3.2149999999999998E-002    -6.1095893342262741E-009
  -3.2100000000000004E-002    -6.2305407239295713E-009
  -3.2050000000000002E-002    -6.3786174704322479E-009
  -3.2000000000000001E-002    -6.5554452879533869E-009
  -3.1949999999999999E-002    -6.7586021224583689E-009
  -3.1899999999999998E-002    -6.9828142607026591E-009
  -3.1850000000000003E-002    -7.2219014328783284E-009
  -3.1800000000000002E-002    -7.4706932299192793E-009
  -3.1750000000000000E-002    -7.7262023451318369E-009
  -3.1699999999999999E-002    -7.9876974271332476E-009
  -3.1649999999999998E-002    -8.2557519041343959E-009
  -3.1600000000000003E-002    -8.5307956518225723E-009
  -3.1550000000000002E-002    -8.8118886564398755E-009
  -3.1500000000000000E-002    -9.0963979377480120E-009
  -3.1449999999999999E-002    -9.3808430412305440E-009
  -3.1399999999999997E-002    -9.6626479371587238E-009
  -3.1350000000000003E-002    -9.9419927629115192E-009
  -3.1300000000000001E-002    -1.0222761509207493E-008
  -3.1250000000000000E-002    -1.0511875712873488E-008
  -3.1199999999999999E-002    -1.0816989802149871E-008
  -3.1150000000000001E-002    -1.1143312793316270E-008
  -3.1100000000000003E-002    -1.1490836632069257E-008
  -3.1050000000000001E-002    -1.1853160477704564E-008
  -3.1000000000000000E-002    -1.2218532538357578E-008
  -3.0949999999999998E-002    -1.2572789941733393E-008
  -3.0900000000000000E-002    -1.2903141561161166E-008
  -3.0850000000000002E-002    -1.3201382113436387E-008
  -3.0800000000000001E-002    -1.3465327148819828E-008
  -3.0750000000000000E-002    -1.3697938553690523E-008
  -3.0699999999999998E-002    -1.3904493359857539E-008
  -3.0650000000000000E-002    -1.4088909822107996E-008
  -3.0600000000000002E-002    -1.4250754249650847E-008
  -3.0550000000000001E-002    -1.4384273515713852E-008
  -3.0499999999999999E-002    -1.4480019230790628E-008
  -3.0449999999999998E-002    -1.4528615528835776E-008
  -3.0400000000000000E-002    -1.4525258487725790E-008
  -3.0350000000000002E-002    -1.4473133652825689E-008
  -3.0300000000000001E-002    -1.4384285480711625E-008
  -3.0249999999999999E-002    -1.4277439618925605E-008
  -3.0200000000000001E-002    -1.4173456349093535E-008
  -3.0150000000000000E-002    -1.4089984845043038E-008
  -3.0100000000000002E-002    -1.4037154197179484E-008
  -3.0050000000000000E-002    -1.4015720397479486E-008
  -2.9999999999999999E-002    -1.4018211505669870E-008
  -2.9950000000000001E-002    -1.4032616031321932E-008
  -2.9899999999999999E-002    -1.4047321950272209E-008
  -2.9850000000000002E-002    -1.4055637153551089E-008
  -2.9800000000000000E-002    -1.4058350148510019E-008
  -2.9749999999999999E-002    -1.4063436327886629E-008
  -2.9700000000000001E-002    -1.4083045010332176E-008
  -2.9650000000000003E-002    -1.4128876298388714E-008
  -2.9600000000000001E-002    -1.4207721454701475E-008
  -2.9550000000000000E-002    -1.4318942798546034E-008
  -2.9499999999999998E-002    -1.4454948910694944E-008
  -2.9450000000000000E-002    -1.4604576665466089E-008
  -2.9400000000000003E-002    -1.4758173387539422E-008
  -2.9350000000000001E-002    -1.4912470544292118E-008
  -2.9300000000000000E-002    -1.5073354849271863E-008
  -2.9249999999999998E-002    -1.5255350818513628E-008
  -2.9200000000000000E-002    -1.5477760191671153E-008
  -2.9150000000000002E-002    -1.5758573426408835E-008
  -2.9100000000000001E-002    -1.6108193068024193E-008
  -2.9049999999999999E-002    -1.6525194879426478E-008
  -2.8999999999999998E-002    -1.6995800696809541E-008
  -2.8950000000000000E-002    -1.7497506674344512E-008
  -2.8900000000000002E-002    -1.8005731780558026E-008
  -2.8850000000000001E-002    -1.8501200407390487E-008
  -2.8799999999999999E-002    -1.8975302048091884E-008
  -2.8749999999999998E-002    -1.9431459477708855E-008
  -2.8700000000000000E-002    -1.9881995133012493E-008
  -2.8650000000000002E-002    -2.0341756029287987E-008
  -2.8600000000000000E-002    -2.0821034674399830E-008
  -2.8549999999999999E-002    -2.1320495759745104E-008
  -2.8500000000000001E-002    -2.1830083049447726E-008
  -2.8450000000000000E-002    -2.2332312397369597E-008
  -2.8400000000000002E-002    -2.2808708558475797E-008
  -2.8350000000000000E-002    -2.3247006029806707E-008
  -2.8299999999999999E-002    -2.3646450058876023E-008
  -2.8250000000000001E-002    -2.4019174142383096E-008
  -2.8200000000000003E-002    -2.4387135698485525E-008
  -2.8150000000000001E-002    -2.4775665503172278E-008
  -2.8100000000000000E-002    -2.5205945820937549E-008
  -2.8049999999999999E-002    -2.5689107458642186E-008
  -2.8000000000000001E-002    -2.6223921300635526E-008
  -2.7950000000000003E-002    -2.6798625309809001E-008
  -2.7900000000000001E-002    -2.7395878415487538E-008
  -2.7850000000000000E-002    -2.7998752166567317E-008
  -2.7799999999999998E-002    -2.8595519918901353E-008
  -2.7750000000000000E-002    -2.9181752309125402E-008
  -2.7700000000000002E-002    -2.9759402088698856E-008
  -2.7650000000000001E-002    -3.0333760042592650E-008
  -2.7600000000000000E-002    -3.0909778454251103E-008
  -2.7549999999999998E-002    -3.1489328438618386E-008
  -2.7500000000000000E-002    -3.2070419284507355E-008
  -2.7450000000000002E-002    -3.2648447617294804E-008
  -2.7400000000000001E-002    -3.3218779454081234E-008
  -2.7349999999999999E-002    -3.3779401281075826E-008
  -2.7299999999999998E-002    -3.4332485974412043E-008
  -2.7250000000000000E-002    -3.4884164735232436E-008
  -2.7200000000000002E-002    -3.5442775443104414E-008
  -2.7150000000000001E-002    -3.6016376586071318E-008
  -2.7099999999999999E-002    -3.6610708977235062E-008
  -2.7049999999999998E-002    -3.7228333525257000E-008
  -2.7000000000000000E-002    -3.7869109690738327E-008
  -2.6950000000000002E-002    -3.8531456642863268E-008
  -2.6900000000000000E-002    -3.9213500665572949E-008
  -2.6849999999999999E-002    -3.9913455489697160E-008
  -2.6800000000000001E-002    -4.0628983640393804E-008
  -2.6749999999999999E-002    -4.1355935550462664E-008
  -2.6700000000000002E-002    -4.2087167288766524E-008
  -2.6650000000000000E-002    -4.2812312855250073E-008
  -2.6599999999999999E-002    -4.3518941983110092E-008
  -2.6550000000000001E-002    -4.4195087316954876E-008
  -2.6500000000000003E-002    -4.4832492452522097E-008
  -2.6450000000000001E-002    -4.5429414132871341E-008
  -2.6400000000000000E-002    -4.5991875533651419E-008
  -2.6349999999999998E-002    -4.6532607593177551E-008
  -2.6300000000000000E-002    -4.7067835552987655E-008
  -2.6250000000000002E-002    -4.7612875788329383E-008
  -2.6200000000000001E-002    -4.8178077753347428E-008
  -2.6150000000000000E-002    -4.8766609938396065E-008
  -2.6099999999999998E-002    -4.9374815203650068E-008
  -2.6050000000000000E-002    -4.9994986264768220E-008
  -2.6000000000000002E-002    -5.0619441644347528E-008
  -2.5950000000000001E-002    -5.1244309995245927E-008
  -2.5899999999999999E-002    -5.1871536678242284E-008
  -2.5849999999999998E-002    -5.2508221289362632E-008
  -2.5800000000000000E-002    -5.3163277993265810E-008
  -2.5750000000000002E-002    -5.3842562921622596E-008
  -2.5700000000000001E-002    -5.4544228682188340E-008
  -2.5649999999999999E-002    -5.5256252540961029E-008
  -2.5599999999999998E-002    -5.5957578748882669E-008
  -2.5550000000000000E-002    -5.6622890959296631E-008
  -2.5500000000000002E-002    -5.7229636342859032E-008
  -2.5450000000000000E-002    -5.7764905425315215E-008
  -2.5399999999999999E-002    -5.8229543669369609E-008
  -2.5349999999999998E-002    -5.8637933589922138E-008
  -2.5300000000000000E-002    -5.9013271503052607E-008
  -2.5250000000000002E-002    -5.9380059377094504E-008
  -2.5200000000000000E-002    -5.9756321501159387E-008
  -2.5149999999999999E-002    -6.0148250798847609E-008
  -2.5100000000000001E-002    -6.0549160250091580E-008
  -2.5049999999999999E-002    -6.0943037494304559E-008
  -2.5000000000000001E-002    -6.1311443628185698E-008
  -2.4950000000000000E-002    -6.1641149944043486E-008
  -2.4899999999999999E-002    -6.1929626616504188E-008
  -2.4850000000000001E-002    -6.2186044199546086E-008
  -2.4800000000000003E-002    -6.2427368343594090E-008
  -2.4750000000000001E-002    -6.2670765517551623E-008
  -2.4700000000000000E-002    -6.2925386464022741E-008
  -2.4649999999999998E-002    -6.3186706850076721E-008
  -2.4600000000000000E-002    -6.3435730479184220E-008
  -2.4550000000000002E-002    -6.3643368864533000E-008
  -2.4500000000000001E-002    -6.3778384573375628E-008
  -2.4450000000000000E-002    -6.3816025244904468E-008
  -2.4399999999999998E-002    -6.3744500394000372E-008
  -2.4350000000000000E-002    -6.3567324696251461E-008
  -2.4299999999999999E-002    -6.3301002546575670E-008
  -2.4250000000000001E-002    -6.2969101990317512E-008
  -2.4199999999999999E-002    -6.2594755375343192E-008
  -2.4150000000000001E-002    -6.2194121820039010E-008
  -2.4100000000000000E-002    -6.1772850950302455E-008
  -2.4049999999999998E-002    -6.1326418465079702E-008
  -2.4000000000000000E-002    -6.0843769873114926E-008
  -2.3949999999999999E-002    -6.0312480282420318E-008
  -2.3900000000000001E-002    -5.9723032453225660E-008
  -2.3850000000000000E-002    -5.9070612874198070E-008
  -2.3800000000000002E-002    -5.8353946482886188E-008
  -2.3750000000000000E-002    -5.7572258446879142E-008
  -2.3699999999999999E-002    -5.6722066451441348E-008
  -2.3650000000000001E-002    -5.5795285997792324E-008
  -2.3599999999999999E-002    -5.4779449687308134E-008
  -2.3550000000000001E-002    -5.3659704820410136E-008
  -2.3500000000000000E-002    -5.2421734664596217E-008
  -2.3449999999999999E-002    -5.1054481204010360E-008
  -2.3400000000000001E-002    -4.9551820734440975E-008
  -2.3349999999999999E-002    -4.7912730192099423E-008
  -2.3300000000000001E-002    -4.6139915745379211E-008
  -2.3250000000000000E-002    -4.4237464072604359E-008
  -2.3199999999999998E-002    -4.2208539004990479E-008
  -2.3150000000000000E-002    -4.0054113625145926E-008
  -2.3099999999999999E-002    -3.7773344931598262E-008
  -2.3050000000000001E-002    -3.5365273078462790E-008
  -2.3000000000000000E-002    -3.2830659613646113E-008
  -2.2950000000000002E-002    -3.0172704250655300E-008
  -2.2900000000000000E-002    -2.7395793749445904E-008
  -2.2849999999999999E-002    -2.4502709421225098E-008
  -2.2800000000000001E-002    -2.1491530559064860E-008
  -2.2749999999999999E-002    -1.8353632077509797E-008
  -2.2700000000000001E-002    -1.5073788958214193E-008
  -2.2650000000000000E-002    -1.1632325923689067E-008
  -2.2599999999999999E-002    -8.0085585628912060E-009
  -2.2550000000000001E-002    -4.1843840465612518E-009
  -2.2499999999999999E-002    -1.4700124385036792E-010
  -2.2450000000000001E-002     4.1100286096353514E-009
  -2.2400000000000000E-002     8.5877508973641581E-009
  -2.2349999999999998E-002     1.3284608195291265E-008
  -2.2300000000000000E-002     1.8200166601488972E-008
  -2.2249999999999999E-002     2.3338339439135449E-008
  -2.2200000000000001E-002     2.8708572271909545E-008
  -2.2150000000000000E-002     3.4324244476612332E-008
  -2.2100000000000002E-002     4.0198820210087369E-008
  -2.2050000000000000E-002     4.6341458213342398E-008
  -2.1999999999999999E-002     5.2754195584017812E-008
  -2.1950000000000001E-002     5.9432152578096672E-008
  -2.1899999999999999E-002     6.6366792392318968E-008
  -2.1850000000000001E-002     7.3551026848742111E-008
  -2.1800000000000000E-002     8.0984281210143560E-008
  -2.1749999999999999E-002     8.8675787593397972E-008
  -2.1700000000000001E-002     9.6645178852675854E-008
  -2.1649999999999999E-002     1.0492003405670477E-007
  -2.1600000000000001E-002     1.1353119791542587E-007
  -2.1550000000000000E-002     1.2250692805024459E-007
  -2.1499999999999998E-002     1.3186786740424268E-007
  -2.1450000000000000E-002     1.4162445611132306E-007
  -2.1399999999999999E-002     1.5177786242670780E-007
  -2.1350000000000001E-002     1.6232424153704993E-007
  -2.1299999999999999E-002     1.7326043448230262E-007
  -2.1250000000000002E-002     1.8458891604495643E-007
  -2.1200000000000000E-002     1.9631968563027036E-007
  -2.1149999999999999E-002     2.0846886271334570E-007
  -2.1100000000000001E-002     2.2105479888731998E-007
  -2.1049999999999999E-002     2.3409360141028618E-007
  -2.1000000000000001E-002     2.4759619427123449E-007
  -2.0950000000000000E-002     2.6156769462176684E-007
  -2.0899999999999998E-002     2.7600916028154313E-007
  -2.0850000000000000E-002     2.9092104653946056E-007
  -2.0799999999999999E-002     3.0630705387385366E-007
  -2.0750000000000001E-002     3.2217730896344372E-007
  -2.0700000000000000E-002     3.3854949072131724E-007
  -2.0649999999999998E-002     3.5544781894821151E-007
  -2.0600000000000000E-002     3.7289951950494086E-007
  -2.0549999999999999E-002     3.9093058973422985E-007
  -2.0500000000000001E-002     4.0956221834839785E-007
  -2.0449999999999999E-002     4.2880963000256632E-007
  -2.0400000000000001E-002     4.4868391270315436E-007
  -2.0350000000000000E-002     4.6919556271466572E-007
  -2.0299999999999999E-002     4.9035807911117792E-007
  -2.0250000000000001E-002     5.1218971025943888E-007
  -2.0199999999999999E-002     5.3471301402597959E-007
  -2.0150000000000001E-002     5.5795223363476833E-007
  -2.0100000000000000E-002     5.8193004618191603E-007
  -2.0049999999999998E-002     6.0666487281789904E-007
  -2.0000000000000000E-002     6.3216953675406503E-007
  -1.9949999999999999E-002     6.5845200639236715E-007
  -1.9900000000000001E-002     6.8551747993401415E-007
  -1.9850000000000000E-002     7.1337210406802389E-007
  -1.9799999999999998E-002     7.4202685294873158E-007
  -1.9750000000000000E-002     7.7150005370694262E-007
  -1.9699999999999999E-002     8.0181763014611995E-007
  -1.9650000000000001E-002     8.3301078236490883E-007
  -1.9599999999999999E-002     8.6511181555446646E-007
  -1.9550000000000001E-002     8.9815014985234346E-007
  -1.9500000000000000E-002     9.3215065038799876E-007
  -1.9449999999999999E-002     9.6713414051832422E-007
  -1.9400000000000001E-002     1.0031200502428544E-006
  -1.9349999999999999E-002     1.0401293104237803E-006
  -1.9300000000000001E-002     1.0781867144364392E-006
  -1.9250000000000000E-002     1.1173211363687055E-006
  -1.9199999999999998E-002     1.1575637881175007E-006
  -1.9150000000000000E-002     1.1989457183490152E-006
  -1.9099999999999999E-002     1.2414945601804553E-006
  -1.9050000000000001E-002     1.2852321852253853E-006
  -1.9000000000000000E-002     1.3301734996704252E-006
  -1.8949999999999998E-002     1.3763285050958954E-006
  -1.8900000000000000E-002     1.4237054759029446E-006
  -1.8849999999999999E-002     1.4723168206265495E-006
  -1.8800000000000001E-002     1.5221827507319871E-006
  -1.8749999999999999E-002     1.5733332742002979E-006
  -1.8700000000000001E-002     1.6258067142547680E-006
  -1.8650000000000000E-002     1.6796450336467047E-006
  -1.8599999999999998E-002     1.7348894468059473E-006
  -1.8550000000000001E-002     1.7915763116048788E-006
  -1.8499999999999999E-002     1.8497359862626577E-006
  -1.8450000000000001E-002     1.9093943192960381E-006
  -1.8400000000000000E-002     1.9705753915945523E-006
  -1.8349999999999998E-002     2.0333045735475742E-006
  -1.8300000000000000E-002     2.0976122654899806E-006
  -1.8249999999999999E-002     2.1635351453519583E-006
  -1.8200000000000001E-002     2.2311154128987029E-006
  -1.8149999999999999E-002     2.3003985978508809E-006
  -1.8100000000000002E-002     2.3714285366106447E-006
  -1.8050000000000000E-002     2.4442432253128176E-006
  -1.7999999999999999E-002     2.5188728748665158E-006
  -1.7950000000000001E-002     2.5953413100826811E-006
  -1.7899999999999999E-002     2.6736686452108422E-006
  -1.7850000000000001E-002     2.7538771355128164E-006
  -1.7800000000000000E-002     2.8359934709990511E-006
  -1.7749999999999998E-002     2.9200508721752785E-006
  -1.7700000000000000E-002     3.0060874858453759E-006
  -1.7649999999999999E-002     3.0941447025586668E-006
  -1.7600000000000001E-002     3.1842657367460026E-006
  -1.7550000000000000E-002     3.2764932256532312E-006
  -1.7499999999999998E-002     3.3708701179159256E-006
  -1.7450000000000000E-002     3.4674389861746495E-006
  -1.7399999999999999E-002     3.5662429508696606E-006
  -1.7350000000000001E-002     3.6673272914046603E-006
  -1.7299999999999999E-002     3.7707418366160241E-006
  -1.7250000000000001E-002     3.8765394148230519E-006
  -1.7200000000000000E-002     3.9847743658492399E-006
  -1.7149999999999999E-002     4.0954983701431374E-006
  -1.7100000000000001E-002     4.2087567032794646E-006
  -1.7049999999999999E-002     4.3245853027808266E-006
  -1.7000000000000001E-002     4.4430142024323359E-006
  -1.6950000000000000E-002     4.5640698854754370E-006
  -1.6899999999999998E-002     4.6877823563206123E-006
  -1.6850000000000000E-002     4.8141874279685811E-006
  -1.6799999999999999E-002     4.9433283238632639E-006
  -1.6750000000000001E-002     5.0752539340440342E-006
  -1.6700000000000000E-002     5.2100163790857870E-006
  -1.6649999999999998E-002     5.3476686886777284E-006
  -1.6600000000000000E-002     5.4882641760610763E-006
  -1.6549999999999999E-002     5.6318522147050261E-006
  -1.6500000000000001E-002     5.7784798714170521E-006
  -1.6449999999999999E-002     5.9281922405254485E-006
  -1.6400000000000001E-002     6.0810366120010911E-006
  -1.6350000000000000E-002     6.2370657626615218E-006
  -1.6299999999999999E-002     6.3963393425070211E-006
  -1.6250000000000001E-002     6.5589235195625242E-006
  -1.6199999999999999E-002     6.7248850255301918E-006
  -1.6150000000000001E-002     6.8942869419077925E-006
  -1.6100000000000000E-002     7.0671828717512777E-006
  -1.6049999999999998E-002     7.2436193813802851E-006
  -1.6000000000000000E-002     7.4236382105168865E-006
  -1.5949999999999999E-002     7.6072788732128711E-006
  -1.5900000000000001E-002     7.7945846803641524E-006
  -1.5850000000000000E-002     7.9856029960460063E-006
  -1.5799999999999998E-002     8.1803856851167001E-006
  -1.5750000000000000E-002     8.3789932613312820E-006
  -1.5699999999999999E-002     8.5814872191934837E-006
  -1.5650000000000001E-002     8.7879322736873535E-006
  -1.5599999999999999E-002     8.9983895483685236E-006
  -1.5550000000000001E-002     9.2129165917554874E-006
  -1.5500000000000000E-002     9.4315661821665377E-006
  -1.5449999999999998E-002     9.6543909356584208E-006
  -1.5400000000000000E-002     9.8814444424127388E-006
  -1.5349999999999999E-002     1.0112788361662885E-005
  -1.5300000000000001E-002     1.0348491545101809E-005
  -1.5250000000000000E-002     1.0588628411024104E-005
  -1.5199999999999998E-002     1.0833270519247536E-005
  -1.5150000000000000E-002     1.1082488087294451E-005
  -1.5099999999999999E-002     1.1336344519201402E-005
  -1.5050000000000001E-002     1.1594897175424154E-005
  -1.4999999999999999E-002     1.1858202652023821E-005
  -1.4949999999999998E-002     1.2126314437310178E-005
  -1.4900000000000000E-002     1.2399286156359997E-005
  -1.4849999999999999E-002     1.2677170095328794E-005
  -1.4800000000000001E-002     1.2960023791710438E-005
  -1.4749999999999999E-002     1.3247908857076960E-005
  -1.4700000000000001E-002     1.3540888912220410E-005
  -1.4650000000000000E-002     1.3839026976176714E-005
  -1.4599999999999998E-002     1.4142384221844791E-005
  -1.4550000000000000E-002     1.4451018044183217E-005
  -1.4499999999999999E-002     1.4764985867662432E-005
  -1.4450000000000001E-002     1.5084347625802076E-005
  -1.4400000000000000E-002     1.5409172261853718E-005
  -1.4349999999999998E-002     1.5739533899187576E-005
  -1.4300000000000000E-002     1.6075507457376183E-005
  -1.4249999999999999E-002     1.6417173122201988E-005
  -1.4200000000000001E-002     1.6764599700627862E-005
  -1.4149999999999999E-002     1.7117858282787092E-005
  -1.4099999999999998E-002     1.7477009730143200E-005
  -1.4050000000000000E-002     1.7842113143059557E-005
  -1.3999999999999999E-002     1.8213223797909986E-005
  -1.3950000000000001E-002     1.8590396436851642E-005
  -1.3899999999999999E-002     1.8973684974134727E-005
  -1.3850000000000001E-002     1.9363147151702740E-005
  -1.3800000000000000E-002     1.9758849743043470E-005
  -1.3749999999999998E-002     2.0160863631006556E-005
  -1.3700000000000000E-002     2.0569256127516317E-005
  -1.3649999999999999E-002     2.0984090734058580E-005
  -1.3600000000000001E-002     2.1405430765797092E-005
  -1.3550000000000000E-002     2.1833332164762871E-005
  -1.3499999999999998E-002     2.2267849130753753E-005
  -1.3450000000000000E-002     2.2709044550712649E-005
  -1.3399999999999999E-002     2.3156981319205620E-005
  -1.3350000000000001E-002     2.3611727373877575E-005
  -1.3299999999999999E-002     2.4073355904364128E-005
  -1.3249999999999998E-002     2.4541936839678975E-005
  -1.3200000000000000E-002     2.5017537517910276E-005
  -1.3149999999999998E-002     2.5500222218124527E-005
  -1.3100000000000001E-002     2.5990055796849522E-005
  -1.3049999999999999E-002     2.6487096988335585E-005
  -1.3000000000000001E-002     2.6991395273713703E-005
  -1.2950000000000000E-002     2.7503004373031323E-005
  -1.2899999999999998E-002     2.8021976205067881E-005
  -1.2850000000000000E-002     2.8548369812740427E-005
  -1.2799999999999999E-002     2.9082246351008309E-005