  -4.0000000000000001E-002     0.0000000000000000     
  -3.9949999999999999E-002     0.0000000000000000     
  -3.9899999999999998E-002     0.0000000000000000     
  -3.9850000000000003E-002     0.0000000000000000     
  -3.9800000000000002E-002     0.0000000000000000     
  -3.9750000000000001E-002     0.0000000000000000     
  -3.9699999999999999E-002     0.0000000000000000     
  -3.9649999999999998E-002     0.0000000000000000     
  -3.9600000000000003E-002     0.0000000000000000     
  -3.9550000000000002E-002     0.0000000000000000     
  -3.9500000000000000E-002     8.0472799359163517E-029
  -3.9449999999999999E-002     1.0408800086078715E-027
  -3.9399999999999998E-002     6.2681255862485614E-027
  -3.9350000000000003E-002     2.1860510761927865E-026
  -3.9300000000000002E-002     3.9568439832781263E-026
  -3.9250000000000000E-002    -2.4246145471474908E-026
  -3.9199999999999999E-002    -4.2621519162344732E-025
  -3.9150000000000004E-002    -1.5985854772271895E-024
  -3.9100000000000003E-002    -3.7941676518554743E-024
  -3.9050000000000001E-002    -6.2517679282551463E-024
  -3.9000000000000000E-002    -6.3260339306427240E-024
  -3.8949999999999999E-002     6.3481294201214748E-025
  -3.8900000000000004E-002     2.1145214334014695E-023
  -3.8850000000000003E-002     6.6292331615230917E-023
  -3.8800000000000001E-002     1.5911311900430202E-022
  -3.8750000000000000E-002     3.3444747576035530E-022
  -3.8699999999999998E-002     5.9380868397101687E-022
  -3.8650000000000004E-002     7.7233782531527222E-022
  -3.8600000000000002E-002     3.4655290336214095E-022
  -3.8550000000000001E-002    -1.6145947590322072E-021
  -3.8500000000000000E-002    -5.9820468998006241E-021
  -3.8449999999999998E-002    -1.2310120362719871E-020
  -3.8400000000000004E-002    -1.7154773940528998E-020
  -3.8350000000000002E-002    -1.3379360165612351E-020
  -3.8300000000000001E-002     7.4847875913418085E-021
  -3.8249999999999999E-002     4.8729040164033604E-020
  -3.8199999999999998E-002     9.9918488658334627E-020
  -3.8150000000000003E-002     1.3250916469671659E-019
  -3.8100000000000002E-002     1.0732482712609781E-019
  -3.8050000000000000E-002    -3.2068950170603601E-021
  -3.7999999999999999E-002    -1.8635987598223474E-019
  -3.7949999999999998E-002    -3.7374701972911605E-019
  -3.7900000000000003E-002    -4.6033218756640226E-019
  -3.7850000000000002E-002    -3.6226123351356295E-019
  -3.7800000000000000E-002    -8.7661995299228603E-020
  -3.7749999999999999E-002     2.3074469172074721E-019
  -3.7699999999999997E-002     3.8845642368350673E-019
  -3.7650000000000003E-002     2.4975325532443374E-019
  -3.7600000000000001E-002    -9.1363846285828799E-020
  -3.7550000000000000E-002    -2.4887592954741674E-019
  -3.7499999999999999E-002     3.1339606957997357E-019
  -3.7449999999999997E-002     1.9270937449420249E-018
  -3.7400000000000003E-002     4.2904977240290746E-018
  -3.7350000000000001E-002     6.2248106088929331E-018
  -3.7300000000000000E-002     5.8818552311573186E-018
  -3.7249999999999998E-002     1.5151693806682417E-018
  -3.7200000000000004E-002    -7.3623474879589755E-018
  -3.7150000000000002E-002    -1.8924978436110093E-017
  -3.7100000000000001E-002    -2.8750193224905155E-017
  -3.7050000000000000E-002    -3.0846045057723019E-017
  -3.6999999999999998E-002    -2.0044220801431779E-017
  -3.6950000000000004E-002     4.9303390987919294E-018
  -3.6900000000000002E-002     3.9088032357796230E-017
  -3.6850000000000001E-002     7.1072152190189470E-017
  -3.6799999999999999E-002     8.6268061910177944E-017
  -3.6749999999999998E-002     7.2646580806832174E-017
  -3.6700000000000003E-002     2.7197678653440716E-017
  -3.6650000000000002E-002    -4.0188548498011285E-017
  -3.6600000000000001E-002    -1.0804870210364279E-016
  -3.6549999999999999E-002    -1.5040967437432476E-016
  -3.6499999999999998E-002    -1.4717911858080269E-016
  -3.6450000000000003E-002    -9.3252457066839793E-017
  -3.6400000000000002E-002    -1.7279573897472256E-018
  -3.6350000000000000E-002     1.0075076091727659E-016
  -3.6299999999999999E-002     1.8437661820475183E-016
  -3.6249999999999998E-002     2.2678431116369085E-016
  -3.6200000000000003E-002     2.1803788139789656E-016
  -3.6150000000000002E-002     1.5758783746956501E-016
  -3.6100000000000000E-002     4.6462465844373954E-017
  -3.6049999999999999E-002    -1.1747567258523571E-016
  -3.6000000000000004E-002    -3.3344967490015130E-016
  -3.5950000000000003E-002    -5.7932059064771989E-016
  -3.5900000000000001E-002    -7.8949707764533208E-016
  -3.5850000000000000E-002    -8.4674675590966243E-016
  -3.5799999999999998E-002    -6.0618242210893747E-016
  -3.5750000000000004E-002     4.1725814731379800E-017
  -3.5700000000000003E-002     1.0838945518755700E-015
  -3.5650000000000001E-002     2.3108428230289148E-015
  -3.5600000000000000E-002     3.3052532683887122E-015
  -3.5549999999999998E-002     3.5301079745823925E-015
  -3.5500000000000004E-002     2.5170992315710512E-015
  -3.5450000000000002E-002     1.0544989882042830E-016
  -3.5400000000000001E-002    -3.3618102939022756E-015
  -3.5349999999999999E-002    -6.9887908613619498E-015
  -3.5299999999999998E-002    -9.4955039676532814E-015
  -3.5250000000000004E-002    -9.5991990644869687E-015
  -3.5200000000000002E-002    -6.5100319828885572E-015
  -3.5150000000000001E-002    -3.7000137553702795E-016
  -3.5099999999999999E-002     7.5530017856336619E-015
  -3.5049999999999998E-002     1.5047642286912868E-014
  -3.5000000000000003E-002     1.9529586370840601E-014
  -3.4950000000000002E-002     1.8865399108661722E-014
  -3.4900000000000000E-002     1.2196785961211036E-014
  -3.4849999999999999E-002     4.7080150321569465E-016
  -3.4799999999999998E-002    -1.3556335056145823E-014
  -3.4750000000000003E-002    -2.5919738548530696E-014
  -3.4700000000000002E-002    -3.2528715433525022E-014
  -3.4650000000000000E-002    -3.0432876431580124E-014
  -3.4599999999999999E-002    -1.8883261087923234E-014
  -3.4549999999999997E-002     1.6421855603392962E-016
  -3.4500000000000003E-002     2.2301974052889351E-014
  -3.4450000000000001E-002     4.1656505934945866E-014
  -3.4400000000000000E-002     5.2363846778907367E-014
  -3.4349999999999999E-002     5.0148033136571664E-014
  -3.4299999999999997E-002     3.3589955490778693E-014
  -3.4250000000000003E-002     4.7649329357195099E-015
  -3.4200000000000001E-002    -3.0904889181417229E-014
  -3.4150000000000000E-002    -6.5554166754299890E-014
  -3.4099999999999998E-002    -9.0361195049586230E-014
  -3.4049999999999997E-002    -9.7366093156868698E-014
  -3.4000000000000002E-002    -8.1341347255645687E-014
  -3.3950000000000001E-002    -4.1425427422006937E-014
  -3.3900000000000000E-002     1.7794489020544196E-014
  -3.3849999999999998E-002     8.6096372084037570E-014
  -3.3799999999999997E-002     1.4866661427501052E-013
  -3.3750000000000002E-002     1.8856879272170296E-013
  -3.3700000000000001E-002     1.9051871507151499E-013
  -3.3649999999999999E-002     1.4537472720875784E-013
  -3.3599999999999998E-002     5.4254971283177958E-014
  -3.3550000000000003E-002    -6.9118314580263161E-014
  -3.3500000000000002E-002    -1.9914960909122888E-013
  -3.3450000000000001E-002    -3.0285504433670324E-013
  -3.3399999999999999E-002    -3.4769742108699551E-013
  -3.3349999999999998E-002    -3.1111223688725915E-013
  -3.3300000000000003E-002    -1.8907314124988580E-013
  -3.3250000000000002E-002    -7.5442969643960328E-016
  -3.3200000000000000E-002     2.1296970132847537E-013
  -3.3149999999999999E-002     3.9784850675703012E-013
  -3.3099999999999997E-002     4.9994078352459546E-013
  -3.3050000000000003E-002     4.8123171179959738E-013
  -3.3000000000000002E-002     3.3263739760541855E-013
  -3.2950000000000000E-002     8.0096007695605101E-014
  -3.2899999999999999E-002    -2.1887745100179904E-013
  -3.2850000000000004E-002    -4.8810626569178433E-013
  -3.2800000000000003E-002    -6.5216829169413151E-013
  -3.2750000000000001E-002    -6.5716357351812698E-013
  -3.2700000000000000E-002    -4.8697023637742203E-013
  -3.2649999999999998E-002    -1.7016847463400873E-013
  -3.2600000000000004E-002     2.2466313288725293E-013
  -3.2550000000000003E-002     6.0433253878144127E-013
  -3.2500000000000001E-002     8.7319520559166300E-013
  -3.2450000000000000E-002     9.5640003910849800E-013
  -3.2399999999999998E-002     8.1840968603190241E-013
  -3.2350000000000004E-002     4.7246079221612527E-013
  -3.2300000000000002E-002    -2.0882954124060299E-014
  -3.2250000000000001E-002    -5.6526892990459403E-013
  -3.2199999999999999E-002    -1.0473140430155182E-012
  -3.2149999999999998E-002    -1.3586866019542257E-012
  -3.2100000000000004E-002    -1.4175842267359059E-012
  -3.2050000000000002E-002    -1.1862582213570809E-012
  -3.2000000000000001E-002    -6.8195566884811075E-013
  -3.1949999999999999E-002     2.0760061971471211E-014
  -3.1899999999999998E-002     7.9779185586830304E-013
  -3.1850000000000003E-002     1.4939667767962858E-012
  -3.1800000000000002E-002     1.9510893501842342E-012
  -3.1750000000000000E-002     2.0420310011884951E-012
  -3.1699999999999999E-002     1.7044978227856373E-012
  -3.1649999999999998E-002     9.6601497600745498E-013
  -3.1600000000000003E-002    -4.8505568195429753E-014
  -3.1550000000000002E-002    -1.1326135320805125E-012
  -3.1500000000000000E-002    -2.0381583663813105E-012
  -3.1449999999999999E-002    -2.5326177388110902E-012
  -3.1399999999999997E-002    -2.4608193855352890E-012
  -3.1350000000000003E-002    -1.7942538137223328E-012
  -3.1300000000000001E-002    -6.5219483952204284E-013
  -3.1250000000000000E-002     7.1495240267844240E-013
  -3.1199999999999999E-002     1.9795989667532787E-012
  -3.1150000000000001E-002     2.8166595172072037E-012
  -3.1100000000000003E-002     2.9887736661697626E-012
  -3.1050000000000001E-002     2.4136475240292382E-012
  -3.1000000000000000E-002     1.1937146897503768E-012
  -3.0949999999999998E-002    -4.0193706416080068E-013
  -3.0900000000000000E-002    -2.0002802823231275E-012
  -3.0850000000000002E-002    -3.2159424930521885E-012
  -3.0800000000000001E-002    -3.7476038666613188E-012
  -3.0750000000000000E-002    -3.4536722546146987E-012
  -3.0699999999999998E-002    -2.3875544035095831E-012
  -3.0650000000000000E-002    -7.8408847086345562E-013
  -3.0600000000000002E-002     9.9810084791532517E-013
  -3.0550000000000001E-002     2.5623822870296747E-012
  -3.0499999999999999E-002     3.5659500245495042E-012
  -3.0449999999999998E-002     3.7958218790419415E-012
  -3.0400000000000000E-002     3.2128286587634687E-012
  -3.0350000000000002E-002     1.9563429890684522E-012
  -3.0300000000000001E-002     3.1171139210480429E-013
  -3.0249999999999999E-002    -1.3505488006774583E-012
  -3.0200000000000001E-002    -2.6508661690591228E-012
  -3.0150000000000000E-002    -3.2783322877772311E-012
  -3.0100000000000002E-002    -3.0574773109375892E-012
  -3.0050000000000000E-002    -1.9934855674508114E-012
  -2.9999999999999999E-002    -2.8738364405714999E-013
  -2.9950000000000001E-002     1.6846531675415018E-012
  -2.9899999999999999E-002     3.4296620071408985E-012
  -2.9850000000000002E-002     4.4295621676464754E-012
  -2.9800000000000000E-002     4.2537742330030386E-012
  -2.9749999999999999E-002     2.6724056819317370E-012
  -2.9700000000000001E-002    -2.5561543587782558E-013
  -2.9650000000000003E-002    -4.1445422856350011E-012
  -2.9600000000000001E-002    -8.3110492340330342E-012
  -2.9550000000000000E-002    -1.1873014179631319E-011
  -2.9499999999999998E-002    -1.3901956018039908E-011
  -2.9450000000000000E-002    -1.3596720248898511E-011
  -2.9400000000000003E-002    -1.0436742480473869E-011
  -2.9350000000000001E-002    -4.2750433717961351E-012
  -2.9300000000000000E-002     4.6554890592914147E-012
  -2.9249999999999998E-002     1.5826797822354425E-011
  -2.9200000000000000E-002     2.8570788978979161E-011
  -2.9150000000000002E-002     4.2264188846424548E-011
  -2.9100000000000001E-002     5.6493058603161883E-011
  -2.9049999999999999E-002     7.1151601855619025E-011
  -2.8999999999999998E-002     8.6447688919928167E-011
  -2.8950000000000000E-002     1.0281292965900846E-010
  -2.8900000000000002E-002     1.2074193077048832E-010
  -2.8850000000000001E-002     1.4060453717810105E-010
  -2.8799999999999999E-002     1.6248269699920217E-010
  -2.8749999999999998E-002     1.8607690530127136E-010
  -2.8700000000000000E-002     2.1070842966714332E-010
  -2.8650000000000002E-002     2.3541944314659121E-010
  -2.8600000000000000E-002     2.5914808809022722E-010
  -2.8549999999999999E-002     2.8093768892489760E-010
  -2.8500000000000001E-002     3.0013159686469821E-010
  -2.8450000000000000E-002     3.1650996581158332E-010
  -2.8400000000000002E-002     3.3033922178099612E-010
  -2.8350000000000000E-002     3.4232535679343384E-010
  -2.8299999999999999E-002     3.5348362697385397E-010
  -2.8250000000000001E-002     3.6495334865611274E-010
  -2.8200000000000003E-002     3.7779557035849676E-010
  -2.8150000000000001E-002     3.9281185299268877E-010
  -2.8100000000000000E-002     4.1041449973236759E-010
  -2.8049999999999999E-002     4.3056699783396715E-010
  -2.8000000000000001E-002     4.5280018223230519E-010
  -2.7950000000000003E-002     4.7629863142641299E-010
  -2.7900000000000001E-002     5.0004346280524984E-010
  -2.7850000000000000E-002     5.2299046443378202E-010
  -2.7799999999999998E-002     5.4425839587873436E-010
  -2.7750000000000000E-002     5.6329850317270361E-010
  -2.7700000000000002E-002     5.8001355256973567E-010
  -2.7650000000000001E-002     5.9479765836293075E-010
  -2.7600000000000000E-002     6.0847775766913087E-010
  -2.7549999999999998E-002     6.2215737315507626E-010
  -2.7500000000000000E-002     6.3698728596852437E-010
  -2.7450000000000002E-002     6.5391371870655990E-010
  -2.7400000000000001E-002     6.7346754084958682E-010
  -2.7349999999999999E-002     6.9565617642595233E-010
  -2.7299999999999998E-002     7.1999430201568513E-010
  -2.7250000000000000E-002     7.4567075506504423E-010
  -2.7200000000000002E-002     7.7180612130498095E-010
  -2.7150000000000001E-002     7.9772329063322412E-010
  -2.7099999999999999E-002     8.2314685686948707E-010
  -2.7049999999999998E-002     8.4827116490242301E-010
  -2.7000000000000000E-002     8.7367681722726880E-010
  -2.6950000000000002E-002     9.0012791080201227E-010
  -2.6900000000000000E-002     9.2831733490047050E-010
  -2.6849999999999999E-002     9.5864117474564059E-010
  -2.6800000000000001E-002     9.9106774309907046E-010
  -2.6749999999999999E-002     1.0251341217976214E-009
  -2.6700000000000002E-002     1.0600584713429593E-009
  -2.6650000000000000E-002     1.0949307139701445E-009
  -2.6599999999999999E-002     1.1289288287613393E-009
  -2.6550000000000001E-002     1.1615114383025988E-009
  -2.6500000000000003E-002     1.1925570952533744E-009
  -2.6450000000000001E-002     1.2224324019312771E-009
  -2.6400000000000000E-002     1.2519826075992078E-009
  -2.6349999999999998E-002     1.2824448556700550E-009
  -2.6300000000000000E-002     1.3152842815387252E-009
  -2.6250000000000002E-002     1.3519671337929044E-009
  -2.6200000000000001E-002     1.3936993625295761E-009
  -2.6150000000000000E-002     1.4411806658784871E-009
  -2.6099999999999998E-002     1.4944318938726616E-009
  -2.6050000000000000E-002     1.5527479719857160E-009
  -2.6000000000000002E-002     1.6148020702391050E-009
  -2.5950000000000001E-002     1.6788831233997480E-009
  -2.5899999999999999E-002     1.7432142145591720E-009
  -2.5849999999999998E-002     1.8062724922632298E-009
  -2.5800000000000000E-002     1.8670313097606910E-009
  -2.5750000000000002E-002     1.9250790088824460E-009
  -2.5700000000000001E-002     1.9806067309325671E-009
  -2.5649999999999999E-002     2.0342897736366049E-009
  -2.5599999999999998E-002     2.0871189396571270E-009
  -2.5550000000000000E-002     2.1402268831297010E-009
  -2.5500000000000002E-002     2.1947392245028810E-009
  -2.5450000000000000E-002     2.2516595010396873E-009
  -2.5399999999999999E-002     2.3117877011585628E-009
  -2.5349999999999998E-002     2.3756650218904283E-009
  -2.5300000000000000E-002     2.4435541955809749E-009
  -2.5250000000000002E-002     2.5154696543120591E-009
  -2.5200000000000000E-002     2.5912644394046028E-009
  -2.5149999999999999E-002     2.6707571629714798E-009
  -2.5100000000000001E-002     2.7538643316069310E-009
  -2.5049999999999999E-002     2.8406847542683893E-009
  -2.5000000000000001E-002     2.9314897023208857E-009
  -2.4950000000000000E-002     3.0266126446018021E-009
  -2.4899999999999999E-002     3.1262722996775850E-009
  -2.4850000000000001E-002     3.2303974734109202E-009
  -2.4800000000000003E-002     3.3385409629354118E-009
  -2.4750000000000001E-002     3.4499325324395481E-009
  -2.4700000000000000E-002     3.5636731694070093E-009
  -2.4649999999999998E-002     3.6790078570355593E-009
  -2.4600000000000000E-002     3.7955776213244820E-009
  -2.4550000000000002E-002     3.9135667837483382E-009
  -2.4500000000000001E-002     4.0336951398859629E-009
  -2.4450000000000000E-002     4.1570657414279644E-009
  -2.4399999999999998E-002     4.2849395295648452E-009
  -2.4350000000000000E-002     4.4185058978030358E-009
  -2.4299999999999999E-002     4.5587092687501517E-009
  -2.4250000000000001E-002     4.7061384095760701E-009
  -2.4199999999999999E-002     4.8609629489956475E-009
  -2.4150000000000001E-002     5.0228806523496170E-009
  -2.4100000000000000E-002     5.1910675746644620E-009
  -2.4049999999999998E-002     5.3641622707009597E-009
  -2.4000000000000000E-002     5.5403451967786439E-009
  -2.3949999999999999E-002     5.7175533347305877E-009
  -2.3900000000000001E-002     5.8938168342755530E-009
  -2.3850000000000000E-002     6.0676576994377689E-009
  -2.3800000000000002E-002     6.2384203695982018E-009
  -2.3750000000000000E-002     6.4064198656796290E-009
  -2.3699999999999999E-002     6.5728498084572969E-009
  -2.3650000000000001E-002     6.7394880241526995E-009
  -2.3599999999999999E-002     6.9083092228355457E-009
  -2.3550000000000001E-002     7.0811700754098116E-009
  -2.3500000000000000E-002     7.2596697468420494E-009
  -2.3449999999999999E-002     7.4452201443091973E-009
  -2.3400000000000001E-002     7.6392389558092719E-009
  -2.3349999999999999E-002     7.8433467754325712E-009
  -2.3300000000000001E-002     8.0594160430722406E-009
  -2.3250000000000000E-002     8.2894317846052897E-009
  -2.3199999999999998E-002     8.5352094358836911E-009
  -2.3150000000000000E-002     8.7980710184809717E-009
  -2.3099999999999999E-002     9.0786232453871723E-009
  -2.3050000000000001E-002     9.3767143871612504E-009
  -2.3000000000000000E-002     9.6915645007032559E-009
  -2.2950000000000002E-002     1.0021988617502349E-008
  -2.2900000000000000E-002     1.0366607551138948E-008
  -2.2849999999999999E-002     1.0723980011812739E-008
  -2.2800000000000001E-002     1.1092646294101240E-008
  -2.2749999999999999E-002     1.1471154870549560E-008
  -2.2700000000000001E-002     1.1858147048302209E-008
  -2.2650000000000000E-002     1.2252519591190443E-008
  -2.2599999999999999E-002     1.2653632683653881E-008
  -2.2550000000000001E-002     1.3061444091356920E-008
  -2.2499999999999999E-002     1.3476474874119843E-008
  -2.2450000000000001E-002     1.3899550745541149E-008
  -2.2400000000000000E-002     1.4331363159868473E-008
  -2.2349999999999998E-002     1.4772020848919185E-008
  -2.2300000000000000E-002     1.5220747849597852E-008
  -2.2249999999999999E-002     1.5675861367684892E-008
  -2.2200000000000001E-002     1.6135013182333179E-008
  -2.2150000000000000E-002     1.6595629389473230E-008
  -2.2100000000000002E-002     1.7055366670279274E-008
  -2.2050000000000000E-002     1.7512462971032866E-008
  -2.1999999999999999E-002     1.7965912532221269E-008
  -2.1950000000000001E-002     1.8415490700500549E-008
  -2.1899999999999999E-002     1.8861752796867045E-008
  -2.1850000000000001E-002     1.9306098369880699E-008
  -2.1800000000000000E-002     1.9750898092855209E-008
  -2.1749999999999999E-002     2.0199656434302927E-008
  -2.1700000000000001E-002     2.0657034116114997E-008
  -2.1649999999999999E-002     2.1128662250398340E-008
  -2.1600000000000001E-002     2.1620757719083906E-008
  -2.1550000000000000E-002     2.2139609130999306E-008
  -2.1499999999999998E-002     2.2691171301053204E-008
  -2.1450000000000000E-002     2.3280861099571006E-008
  -2.1399999999999999E-002     2.3913636844238574E-008
  -2.1350000000000001E-002     2.4594244064928517E-008
  -2.1299999999999999E-002     2.5327407820412323E-008
  -2.1250000000000002E-002     2.6117796612644039E-008
  -2.1200000000000000E-002     2.6969702771416066E-008
  -2.1149999999999999E-002     2.7886510381155270E-008
  -2.1100000000000001E-002     2.8870182516940030E-008
  -2.1049999999999999E-002     2.9920949869260780E-008
  -2.1000000000000001E-002     3.1037417884883070E-008
  -2.0950000000000000E-002     3.2217049039298500E-008
  -2.0899999999999998E-002     3.3456773168713799E-008
  -2.0850000000000000E-002     3.4753517485063664E-008
  -2.0799999999999999E-002     3.6104433479518916E-008
  -2.0750000000000001E-002     3.7506815403270160E-008
  -2.0700000000000000E-002     3.8957838843798822E-008
  -2.0649999999999998E-002     4.0454304818548517E-008
  -2.0600000000000000E-002     4.1992561771622458E-008
  -2.0549999999999999E-002     4.3568721630463529E-008
  -2.0500000000000001E-002     4.5178944589393443E-008
  -2.0449999999999999E-002     4.6819599389108427E-008
  -2.0400000000000001E-002     4.8487123816438354E-008
  -2.0350000000000000E-002     5.0177579912745600E-008
  -2.0299999999999999E-002     5.1886105230243304E-008
  -2.0250000000000001E-002     5.3606555685770327E-008
  -2.0199999999999999E-002     5.5331602586735032E-008
  -2.0150000000000001E-002     5.7053401321001638E-008
  -2.0100000000000000E-002     5.8764587122952041E-008
  -2.0049999999999998E-002     6.0459346346012704E-008
  -2.0000000000000000E-002     6.2134018889028475E-008
  -1.9949999999999999E-002     6.3787202976590904E-008
  -1.9900000000000001E-002     6.5419313923470400E-008
  -1.9850000000000000E-002     6.7031954266948554E-008
  -1.9799999999999998E-002     6.8627369181758353E-008
  -1.9750000000000000E-002     7.0208315807633177E-008
  -1.9699999999999999E-002     7.1778311343923659E-008
  -1.9650000000000001E-002     7.3342040621584999E-008
  -1.9599999999999999E-002     7.4905635058572774E-008
  -1.9550000000000001E-002     7.6476593460243170E-008
  -1.9500000000000000E-002     7.8063206223614642E-008
  -1.9449999999999999E-002     7.9673669169295251E-008
  -1.9400000000000001E-002     8.1315313481704839E-008
  -1.9349999999999999E-002     8.2994061184902466E-008
  -1.9300000000000001E-002     8.4714471552506398E-008
  -1.9250000000000000E-002     8.6480131579295801E-008
  -1.9199999999999998E-002     8.8294164580830049E-008
  -1.9150000000000000E-002     9.0159548833179839E-008
  -1.9099999999999999E-002     9.2079096340499216E-008
  -1.9050000000000001E-002     9.4055182912744363E-008
  -1.9000000000000000E-002     9.6089488524518645E-008
  -1.8949999999999998E-002     9.8182945325384781E-008
  -1.8900000000000000E-002     1.0033607769484709E-007
  -1.8849999999999999E-002     1.0254948863513513E-007
  -1.8800000000000001E-002     1.0482442544210077E-007
  -1.8749999999999999E-002     1.0716302644924910E-007
  -1.8700000000000001E-002     1.0956835812401247E-007
  -1.8650000000000000E-002     1.1204395735057656E-007
  -1.8599999999999998E-002     1.1459327901153289E-007
  -1.8550000000000001E-002     1.1721914043474293E-007
  -1.8499999999999999E-002     1.1992353858224680E-007
  -1.8450000000000001E-002     1.2270759163664110E-007
  -1.8400000000000000E-002     1.2557166941633654E-007
  -1.8349999999999998E-002     1.2851561322260313E-007
  -1.8300000000000000E-002     1.3153866324148512E-007
  -1.8249999999999999E-002     1.3463951283731205E-007
  -1.8200000000000001E-002     1.3781620815384793E-007
  -1.8149999999999999E-002     1.4106635685755463E-007
  -1.8100000000000002E-002     1.4438751237300982E-007
  -1.8050000000000000E-002     1.4777781528726316E-007
  -1.7999999999999999E-002     1.5123674925360636E-007
  -1.7950000000000001E-002     1.5476541712185834E-007
  -1.7899999999999999E-002     1.5836636626401261E-007
  -1.7850000000000001E-002     1.6204315179981905E-007
  -1.7800000000000000E-002     1.6579975573792359E-007
  -1.7749999999999998E-002     1.6964018385554616E-007
  -1.7700000000000000E-002     1.7356843816782919E-007
  -1.7649999999999999E-002     1.7758880688133074E-007
  -1.7600000000000001E-002     1.8170586264842265E-007
  -1.7550000000000000E-002     1.8592448349115054E-007
  -1.7499999999999998E-002     1.9024937296351337E-007
  -1.7450000000000000E-002     1.9468427530195596E-007
  -1.7399999999999999E-002     1.9923100294612135E-007
  -1.7350000000000001E-002     2.0388905128177764E-007
  -1.7299999999999999E-002     2.0865574474153911E-007
  -1.7250000000000001E-002     2.1352703972624349E-007
  -1.7200000000000000E-002     2.1849876711203269E-007
  -1.7149999999999999E-002     2.2356785072123502E-007
  -1.7100000000000001E-002     2.2873294719553248E-007
  -1.7049999999999999E-002     2.3399436228309820E-007
  -1.7000000000000001E-002     2.3935347922908483E-007
  -1.6950000000000000E-002     2.4481183252196469E-007
  -1.6899999999999998E-002     2.5037074426329620E-007
  -1.6850000000000000E-002     2.5603163675846237E-007
  -1.6799999999999999E-002     2.6179669406608472E-007
  -1.6750000000000001E-002     2.6766936671648510E-007
  -1.6700000000000000E-002     2.7365479104191800E-007
  -1.6649999999999998E-002     2.7975923134394427E-007
  -1.6600000000000000E-002     2.8598914565184024E-007
  -1.6549999999999999E-002     2.9235018953086328E-007
  -1.6500000000000001E-002     2.9884620485249250E-007
  -1.6449999999999999E-002     3.0547904940261318E-007
  -1.6400000000000001E-002     3.1224922006114168E-007
  -1.6350000000000000E-002     3.1915682195469403E-007
  -1.6299999999999999E-002     3.2620302764374495E-007
  -1.6250000000000001E-002     3.3339074437147662E-007
  -1.6199999999999999E-002     3.4072482711415223E-007
  -1.6150000000000001E-002     3.4821118994404399E-007
  -1.6100000000000000E-002     3.5585582404976457E-007
  -1.6049999999999998E-002     3.6366369788223577E-007
  -1.6000000000000000E-002     3.7163859165514174E-007
  -1.5949999999999999E-002     3.7978318699520140E-007
  -1.5900000000000001E-002     3.8809973606829630E-007
  -1.5850000000000000E-002     3.9659044790811896E-007
  -1.5799999999999998E-002     4.0525782359951992E-007
  -1.5750000000000000E-002     4.1410475035834095E-007
  -1.5699999999999999E-002     4.2313449929757572E-007
  -1.5650000000000001E-002     4.3235065395426321E-007
  -1.5599999999999999E-002     4.4175696316968124E-007
  -1.5550000000000001E-002     4.5135728608969834E-007
  -1.5500000000000000E-002     4.6115530508196600E-007
  -1.5449999999999998E-002     4.7115400198206031E-007
  -1.5400000000000000E-002     4.8135557265418255E-007
  -1.5349999999999999E-002     4.9176098283357933E-007
  -1.5300000000000001E-002     5.0236989058717244E-007
  -1.5250000000000000E-002     5.1318087945817643E-007
  -1.5199999999999998E-002     5.2419203106086206E-007
  -1.5150000000000000E-002     5.3540131528827220E-007
  -1.5099999999999999E-002     5.4680708731680745E-007
  -1.5050000000000001E-002     5.5840880588097831E-007
  -1.4999999999999999E-002     5.7020695749702220E-007
  -1.4949999999999998E-002     5.8220325810299187E-007
  -1.4900000000000000E-002     5.9440070624832232E-007
  -1.4849999999999999E-002     6.0680334450964693E-007
  -1.4800000000000001E-002     6.1941651006047340E-007
  -1.4749999999999999E-002     6.3224693091575405E-007
  -1.4700000000000001E-002     6.4530292227705876E-007
  -1.4650000000000000E-002     6.5859424917884924E-007
  -1.4599999999999998E-002     6.7213102800791107E-007
  -1.4550000000000000E-002     6.8592259768489325E-007
  -1.4499999999999999E-002     6.9997621754429584E-007
  -1.4450000000000001E-002     7.1429681397301752E-007
  -1.4400000000000000E-002     7.2888731779492133E-007
  -1.4349999999999998E-002     7.4374968897756920E-007
  -1.4300000000000000E-002     7.5888620934775351E-007
  -1.4249999999999999E-002     7.7429995291909997E-007
  -1.4200000000000001E-002     7.8999510726053780E-007
  -1.4149999999999999E-002     8.0597615377130374E-007
  -1.4099999999999998E-002     8.2224750125042464E-007
  -1.4050000000000000E-002     8.3881324037942426E-007
  -1.3999999999999999E-002     8.5567660906937526E-007
  -1.3950000000000001E-002     8.7284050860112098E-007
  -1.3899999999999999E-002     8.9030777830939215E-007
  -1.3850000000000001E-002     9.0808153761793815E-007
  -1.3800000000000000E-002     9.2616585217437944E-007
  -1.3749999999999998E-002     9.4456614398309601E-007
  -1.3700000000000000E-002     9.6328931884979529E-007
  -1.3649999999999999E-002     9.8234286035893142E-007
  -1.3600000000000001E-002     1.0017340509913887E-006
  -1.3550000000000000E-002     1.0214689647300081E-006
  -1.3499999999999998E-002     1.0415528979706223E-006
  -1.3450000000000000E-002     1.0619899130806794E-006
  -1.3399999999999999E-002     1.0827835372935646E-006
  -1.3350000000000001E-002     1.1039361336492510E-006
  -1.3299999999999999E-002     1.1254484896166602E-006
  -1.3249999999999998E-002     1.1473198832961742E-006
  -1.3200000000000000E-002     1.1695480201878059E-006
  -1.3149999999999998E-002     1.1921308591898085E-006
  -1.3100000000000001E-002     1.2150681515776775E-006
  -1.3049999999999999E-002     1.2383616666741145E-006
  -1.3000000000000001E-002     1.2620155719832145E-006
  -1.2950000000000000E-002     1.2860355272701631E-006
  -1.2899999999999998E-002     1.3104281580011190E-006
  -1.2850000000000000E-002     1.3352010702671836E-006
  -1.2799999999999999E-002     1.3603628769527576E-006