  -4.0000000000000001E-002     0.0000000000000000     
  -3.9949999999999999E-002     0.0000000000000000     
  -3.9899999999999998E-002     0.0000000000000000     
  -3.9850000000000003E-002     0.0000000000000000     
  -3.9800000000000002E-002     0.0000000000000000     
  -3.9750000000000001E-002     0.0000000000000000     
  -3.9699999999999999E-002     0.0000000000000000     
  -3.9649999999999998E-002     0.0000000000000000     
  -3.9600000000000003E-002    -1.0137883180315216E-023
  -3.9550000000000002E-002    -1.1442430102582062E-022
  -3.9500000000000000E-002    -6.1843237004552048E-022
  -3.9449999999999999E-002    -2.0425749110566950E-021
  -3.9399999999999998E-002    -4.1872585768095580E-021
  -3.9350000000000003E-002    -3.5778166018561104E-021
  -3.9300000000000002E-002     9.2117916177376993E-021
  -3.9250000000000000E-002     4.7184180018607691E-020
  -3.9199999999999999E-002     1.1476241448366961E-019
  -3.9150000000000004E-002     1.9211575545081576E-019
  -3.9100000000000003E-002     2.3729877542440512E-019
  -3.9050000000000001E-002     2.1931479300464173E-019
  -3.9000000000000000E-002     1.4047589495518100E-019
  -3.8949999999999999E-002    -5.6891863502610916E-020
  -3.8900000000000004E-002    -7.5452869676003504E-019
  -3.8850000000000003E-002    -2.8832326409709423E-018
  -3.8800000000000001E-002    -7.5487299010704312E-018
  -3.8750000000000000E-002    -1.4523531682014204E-017
  -3.8699999999999998E-002    -1.9955240897228517E-017
  -3.8650000000000004E-002    -1.5209998312896183E-017
  -3.8600000000000002E-002     1.0281930347956962E-017
  -3.8550000000000001E-002     6.0809606735007048E-017
  -3.8500000000000000E-002     1.2391642205147373E-016
  -3.8449999999999998E-002     1.6585038438887091E-016
  -3.8400000000000004E-002     1.4175689844677178E-016
  -3.8350000000000002E-002     2.1968108137677409E-017
  -3.8300000000000001E-002    -1.7776547954686585E-016
  -3.8249999999999999E-002    -3.8456014149321761E-016
  -3.8199999999999998E-002    -4.9365782952062384E-016
  -3.8150000000000003E-002    -4.2748218128728492E-016
  -3.8100000000000002E-002    -1.9692468628891596E-016
  -3.8050000000000000E-002     8.0898021940128508E-017
  -3.7999999999999999E-002     2.3769478065915506E-016
  -3.7949999999999998E-002     1.6696166658001853E-016
  -3.7900000000000003E-002    -6.6897905042575656E-017
  -3.7850000000000002E-002    -2.0203105832356848E-016
  -3.7800000000000000E-002     1.1673055304208421E-016
  -3.7749999999999999E-002     1.1227214945627251E-015
  -3.7699999999999997E-002     2.6925687441545444E-015
  -3.7650000000000003E-002     4.2215404562057505E-015
  -3.7600000000000001E-002     4.7220636673034938E-015
  -3.7550000000000000E-002     3.1831840372969297E-015
  -3.7499999999999999E-002    -8.8872805251315515E-016
  -3.7449999999999997E-002    -6.9529186776425117E-015
  -3.7400000000000003E-002    -1.3222816178870929E-014
  -3.7350000000000001E-002    -1.7004732855701768E-014
  -3.7300000000000000E-002    -1.5639387695457988E-014
  -3.7249999999999998E-002    -7.7906169535959279E-015
  -3.7200000000000004E-002     5.4621908166531720E-015
  -3.7150000000000002E-002     2.0352697888719478E-014
  -3.7100000000000001E-002     3.1355905507664592E-014
  -3.7050000000000000E-002     3.3172910497221653E-014
  -3.6999999999999998E-002     2.3067669966672857E-014
  -3.6950000000000004E-002     2.5541963548237364E-015
  -3.6900000000000002E-002    -2.2410580629525157E-014
  -3.6850000000000001E-002    -4.3008746287170875E-014
  -3.6799999999999999E-002    -5.0482718680000567E-014
  -3.6749999999999998E-002    -3.9408686262156316E-014
  -3.6700000000000003E-002    -1.0157609871656342E-014
  -3.6650000000000002E-002     3.0388207319660529E-014
  -3.6600000000000001E-002     7.0254028648025906E-014
  -3.6549999999999999E-002     9.5633603379438151E-014
  -3.6499999999999998E-002     9.5062486099783806E-014
  -3.6450000000000003E-002     6.3195819824303050E-014
  -3.6400000000000002E-002     2.9496124225739425E-015
  -3.6350000000000000E-002    -7.4677232184996020E-014
  -3.6299999999999999E-002    -1.5293234531413402E-013
  -3.6249999999999998E-002    -2.1288973278357954E-013
  -3.6200000000000003E-002    -2.3715674546213004E-013
  -3.6150000000000002E-002    -2.1296670455127492E-013
  -3.6100000000000000E-002    -1.3457794466627940E-013
  -3.6049999999999999E-002    -5.3043369592953156E-015
  -3.6000000000000004E-002     1.6070552470601867E-013
  -3.5950000000000003E-002     3.3754051330288439E-013
  -3.5900000000000001E-002     4.8873808914556254E-013
  -3.5850000000000000E-002     5.7199983753755654E-013
  -3.5799999999999998E-002     5.4796319813337733E-013
  -3.5750000000000004E-002     3.9206285854518657E-013
  -3.5700000000000003E-002     1.0678083653765503E-013
  -3.5650000000000001E-002    -2.6977802308845165E-013
  -3.5600000000000000E-002    -6.6345732528331123E-013
  -3.5549999999999998E-002    -9.7513463345612195E-013
  -3.5500000000000004E-002    -1.1037609044786453E-012
  -3.5450000000000002E-002    -9.7733718299661261E-013
  -3.5400000000000001E-002    -5.8317262870445338E-013
  -3.5349999999999999E-002     1.3902994256309794E-014
  -3.5299999999999998E-002     6.7534240655861683E-013
  -3.5250000000000004E-002     1.2186439637115062E-012
  -3.5200000000000002E-002     1.4679033112160078E-012
  -3.5150000000000001E-002     1.3111750534417798E-012
  -3.5099999999999999E-002     7.4592658121387949E-013
  -3.5049999999999998E-002    -1.0450859095115980E-013
  -3.5000000000000003E-002    -1.0126838131314495E-012
  -3.4950000000000002E-002    -1.7044653533603161E-012
  -3.4900000000000000E-002    -1.9376914214010709E-012
  -3.4849999999999999E-002    -1.5793455315186594E-012
  -3.4799999999999998E-002    -6.5681255437017316E-013
  -3.4750000000000003E-002     6.3510298177753938E-013
  -3.4700000000000002E-002     1.9768491254163718E-012
  -3.4650000000000000E-002     3.0060811257366006E-012
  -3.4599999999999999E-002     3.4151962193147271E-012
  -3.4549999999999997E-002     3.0352441668849869E-012
  -3.4500000000000003E-002     1.8817941439800087E-012
  -3.4450000000000001E-002     1.5144685432442181E-013
  -3.4400000000000000E-002    -1.8263096227993772E-012
  -3.4349999999999999E-002    -3.6646521418033718E-012
  -3.4299999999999997E-002    -5.0001439378823852E-012
  -3.4250000000000003E-002    -5.5594007860943584E-012
  -3.4200000000000001E-002    -5.2006222921156725E-012
  -3.4150000000000000E-002    -3.9283247949670134E-012
  -3.4099999999999998E-002    -1.8866776461738846E-012
  -3.4049999999999997E-002     6.6043131321667142E-013
  -3.4000000000000002E-002     3.3565905504372508E-012
  -3.3950000000000001E-002     5.7867387853962036E-012
  -3.3900000000000000E-002     7.5224818158486657E-012
  -3.3849999999999998E-002     8.1845026097345676E-012
  -3.3799999999999997E-002     7.5212290378814556E-012
  -3.3750000000000002E-002     5.4902435765225530E-012
  -3.3700000000000001E-002     2.3163121591374695E-012
  -3.3649999999999999E-002    -1.5042798870246792E-012
  -3.3599999999999998E-002    -5.2733520646130756E-012
  -3.3550000000000003E-002    -8.2316908266865224E-012
  -3.3500000000000002E-002    -9.7410496229248375E-012
  -3.3450000000000001E-002    -9.4571099482824946E-012
  -3.3399999999999999E-002    -7.4394567544760751E-012
  -3.3349999999999998E-002    -4.1593118777285718E-012
  -3.3300000000000003E-002    -3.9423086072363652E-013
  -3.3250000000000002E-002     2.9676756688848545E-012
  -3.3200000000000000E-002     5.1629879420885934E-012
  -3.3149999999999999E-002     5.7615267214366906E-012
  -3.3099999999999997E-002     4.7858740510211165E-012
  -3.3050000000000003E-002     2.7030995145476858E-012
  -3.3000000000000002E-002     2.8765107232116963E-013
  -3.2950000000000000E-002    -1.6057111914314060E-012
  -3.2899999999999999E-002    -2.2920893289094234E-012
  -3.2850000000000004E-002    -1.4571156986472872E-012
  -3.2800000000000003E-002     7.4707796121252904E-013
  -3.2750000000000001E-002     3.7331990297427084E-012
  -3.2700000000000000E-002     6.6248161021662392E-012
  -3.2649999999999998E-002     8.4768327672913317E-012
  -3.2600000000000004E-002     8.5155626848086464E-012
  -3.2550000000000003E-002     6.3423858908774177E-012
  -3.2500000000000001E-002     2.0563111503575226E-012
  -3.2450000000000000E-002    -3.7276894259071323E-012
  -3.2399999999999998E-002    -9.9607410481153207E-012
  -3.2350000000000004E-002    -1.5314784334876687E-011
  -3.2300000000000002E-002    -1.8370209163756521E-011
  -3.2250000000000001E-002    -1.7800935445877805E-011
  -3.2199999999999999E-002    -1.2536630822464348E-011
  -3.2149999999999998E-002    -1.8960148651266007E-012
  -3.2100000000000004E-002     1.4311665141287463E-011
  -3.2050000000000002E-002     3.5728681014498399E-011
  -3.2000000000000001E-002     6.1456679434684487E-011
  -3.1949999999999999E-002     9.0151948080359970E-011
  -3.1899999999999998E-002     1.2021147938871556E-010
  -3.1850000000000003E-002     1.5002394712312992E-010
  -3.1800000000000002E-002     1.7823258070054001E-010
  -3.1750000000000000E-002     2.0394676247945248E-010
  -3.1699999999999999E-002     2.2684954945673048E-010
  -3.1649999999999998E-002     2.4717620877206666E-010
  -3.1600000000000003E-002     2.6557429256145522E-010
  -3.1550000000000002E-002     2.8288947501345402E-010
  -3.1500000000000000E-002     2.9994203632318801E-010
  -3.1449999999999999E-002     3.1735786307856230E-010
  -3.1399999999999997E-002     3.3549421713137396E-010
  -3.1350000000000003E-002     3.5446023308436566E-010
  -3.1300000000000001E-002     3.7419564623415383E-010
  -3.1250000000000000E-002     3.9455689926925301E-010
  -3.1199999999999999E-002     4.1537470136640273E-010
  -3.1150000000000001E-002     4.3648263836068328E-010
  -3.1100000000000003E-002     4.5774162752869937E-010
  -3.1050000000000001E-002     4.7908424617552534E-010
  -3.1000000000000000E-002     5.0057230440774601E-010
  -3.0949999999999998E-002     5.2242615947605148E-010
  -3.0900000000000000E-002     5.4497328239731527E-010
  -3.0850000000000002E-002     5.6849518167910477E-010
  -3.0800000000000001E-002     5.9300716673251169E-010
  -3.0750000000000000E-002     6.1805839456186747E-010
  -3.0699999999999998E-002     6.4265618327822686E-010
  -3.0650000000000000E-002     6.6538678413395934E-010
  -3.0600000000000002E-002     6.8473693097670202E-010
  -3.0550000000000001E-002     6.9954019382611561E-010
  -3.0499999999999999E-002     7.0941281162133257E-010
  -3.0449999999999998E-002     7.1502861414884097E-010
  -3.0400000000000000E-002     7.1811993018328016E-010
  -3.0350000000000002E-002     7.2118137826763826E-010
  -3.0300000000000001E-002     7.2695863529007090E-010
  -3.0249999999999999E-002     7.3788590130954515E-010
  -3.0200000000000001E-002     7.5565083339695103E-010
  -3.0150000000000000E-002     7.8099863508183868E-010
  -3.0100000000000002E-002     8.1377617115669830E-010
  -3.0050000000000000E-002     8.5311828902948913E-010
  -2.9999999999999999E-002     8.9764935550685773E-010
  -2.9950000000000001E-002     9.4562464461715393E-010
  -2.9899999999999999E-002     9.9502537279008194E-010
  -2.9850000000000002E-002     1.0436876874258867E-009
  -2.9800000000000000E-002     1.0895393845503864E-009
  -2.9749999999999999E-002     1.1309510010424536E-009
  -2.9700000000000001E-002     1.1671161268325744E-009
  -2.9650000000000003E-002     1.1983230520270588E-009
  -2.9600000000000001E-002     1.2259895351120151E-009
  -2.9550000000000000E-002     1.2524082854275003E-009
  -2.9499999999999998E-002     1.2802568885301243E-009
  -2.9450000000000000E-002     1.3120172511911411E-009
  -2.9400000000000003E-002     1.3494887705111692E-009
  -2.9350000000000001E-002     1.3935508025576158E-009
  -2.9300000000000000E-002     1.4442255933193808E-009
  -2.9249999999999998E-002     1.5009630993714872E-009
  -2.9200000000000000E-002     1.5629683230387770E-009
  -2.9150000000000002E-002     1.6293868555060917E-009
  -2.9100000000000001E-002     1.6992616442022374E-009
  -2.9049999999999999E-002     1.7713373516562908E-009
  -2.8999999999999998E-002     1.8438998243384476E-009
  -2.8950000000000000E-002     1.9148409620395024E-009
  -2.8900000000000002E-002     1.9820105198935304E-009
  -2.8850000000000001E-002     2.0437372652099322E-009
  -2.8799999999999999E-002     2.0992848080864888E-009
  -2.8749999999999998E-002     2.1490254055485834E-009
  -2.8700000000000000E-002     2.1942616729663441E-009
  -2.8650000000000002E-002     2.2368024049435766E-009
  -2.8600000000000000E-002     2.2785176385744356E-009
  -2.8549999999999999E-002     2.3210881733091644E-009
  -2.8500000000000001E-002     2.3660512957827381E-009
  -2.8450000000000000E-002     2.4150783065698090E-009
  -2.8400000000000002E-002     2.4702926898207454E-009
  -2.8350000000000000E-002     2.5344003883443369E-009
  -2.8299999999999999E-002     2.6104808970655616E-009
  -2.8250000000000001E-002     2.7014379969673184E-009
  -2.8200000000000003E-002     2.8092916402643473E-009
  -2.8150000000000001E-002     2.9345984149680773E-009
  -2.8100000000000000E-002     3.0762643003151186E-009
  -2.8049999999999999E-002     3.2318383860638374E-009
  -2.8000000000000001E-002     3.3981494946286098E-009
  -2.7950000000000003E-002     3.5719817075637623E-009
  -2.7900000000000001E-002     3.7504979292119375E-009
  -2.7850000000000000E-002     3.9312961552031090E-009
  -2.7799999999999998E-002     4.1122366382694713E-009
  -2.7750000000000000E-002     4.2912997928329835E-009
  -2.7700000000000002E-002     4.4667117433485161E-009
  -2.7650000000000001E-002     4.6373523089486039E-009
  -2.7600000000000000E-002     4.8032434970907280E-009
  -2.7549999999999998E-002     4.9657997334054230E-009
  -2.7500000000000000E-002     5.1276156577193624E-009
  -2.7450000000000002E-002     5.2917871434243586E-009
  -2.7400000000000001E-002     5.4609791106228495E-009
  -2.7349999999999999E-002     5.6365893996751381E-009
  -2.7299999999999998E-002     5.8183177208448198E-009
  -2.7250000000000000E-002     6.0042958110118472E-009
  -2.7200000000000002E-002     6.1916954962995519E-009
  -2.7150000000000001E-002     6.3775576584612004E-009
  -2.7099999999999999E-002     6.5594957811084176E-009
  -2.7049999999999998E-002     6.7360240243963167E-009
  -2.7000000000000000E-002     6.9064689661162582E-009
  -2.6950000000000002E-002     7.0706741701357553E-009
  -2.6900000000000000E-002     7.2288352158535196E-009
  -2.6849999999999999E-002     7.3817246843091939E-009
  -2.6800000000000001E-002     7.5312993677572384E-009
  -2.6749999999999999E-002     7.6814025921799656E-009
  -2.6700000000000002E-002     7.8381275959433952E-009
  -2.6650000000000000E-002     8.0095334089123322E-009
  -2.6599999999999999E-002     8.2047262065215069E-009
  -2.6550000000000001E-002     8.4326516183394362E-009
  -2.6500000000000003E-002     8.7010792802038343E-009
  -2.6450000000000001E-002     9.0161278097967141E-009
  -2.6400000000000000E-002     9.3823646950030843E-009
  -2.6349999999999998E-002     9.8032419587707337E-009
  -2.6300000000000000E-002     1.0281461344821434E-008
  -2.6250000000000002E-002     1.0818993360472065E-008
  -2.6200000000000001E-002     1.1416681805121441E-008
  -2.6150000000000000E-002     1.2073676197762651E-008
  -2.6099999999999998E-002     1.2787033382084656E-008
  -2.6050000000000000E-002     1.3551815919300228E-008
  -2.6000000000000002E-002     1.4361775649973903E-008
  -2.5950000000000001E-002     1.5210436226602868E-008
  -2.5899999999999999E-002     1.6092143465923882E-008
  -2.5849999999999998E-002     1.7002618584916022E-008
  -2.5800000000000000E-002     1.7938742204140542E-008
  -2.5750000000000002E-002     1.8897698936160895E-008
  -2.5700000000000001E-002     1.9875932802260540E-008
  -2.5649999999999999E-002     2.0868553657688793E-008
  -2.5599999999999998E-002     2.1869505806837972E-008
  -2.5550000000000000E-002     2.2872478305372025E-008
  -2.5500000000000002E-002     2.3872032155244444E-008
  -2.5450000000000000E-002     2.4864265282859710E-008
  -2.5399999999999999E-002     2.5846597718022385E-008
  -2.5349999999999998E-002     2.6816732524808646E-008
  -2.5300000000000000E-002     2.7771321126920433E-008
  -2.5250000000000002E-002     2.8705066854338966E-008
  -2.5200000000000000E-002     2.9610762100314611E-008
  -2.5149999999999999E-002     3.0480340479904252E-008
  -2.5100000000000001E-002     3.1306470980368242E-008
  -2.5049999999999999E-002     3.2084047225467170E-008
  -2.5000000000000001E-002     3.2810963846230953E-008
  -2.4950000000000000E-002     3.3487962189722532E-008
  -2.4899999999999999E-002     3.4117778414241599E-008
  -2.4850000000000001E-002     3.4704122720917745E-008
  -2.4800000000000003E-002     3.5251104542231082E-008
  -2.4750000000000001E-002     3.5763420390284118E-008
  -2.4700000000000000E-002     3.6247218152151235E-008
  -2.4649999999999998E-002     3.6711098224939931E-008
  -2.4600000000000000E-002     3.7166584118765439E-008
  -2.4550000000000002E-002     3.7627595867616871E-008
  -2.4500000000000001E-002     3.8108840856365645E-008
  -2.4450000000000000E-002     3.8623681777526294E-008
  -2.4399999999999998E-002     3.9182234402462360E-008
  -2.4350000000000000E-002     3.9790425122809190E-008
  -2.4299999999999999E-002     4.0450310004242505E-008
  -2.4250000000000001E-002     4.1161246671105216E-008
  -2.4199999999999999E-002     4.1921336661085290E-008
  -2.4150000000000001E-002     4.2728504478876501E-008
  -2.4100000000000000E-002     4.3580940525299591E-008
  -2.4049999999999998E-002     4.4477088598626563E-008
  -2.4000000000000000E-002     4.5415505713723784E-008
  -2.3949999999999999E-002     4.6394935511441665E-008
  -2.3900000000000001E-002     4.7414602112288898E-008
  -2.3850000000000000E-002     4.8474572467780415E-008
  -2.3800000000000002E-002     4.9575930527134170E-008
  -2.3750000000000000E-002     5.0720589586267839E-008
  -2.3699999999999999E-002     5.1910853865426576E-008
  -2.3650000000000001E-002     5.3148824858460856E-008
  -2.3599999999999999E-002     5.4435930814449187E-008
  -2.3550000000000001E-002     5.5772659550159605E-008
  -2.3500000000000000E-002     5.7158643502669537E-008
  -2.3449999999999999E-002     5.8592900644620907E-008
  -2.3400000000000001E-002     6.0074124399131850E-008
  -2.3349999999999999E-002     6.1600751784614355E-008
  -2.3300000000000001E-002     6.3170676292221436E-008
  -2.3250000000000000E-002     6.4780849053909899E-008
  -2.3199999999999998E-002     6.6426988706573774E-008
  -2.3150000000000000E-002     6.8103924428323096E-008
  -2.3099999999999999E-002     6.9806547122635927E-008
  -2.3050000000000001E-002     7.1531194702255081E-008
  -2.3000000000000000E-002     7.3276683888131161E-008
  -2.2950000000000002E-002     7.5044510214961852E-008
  -2.2900000000000000E-002     7.6838107875981232E-008
  -2.2849999999999999E-002     7.8661552364525389E-008
  -2.2800000000000001E-002     8.0518547120739602E-008
  -2.2749999999999999E-002     8.2412231558096378E-008
  -2.2700000000000001E-002     8.4345849957324301E-008
  -2.2650000000000000E-002     8.6323785199624927E-008
  -2.2599999999999999E-002     8.8352258068086896E-008
  -2.2550000000000001E-002     9.0439079924107733E-008
  -2.2499999999999999E-002     9.2592561065578439E-008
  -2.2450000000000001E-002     9.4819720425746144E-008
  -2.2400000000000000E-002     9.7124580356880527E-008
  -2.2349999999999998E-002     9.9507072301337280E-008
  -2.2300000000000000E-002     1.0196295929534669E-007
  -2.2249999999999999E-002     1.0448493350292732E-007
  -2.2200000000000001E-002     1.0706449901199372E-007
  -2.2150000000000000E-002     1.0969398960381766E-007
  -2.2100000000000002E-002     1.1236796673957644E-007
  -2.2050000000000000E-002     1.1508353888890922E-007
  -2.1999999999999999E-002     1.1783958319124500E-007
  -2.1950000000000001E-002     1.2063568774879118E-007
  -2.1899999999999999E-002     1.2347150737323884E-007
  -2.1850000000000001E-002     1.2634724224709771E-007
  -2.1800000000000000E-002     1.2926479483133005E-007
  -2.1749999999999999E-002     1.3222891069451818E-007
  -2.1700000000000001E-002     1.3524741703805041E-007
  -2.1649999999999999E-002     1.3833020985691995E-007
  -2.1600000000000001E-002     1.4148744006757535E-007
  -2.1550000000000000E-002     1.4472750894736931E-007
  -2.1499999999999998E-002     1.4805600136008315E-007
  -2.1450000000000000E-002     1.5147547855146079E-007
  -2.1399999999999999E-002     1.5498616978794008E-007
  -2.1350000000000001E-002     1.5858692798351292E-007
  -2.1299999999999999E-002     1.6227636114812687E-007
  -2.1250000000000002E-002     1.6605346627108962E-007
  -2.1200000000000000E-002     1.6991800258026549E-007
  -2.1149999999999999E-002     1.7387039057103718E-007
  -2.1100000000000001E-002     1.7791136230250813E-007
  -2.1049999999999999E-002     1.8204142273695488E-007
  -2.1000000000000001E-002     1.8626060908170645E-007
  -2.0950000000000000E-002     1.9056867985148516E-007
  -2.0899999999999998E-002     1.9496581611325336E-007
  -2.0850000000000000E-002     1.9945325303744195E-007
  -2.0799999999999999E-002     2.0403355750180693E-007
  -2.0750000000000001E-002     2.0871032960298346E-007
  -2.0700000000000000E-002     2.1348764894288564E-007
  -2.0649999999999998E-002     2.1836960139079752E-007
  -2.0600000000000000E-002     2.2336019613661716E-007
  -2.0549999999999999E-002     2.2846360246462085E-007
  -2.0500000000000001E-002     2.3368408124760069E-007
  -2.0449999999999999E-002     2.3902518563267474E-007
  -2.0400000000000001E-002     2.4448855809576438E-007
  -2.0350000000000000E-002     2.5007294119565624E-007
  -2.0299999999999999E-002     2.5577385726065277E-007
  -2.0250000000000001E-002     2.6158459926437910E-007
  -2.0199999999999999E-002     2.6749761906475019E-007
  -2.0150000000000001E-002     2.7350576398061804E-007
  -2.0100000000000000E-002     2.7960295514728279E-007
  -2.0049999999999998E-002     2.8578458872998853E-007
  -2.0000000000000000E-002     2.9204783207845557E-007
  -1.9949999999999999E-002     2.9839213100905729E-007
  -1.9900000000000001E-002     3.0482002850036613E-007
  -1.9850000000000000E-002     3.1133754804727199E-007
  -1.9799999999999998E-002     3.1795392034062450E-007
  -1.9750000000000000E-002     3.2468087224623762E-007
  -1.9699999999999999E-002     3.3153179451508015E-007
  -1.9650000000000001E-002     3.3852073868364068E-007
  -1.9599999999999999E-002     3.4566158578241346E-007
  -1.9550000000000001E-002     3.5296646447942896E-007
  -1.9500000000000000E-002     3.6044415652467482E-007
  -1.9449999999999999E-002     3.6809904436590557E-007
  -1.9400000000000001E-002     3.7593103005266982E-007
  -1.9349999999999999E-002     3.8393684368881097E-007
  -1.9300000000000001E-002     3.9211147688208295E-007
  -1.9250000000000000E-002     4.0044982877255739E-007
  -1.9199999999999998E-002     4.0894722440496037E-007
  -1.9150000000000000E-002     4.1759917406465509E-007
  -1.9099999999999999E-002     4.2640193159425986E-007
  -1.9050000000000001E-002     4.3535326341765688E-007
  -1.9000000000000000E-002     4.4445362809772999E-007
  -1.8949999999999998E-002     4.5370675781427008E-007
  -1.8900000000000000E-002     4.6311912792380255E-007
  -1.8849999999999999E-002     4.7269828813264687E-007
  -1.8800000000000001E-002     4.8245099599677635E-007
  -1.8749999999999999E-002     4.9238245108756258E-007
  -1.8700000000000001E-002     5.0249636777415954E-007
  -1.8650000000000000E-002     5.1279538988909543E-007
  -1.8599999999999998E-002     5.2328203784523278E-007
  -1.8550000000000001E-002     5.3395875408588552E-007
  -1.8499999999999999E-002     5.4482778689970977E-007
  -1.8450000000000001E-002     5.5589083811784119E-007
  -1.8400000000000000E-002     5.6714888252053278E-007
  -1.8349999999999998E-002     5.7860155999221111E-007
  -1.8300000000000000E-002     5.9024638719314395E-007
  -1.8249999999999999E-002     6.0207804284404270E-007
  -1.8200000000000001E-002     6.1408873382489804E-007
  -1.8149999999999999E-002     6.2627013916305928E-007
  -1.8100000000000002E-002     6.3861605352691041E-007
  -1.8050000000000000E-002     6.5112504752119601E-007
  -1.7999999999999999E-002     6.6380124041284889E-007
  -1.7950000000000001E-002     6.7665263965274832E-007
  -1.7899999999999999E-002     6.8968886305514151E-007
  -1.7850000000000001E-002     7.0291961293955644E-007
  -1.7800000000000000E-002     7.1635405745464274E-007
  -1.7749999999999998E-002     7.3000125115860140E-007
  -1.7700000000000000E-002     7.4387028949224821E-007
  -1.7649999999999999E-002     7.5796954146654207E-007
  -1.7600000000000001E-002     7.7230604069671752E-007
  -1.7550000000000000E-002     7.8688425285909976E-007
  -1.7499999999999998E-002     8.0170684159289736E-007
  -1.7450000000000000E-002     8.1677485584796088E-007
  -1.7399999999999999E-002     8.3208857378685580E-007
  -1.7350000000000001E-002     8.4764732107757537E-007
  -1.7299999999999999E-002     8.6344872848751596E-007
  -1.7250000000000001E-002     8.7948845347692206E-007
  -1.7200000000000000E-002     8.9576046681139691E-007
  -1.7149999999999999E-002     9.1225884158620749E-007
  -1.7100000000000001E-002     9.2897909841697093E-007
  -1.7049999999999999E-002     9.4591869930051806E-007
  -1.7000000000000001E-002     9.6307721271124474E-007
  -1.6950000000000000E-002     9.8045606635624115E-007
  -1.6899999999999998E-002     9.9805993618413942E-007
  -1.6850000000000000E-002     1.0158968115827450E-006
  -1.6799999999999999E-002     1.0339777404830571E-006
  -1.6750000000000001E-002     1.0523150860423205E-006
  -1.6700000000000000E-002     1.0709194232863575E-006
  -1.6649999999999998E-002     1.0897965851962439E-006
  -1.6600000000000000E-002     1.1089475966969550E-006
  -1.6549999999999999E-002     1.1283704173538453E-006
  -1.6500000000000001E-002     1.1480630012966187E-006
  -1.6449999999999999E-002     1.1680247083359810E-006
  -1.6400000000000001E-002     1.1882552331790376E-006
  -1.6350000000000000E-002     1.2087526942572468E-006
  -1.6299999999999999E-002     1.2295130049463514E-006
  -1.6250000000000001E-002     1.2505301545693341E-006
  -1.6199999999999999E-002     1.2717982138903540E-006
  -1.6150000000000001E-002     1.2933117867518715E-006
  -1.6100000000000000E-002     1.3150665010970848E-006
  -1.6049999999999998E-002     1.3370580026827901E-006
  -1.6000000000000000E-002     1.3592827405293464E-006
  -1.5949999999999999E-002     1.3817385735643438E-006
  -1.5900000000000001E-002     1.4044272086374629E-006
  -1.5850000000000000E-002     1.4273532853053945E-006
  -1.5799999999999998E-002     1.4505238540566807E-006
  -1.5750000000000000E-002     1.4739463176264164E-006
  -1.5699999999999999E-002     1.4976273092869760E-006
  -1.5650000000000001E-002     1.5215726098020420E-006
  -1.5599999999999999E-002     1.5457874671396349E-006
  -1.5550000000000001E-002     1.5702760952181701E-006
  -1.5500000000000000E-002     1.5950397206110304E-006
  -1.5449999999999998E-002     1.6200745812360636E-006
  -1.5400000000000000E-002     1.6453711730638003E-006
  -1.5349999999999999E-002     1.6709168348021318E-006
  -1.5300000000000001E-002     1.6966988306289734E-006
  -1.5250000000000000E-002     1.7227083192508571E-006
  -1.5199999999999998E-002     1.7489402490113298E-006
  -1.5150000000000000E-002     1.7753919895338010E-006
  -1.5099999999999999E-002     1.8020609098607795E-006
  -1.5050000000000001E-002     1.8289441146397516E-006
  -1.4999999999999999E-002     1.8560387124474349E-006
  -1.4949999999999998E-002     1.8833438871443419E-006
  -1.4900000000000000E-002     1.9108616765943394E-006
  -1.4849999999999999E-002     1.9385968756372569E-006
  -1.4800000000000001E-002     1.9665555728096688E-006
  -1.4749999999999999E-002     1.9947437746765988E-006
  -1.4700000000000001E-002     2.0231671238072773E-006
  -1.4650000000000000E-002     2.0518298386315156E-006
  -1.4599999999999998E-002     2.0807335442360714E-006
  -1.4550000000000000E-002     2.1098757024638353E-006
  -1.4499999999999999E-002     2.1392482527663767E-006
  -1.4450000000000001E-002     2.1688383904838375E-006
  -1.4400000000000000E-002     2.1986312122897976E-006
  -1.4349999999999998E-002     2.2286124359119390E-006
  -1.4300000000000000E-002     2.2587693148163286E-006
  -1.4249999999999999E-002     2.2890908164195481E-006
  -1.4200000000000001E-002     2.3195656260495466E-006
  -1.4149999999999999E-002     2.3501806653972326E-006
  -1.4099999999999998E-002     2.3809210922310882E-006
  -1.4050000000000000E-002     2.4117738697120929E-006
  -1.3999999999999999E-002     2.4427293553850326E-006
  -1.3950000000000001E-002     2.4737830439495916E-006
  -1.3899999999999999E-002     2.5049328191305562E-006
  -1.3850000000000001E-002     2.5361764261625348E-006
  -1.3800000000000000E-002     2.5675106072751638E-006
  -1.3749999999999998E-002     2.5989307584796741E-006
  -1.3700000000000000E-002     2.6304323903326525E-006
  -1.3649999999999999E-002     2.6620119035578506E-006
  -1.3600000000000001E-002     2.6936655948486479E-006
  -1.3550000000000000E-002     2.7253865202890741E-006
  -1.3499999999999998E-002     2.7571626731662155E-006
  -1.3450000000000000E-002     2.7889779688991471E-006
  -1.3399999999999999E-002     2.8208147526298671E-006
  -1.3350000000000001E-002     2.8526554562389209E-006
  -1.3299999999999999E-002     2.8844806019353140E-006
  -1.3249999999999998E-002     2.9162690379846561E-006
  -1.3200000000000000E-002     2.9479977920543622E-006
  -1.3149999999999998E-002     2.9796464943401279E-006
  -1.3100000000000001E-002     3.0111995976663547E-006
  -1.3049999999999999E-002     3.0426471667635033E-006
  -1.3000000000000001E-002     3.0739817014593440E-006
  -1.2950000000000000E-002     3.1051954613032394E-006
  -1.2899999999999998E-002     3.1362781196957100E-006
  -1.2850000000000000E-002     3.1672171363611747E-006
  -1.2799999999999999E-002     3.1980012549802931E-006