  -4.0000000000000001E-002     0.0000000000000000     
  -3.9949999999999999E-002     0.0000000000000000     
  -3.9899999999999998E-002     2.1855054212690667E-013
  -3.9850000000000003E-002     1.0782907450117336E-014
  -3.9800000000000002E-002    -2.3594790550858168E-012
  -3.9750000000000001E-002    -7.7787182372141735E-012
  -3.9699999999999999E-002    -1.3648847820938739E-011
  -3.9649999999999998E-002    -1.3746432004048325E-011
  -3.9600000000000003E-002    -1.9772476243776881E-012
  -3.9550000000000002E-002     2.2499025333015857E-011
  -3.9500000000000000E-002     5.3308145554136257E-011
  -3.9449999999999999E-002     8.0177816562235135E-011
  -3.9399999999999998E-002     9.4789887933623386E-011
  -3.9350000000000003E-002     9.3966371229949016E-011
  -3.9300000000000002E-002     7.7689425820582079E-011
  -3.9250000000000000E-002     4.4898065315988431E-011
  -3.9199999999999999E-002    -7.3382759622492966E-012
  -3.9150000000000004E-002    -7.8915268525816904E-011
  -3.9100000000000003E-002    -1.6011160328050160E-010
  -3.9050000000000001E-002    -2.3063422445067903E-010
  -3.9000000000000000E-002    -2.6787564027954975E-010
  -3.8949999999999999E-002    -2.5995600935442277E-010
  -3.8900000000000004E-002    -2.1387230101865505E-010
  -3.8850000000000003E-002    -1.5162583061260418E-010
  -3.8800000000000001E-002    -9.5892489837129527E-011
  -3.8750000000000000E-002    -5.4698137182886822E-011
  -3.8699999999999998E-002    -1.5504063019527897E-011
  -3.8650000000000004E-002     4.7243866932959053E-011
  -3.8600000000000002E-002     1.5555050149993002E-010
  -3.8550000000000001E-002     3.1157988737296123E-010
  -3.8500000000000000E-002     4.9006836631393318E-010
  -3.8449999999999998E-002     6.4333817626212729E-010
  -3.8400000000000004E-002     7.1762473441604104E-010
  -3.8350000000000002E-002     6.7507539118950686E-010
  -3.8300000000000001E-002     5.1261365838578435E-010
  -3.8249999999999999E-002     2.6809860933200435E-010
  -3.8199999999999998E-002     8.0242026380421700E-012
  -3.8150000000000003E-002    -2.0016967426689799E-010
  -3.8100000000000002E-002    -3.1821296792074802E-010
  -3.8050000000000000E-002    -3.5264127824021135E-010
  -3.7999999999999999E-002    -3.4570246845462416E-010
  -3.7949999999999998E-002    -3.4584397527060608E-010
  -3.7900000000000003E-002    -3.7513503352988531E-010
  -3.7850000000000002E-002    -4.1313752484280024E-010
  -3.7800000000000000E-002    -4.0621219127496948E-010
  -3.7749999999999999E-002    -2.9549145977109728E-010
  -3.7699999999999997E-002    -4.6633676142801928E-011
  -3.7650000000000003E-002     3.3409807125057156E-010
  -3.7600000000000001E-002     8.0281384426655312E-010
  -3.7550000000000000E-002     1.2948798838653714E-009
  -3.7499999999999999E-002     1.7459445954626183E-009
  -3.7449999999999997E-002     2.1090334630460602E-009
  -3.7400000000000003E-002     2.3636909853687760E-009
  -3.7350000000000001E-002     2.5161293147603836E-009
  -3.7300000000000000E-002     2.5911206270930902E-009
  -3.7249999999999998E-002     2.6185689347616052E-009
  -3.7200000000000004E-002     2.6203803060234383E-009
  -3.7150000000000002E-002     2.6040809002351627E-009
  -3.7100000000000001E-002     2.5664311088389887E-009
  -3.7050000000000000E-002     2.5042308404418829E-009
  -3.6999999999999998E-002     2.4248980589141325E-009
  -3.6950000000000004E-002     2.3499414492488082E-009
  -3.6900000000000002E-002     2.3096369616123715E-009
  -3.6850000000000001E-002     2.3326809506370037E-009
  -3.6799999999999999E-002     2.4361956904323201E-009
  -3.6749999999999998E-002     2.6191012661475269E-009
  -3.6700000000000003E-002     2.8590779818108916E-009
  -3.6650000000000002E-002     3.1132272268061203E-009
  -3.6600000000000001E-002     3.3243057023439159E-009
  -3.6549999999999999E-002     3.4343126296143298E-009
  -3.6499999999999998E-002     3.4030425806774359E-009
  -3.6450000000000003E-002     3.2234440611885395E-009
  -3.6400000000000002E-002     2.9239420929302891E-009
  -3.6350000000000000E-002     2.5536203945363089E-009
  -3.6299999999999999E-002     2.1565214274140104E-009
  -3.6249999999999998E-002     1.7489467931098445E-009
  -3.6200000000000003E-002     1.3125847198002801E-009
  -3.6150000000000002E-002     8.0706693672779696E-010
  -3.6100000000000000E-002     1.9461532344055243E-010
  -3.6049999999999999E-002    -5.3617773740443004E-010
  -3.6000000000000004E-002    -1.3583031982003812E-009
  -3.5950000000000003E-002    -2.2101578107684277E-009
  -3.5900000000000001E-002    -3.0127752280202037E-009
  -3.5850000000000000E-002    -3.6941514506099061E-009
  -3.5799999999999998E-002    -4.2128463141906292E-009
  -3.5750000000000004E-002    -4.5729397206246762E-009
  -3.5700000000000003E-002    -4.8241431218204306E-009
  -3.5650000000000001E-002    -5.0454762738041507E-009
  -3.5600000000000000E-002    -5.3177619975687163E-009
  -3.5549999999999998E-002    -5.6957854773579123E-009
  -3.5500000000000004E-002    -6.1914842731183766E-009
  -3.5450000000000002E-002    -6.7741754196835084E-009
  -3.5400000000000001E-002    -7.3859556612301620E-009
  -3.5349999999999999E-002    -7.9648649070396086E-009
  -3.5299999999999998E-002    -8.4674020140218576E-009
  -3.5250000000000004E-002    -8.8841091419481507E-009
  -3.5200000000000002E-002    -9.2441114413764335E-009
  -3.5150000000000001E-002    -9.6060755234439887E-009
  -3.5099999999999999E-002    -1.0035806384907821E-008
  -3.5049999999999998E-002    -1.0576266349662414E-008
  -3.5000000000000003E-002    -1.1222052678763416E-008
  -3.4950000000000002E-002    -1.1912146431363077E-008
  -3.4900000000000000E-002    -1.2548159228278723E-008
  -3.4849999999999999E-002    -1.3032450738060569E-008
  -3.4799999999999998E-002    -1.3309018277496427E-008
  -3.4750000000000003E-002    -1.3387688691114954E-008
  -3.4700000000000002E-002    -1.3340761784877875E-008
  -3.4650000000000000E-002    -1.3275231408112156E-008
  -3.4599999999999999E-002    -1.3294514747529312E-008
  -3.4549999999999997E-002    -1.3466008542924216E-008
  -3.4500000000000003E-002    -1.3805676083233005E-008
  -3.4450000000000001E-002    -1.4282633953316380E-008
  -3.4400000000000000E-002    -1.4839661637861556E-008
  -3.4349999999999999E-002    -1.5420743377068771E-008
  -3.4299999999999997E-002    -1.5994712272724750E-008
  -3.4250000000000003E-002    -1.6565238725039298E-008
  -3.4200000000000001E-002    -1.7163063371452293E-008
  -3.4150000000000000E-002    -1.7825042916997851E-008
  -3.4099999999999998E-002    -1.8571834897114057E-008
  -3.4049999999999997E-002    -1.9396565310755062E-008
  -3.4000000000000002E-002    -2.0269359441587246E-008
  -3.3950000000000001E-002    -2.1152326897583947E-008
  -3.3900000000000000E-002    -2.2013866501950260E-008
  -3.3849999999999998E-002    -2.2834402995177190E-008
  -3.3799999999999997E-002    -2.3604120610171079E-008
  -3.3750000000000002E-002    -2.4319515847024725E-008
  -3.3700000000000001E-002    -2.4984336734368627E-008
  -3.3649999999999999E-002    -2.5613788926317937E-008
  -3.3599999999999998E-002    -2.6235889689463291E-008
  -3.3550000000000003E-002    -2.6885580801567030E-008
  -3.3500000000000002E-002    -2.7593999146104394E-008
  -3.3450000000000001E-002    -2.8380216426741958E-008
  -3.3399999999999999E-002    -2.9250952314831016E-008
  -3.3349999999999998E-002    -3.0206682211616397E-008
  -3.3300000000000003E-002    -3.1247211127786474E-008
  -3.3250000000000002E-002    -3.2371146403499437E-008
  -3.3200000000000000E-002    -3.3570427586894481E-008
  -3.3149999999999999E-002    -3.4826429044728016E-008
  -3.3099999999999997E-002    -3.6112988092410087E-008
  -3.3050000000000003E-002    -3.7405453130819036E-008
  -3.3000000000000002E-002    -3.8689421333014975E-008
  -3.2950000000000000E-002    -3.9963408888024865E-008
  -3.2899999999999999E-002    -4.1235128635887194E-008
  -3.2850000000000004E-002    -4.2515550250717931E-008
  -3.2800000000000003E-002    -4.3814588038662806E-008
  -3.2750000000000001E-002    -4.5138547897988506E-008
  -3.2700000000000000E-002    -4.6487278461709732E-008
  -3.2649999999999998E-002    -4.7851511631698296E-008
  -3.2600000000000004E-002    -4.9214731529620967E-008
  -3.2550000000000003E-002    -5.0563515403638188E-008
  -3.2500000000000001E-002    -5.1903719225809480E-008
  -3.2450000000000000E-002    -5.3271939475736206E-008
  -3.2399999999999998E-002    -5.4731088508267510E-008
  -3.2350000000000004E-002    -5.6347921161826466E-008
  -3.2300000000000002E-002    -5.8163490159854010E-008
  -3.2250000000000001E-002    -6.0174022758898925E-008
  -3.2199999999999999E-002    -6.2333446416560966E-008
  -3.2149999999999998E-002    -6.4574774848926974E-008
  -3.2100000000000004E-002    -6.6836360431707612E-008
  -3.2050000000000002E-002    -6.9079181834761955E-008
  -3.2000000000000001E-002    -7.1290527247438233E-008
  -3.1949999999999999E-002    -7.3479223824567761E-008
  -3.1899999999999998E-002    -7.5669205440103036E-008
  -3.1850000000000003E-002    -7.7893389961977942E-008
  -3.1800000000000002E-002    -8.0185003674706116E-008
  -3.1750000000000000E-002    -8.2565294576129529E-008
  -3.1699999999999999E-002    -8.5032841829606988E-008
  -3.1649999999999998E-002    -8.7563174353928744E-008
  -3.1600000000000003E-002    -9.0122571135075522E-008
  -3.1550000000000002E-002    -9.2689684644532393E-008
  -3.1500000000000000E-002    -9.5271813549719821E-008
  -3.1449999999999999E-002    -9.7905618069548599E-008
  -3.1399999999999997E-002    -1.0064307623905824E-007
  -3.1350000000000003E-002    -1.0353273821418404E-007
  -3.1300000000000001E-002    -1.0660706819722059E-007
  -3.1250000000000000E-002    -1.0987913013676712E-007
  -3.1199999999999999E-002    -1.1334460558390445E-007
  -3.1150000000000001E-002    -1.1698369751052322E-007
  -3.1100000000000003E-002    -1.2076309007529881E-007
  -3.1050000000000001E-002    -1.2464171514657636E-007
  -3.1000000000000000E-002    -1.2858183535067925E-007
  -3.0949999999999998E-002    -1.3256060861230281E-007
  -3.0900000000000000E-002    -1.3657368689527374E-007
  -3.0850000000000002E-002    -1.4062762625277033E-007
  -3.0800000000000001E-002    -1.4472737834812976E-007
  -3.0750000000000000E-002    -1.4887067292212696E-007
  -3.0699999999999998E-002    -1.5305556465110006E-007
  -3.0650000000000000E-002    -1.5729552535402539E-007
  -3.0600000000000002E-002    -1.6162820431358207E-007
  -3.0550000000000001E-002    -1.6610762256113932E-007
  -3.0499999999999999E-002    -1.7078268114291636E-007
  -3.0449999999999998E-002    -1.7567675497083489E-007
  -3.0400000000000000E-002    -1.8078219235400283E-007
  -3.0350000000000002E-002    -1.8607253570392272E-007
  -3.0300000000000001E-002    -1.9152219029697612E-007
  -3.0249999999999999E-002    -1.9711987739080510E-007
  -3.0200000000000001E-002    -2.0286967125043587E-007
  -3.0150000000000000E-002    -2.0878377303015852E-007
  -3.0100000000000002E-002    -2.1487525018459564E-007
  -3.0050000000000000E-002    -2.2115424334999468E-007
  -2.9999999999999999E-002    -2.2762502332857338E-007
  -2.9950000000000001E-002    -2.3428042428978200E-007
  -2.9899999999999999E-002    -2.4109623662069940E-007
  -2.9850000000000002E-002    -2.4803290920374175E-007
  -2.9800000000000000E-002    -2.5504954696451519E-007
  -2.9749999999999999E-002    -2.6212541424879398E-007
  -2.9700000000000001E-002    -2.6927607227207559E-007
  -2.9650000000000003E-002    -2.7655259960847726E-007
  -2.9600000000000001E-002    -2.8402406796555648E-007
  -2.9550000000000000E-002    -2.9175367977245562E-007
  -2.9499999999999998E-002    -2.9978241356091932E-007
  -2.9450000000000000E-002    -3.0812593532940753E-007
  -2.9400000000000003E-002    -3.1677965583216633E-007
  -2.9350000000000001E-002    -3.2572471448937771E-007
  -2.9300000000000000E-002    -3.3493231094255080E-007
  -2.9249999999999998E-002    -3.4437021602453134E-007
  -2.9200000000000000E-002    -3.5401506688584414E-007
  -2.9150000000000002E-002    -3.6386678160560877E-007
  -2.9100000000000001E-002    -3.7395363942673965E-007
  -2.9049999999999999E-002    -3.8432076034140996E-007
  -2.8999999999999998E-002    -3.9500510082072146E-007
  -2.8950000000000000E-002    -4.0601317760190146E-007
  -2.8900000000000002E-002    -4.1731668597486681E-007
  -2.8850000000000001E-002    -4.2886949671960078E-007
  -2.8799999999999999E-002    -4.4063402739634487E-007
  -2.8749999999999998E-002    -4.5259967604496538E-007
  -2.8700000000000000E-002    -4.6478368820989169E-007
  -2.8650000000000002E-002    -4.7721957263549549E-007
  -2.8600000000000000E-002    -4.8994457391406541E-007
  -2.8549999999999999E-002    -5.0299404155167761E-007
  -2.8500000000000001E-002    -5.1640119105367523E-007
  -2.8450000000000000E-002    -5.3019503983293231E-007
  -2.8400000000000002E-002    -5.4439415660295258E-007
  -2.8350000000000000E-002    -5.5900124971813470E-007
  -2.8299999999999999E-002    -5.7400603737622717E-007
  -2.8250000000000001E-002    -5.8939702677006289E-007
  -2.8200000000000003E-002    -6.0517372925146337E-007
  -2.8150000000000001E-002    -6.2134874938914049E-007
  -2.8100000000000000E-002    -6.3793751159369014E-007
  -2.8049999999999999E-002    -6.5494481165004220E-007
  -2.8000000000000001E-002    -6.7236049370256921E-007
  -2.7950000000000003E-002    -6.9016924498353104E-007
  -2.7900000000000001E-002    -7.0836610273021602E-007
  -2.7850000000000000E-002    -7.2696440639352202E-007
  -2.7799999999999998E-002    -7.4598951490665137E-007
  -2.7750000000000000E-002    -7.6546457878504089E-007
  -2.7700000000000002E-002    -7.8540105573335207E-007
  -2.7650000000000001E-002    -8.0580122564386921E-007
  -2.7600000000000000E-002    -8.2666922208477658E-007
  -2.7549999999999998E-002    -8.4801834282907247E-007
  -2.7500000000000000E-002    -8.6986914620163240E-007
  -2.7450000000000002E-002    -8.9224130059797985E-007
  -2.7400000000000001E-002    -9.1514988818884986E-007
  -2.7349999999999999E-002    -9.3861079086316571E-007
  -2.7299999999999998E-002    -9.6264977155524293E-007
  -2.7250000000000000E-002    -9.8730271039990092E-007
  -2.7200000000000002E-002    -1.0126037701271407E-006
  -2.7150000000000001E-002    -1.0385673567399149E-006
  -2.7099999999999999E-002    -1.0651799901871825E-006
  -2.7049999999999998E-002    -1.0924096596725775E-006
  -2.7000000000000000E-002    -1.1202285006841836E-006
  -2.6950000000000002E-002    -1.1486320428285340E-006
  -2.6900000000000000E-002    -1.1776416323854819E-006
  -2.6849999999999999E-002    -1.2072919790692832E-006
  -2.6800000000000001E-002    -1.2376152139388156E-006
  -2.6749999999999999E-002    -1.2686339103886081E-006
  -2.6700000000000002E-002    -1.3003650844257216E-006
  -2.6650000000000000E-002    -1.3328261672488675E-006
  -2.6599999999999999E-002    -1.3660345337047873E-006
  -2.6550000000000001E-002    -1.4000011001809189E-006
  -2.6500000000000003E-002    -1.4347268336185435E-006
  -2.6450000000000001E-002    -1.4702102210504328E-006
  -2.6400000000000000E-002    -1.5064616044342915E-006
  -2.6349999999999998E-002    -1.5435139289152634E-006
  -2.6300000000000000E-002    -1.5814176327937150E-006
  -2.6250000000000002E-002    -1.6202232099477714E-006
  -2.6200000000000001E-002    -1.6599615016655267E-006
  -2.6150000000000000E-002    -1.7006394240174279E-006
  -2.6099999999999998E-002    -1.7422497652895947E-006
  -2.6050000000000000E-002    -1.7847872178389962E-006
  -2.6000000000000002E-002    -1.8282570055470932E-006
  -2.5950000000000001E-002    -1.8726699631584658E-006
  -2.5899999999999999E-002    -1.9180333458792814E-006
  -2.5849999999999998E-002    -1.9643506500235608E-006
  -2.5800000000000000E-002    -2.0116287815602814E-006
  -2.5750000000000002E-002    -2.0598898621404815E-006
  -2.5700000000000001E-002    -2.1091704579339952E-006
  -2.5649999999999999E-002    -2.1595111902249435E-006
  -2.5599999999999998E-002    -2.2109416121294318E-006
  -2.5550000000000000E-002    -2.2634763674766051E-006
  -2.5500000000000002E-002    -2.3171247766666042E-006
  -2.5450000000000000E-002    -2.3719062927292535E-006
  -2.5399999999999999E-002    -2.4278573698329620E-006
  -2.5349999999999998E-002    -2.4850209921416263E-006
  -2.5300000000000000E-002    -2.5434313210480163E-006
  -2.5250000000000002E-002    -2.6031050625722610E-006
  -2.5200000000000000E-002    -2.6640496816329432E-006
  -2.5149999999999999E-002    -2.7262797510811877E-006
  -2.5100000000000001E-002    -2.7898279105162189E-006
  -2.5049999999999999E-002    -2.8547387583504702E-006
  -2.5000000000000001E-002    -2.9210507740428050E-006
  -2.4950000000000000E-002    -2.9887825991634174E-006
  -2.4899999999999999E-002    -3.0579339287605477E-006
  -2.4850000000000001E-002    -3.1284992451715584E-006
  -2.4800000000000003E-002    -3.2004829711797220E-006
  -2.4750000000000001E-002    -3.2739024349946829E-006
  -2.4700000000000000E-002    -3.3487809472057024E-006
  -2.4649999999999998E-002    -3.4251402885681212E-006
  -2.4600000000000000E-002    -3.5030053289021045E-006
  -2.4550000000000002E-002    -3.5824145080122179E-006
  -2.4500000000000001E-002    -3.6634255335702562E-006
  -2.4450000000000000E-002    -3.7461071099602455E-006
  -2.4399999999999998E-002    -3.8305177440719487E-006
  -2.4350000000000000E-002    -3.9166882098773457E-006
  -2.4299999999999999E-002    -4.0046234811679841E-006
  -2.4250000000000001E-002    -4.0943205376798119E-006
  -2.4199999999999999E-002    -4.1857917879479253E-006
  -2.4150000000000001E-002    -4.2790721821049291E-006
  -2.4100000000000000E-002    -4.3742106766844744E-006
  -2.4049999999999998E-002    -4.4712525889648927E-006
  -2.4000000000000000E-002    -4.5702288905993845E-006
  -2.3949999999999999E-002    -4.6711630361807031E-006
  -2.3900000000000001E-002    -4.7740786824775785E-006
  -2.3850000000000000E-002    -4.8790018555065713E-006
  -2.3800000000000002E-002    -4.9859533123064966E-006
  -2.3750000000000000E-002    -5.0949384979358413E-006
  -2.3699999999999999E-002    -5.2059536127512323E-006
  -2.3650000000000001E-002    -5.3190039031737854E-006
  -2.3599999999999999E-002    -5.4341257008573115E-006
  -2.3550000000000001E-002    -5.5513886288347964E-006
  -2.3500000000000000E-002    -5.6708787161114760E-006
  -2.3449999999999999E-002    -5.7926698036429237E-006
  -2.3400000000000001E-002    -5.9168099383137530E-006
  -2.3349999999999999E-002    -6.0433260851816800E-006
  -2.3300000000000001E-002    -6.1722462716866657E-006
  -2.3250000000000000E-002    -6.3036094850532374E-006
  -2.3199999999999998E-002    -6.4374625333676988E-006
  -2.3150000000000000E-002    -6.5738437604015808E-006
  -2.3099999999999999E-002    -6.7127744171231808E-006
  -2.3050000000000001E-002    -6.8542666886555265E-006
  -2.3000000000000000E-002    -6.9983418256245377E-006
  -2.2950000000000002E-002    -7.1450399331277615E-006
  -2.2900000000000000E-002    -7.2944164062603250E-006
  -2.2849999999999999E-002    -7.4465203990411910E-006
  -2.2800000000000001E-002    -7.6013838382514161E-006
  -2.2749999999999999E-002    -7.7590255156744170E-006
  -2.2700000000000001E-002    -7.9194687446448278E-006
  -2.2650000000000000E-002    -8.0827539656322996E-006
  -2.2599999999999999E-002    -8.2489379335286614E-006
  -2.2550000000000001E-002    -8.4180749385536261E-006
  -2.2499999999999999E-002    -8.5902038626513668E-006
  -2.2450000000000001E-002    -8.7653572462877702E-006
  -2.2400000000000000E-002    -8.9435741554822580E-006
  -2.2349999999999998E-002    -9.1249160016294221E-006
  -2.2300000000000000E-002    -9.3094623501376560E-006
  -2.2249999999999999E-002    -9.4972901581776844E-006
  -2.2200000000000001E-002    -9.6884526850512343E-006
  -2.2150000000000000E-002    -9.8829819443551302E-006
  -2.2100000000000002E-002    -1.0080900142122581E-005
  -2.2050000000000000E-002    -1.0282238607877022E-005
  -2.1999999999999999E-002    -1.0487033800223616E-005
  -2.1950000000000001E-002    -1.0695321580781716E-005
  -2.1899999999999999E-002    -1.0907118849461355E-005
  -2.1850000000000001E-002    -1.1122437153562759E-005
  -2.1800000000000000E-002    -1.1341303969035339E-005
  -2.1749999999999999E-002    -1.1563777797650991E-005
  -2.1700000000000001E-002    -1.1789945204913584E-005
  -2.1649999999999999E-002    -1.2019892306815698E-005
  -2.1600000000000001E-002    -1.2253679124394313E-005
  -2.1550000000000000E-002    -1.2491333066510555E-005
  -2.1499999999999998E-002    -1.2732869721125128E-005
  -2.1450000000000000E-002    -1.2978316169120354E-005
  -2.1399999999999999E-002    -1.3227728490409666E-005
  -2.1350000000000001E-002    -1.3481179746044683E-005
  -2.1299999999999999E-002    -1.3738742697230047E-005
  -2.1250000000000002E-002    -1.4000479062289094E-005
  -2.1200000000000000E-002    -1.4266444308234886E-005
  -2.1149999999999999E-002    -1.4536693941084619E-005
  -2.1100000000000001E-002    -1.4811291696236465E-005
  -2.1049999999999999E-002    -1.5090290119187605E-005
  -2.1000000000000001E-002    -1.5373723797323431E-005
  -2.0950000000000000E-002    -1.5661603476473760E-005
  -2.0899999999999998E-002    -1.5953938935576995E-005
  -2.0850000000000000E-002    -1.6250759982821211E-005
  -2.0799999999999999E-002    -1.6552124925845073E-005
  -2.0750000000000001E-002    -1.6858104458108064E-005
  -2.0700000000000000E-002    -1.7168766628518800E-005
  -2.0649999999999998E-002    -1.7484161816013155E-005
  -2.0600000000000000E-002    -1.7804335463010460E-005
  -2.0549999999999999E-002    -1.8129343552739048E-005
  -2.0500000000000001E-002    -1.8459253323970600E-005
  -2.0449999999999999E-002    -1.8794140289273996E-005
  -2.0400000000000001E-002    -1.9134067629367191E-005
  -2.0350000000000000E-002    -1.9479085298951775E-005
  -2.0299999999999999E-002    -1.9829231396664270E-005
  -2.0250000000000001E-002    -2.0184551329037269E-005
  -2.0199999999999999E-002    -2.0545105606277399E-005
  -2.0150000000000001E-002    -2.0910952226510954E-005
  -2.0100000000000000E-002    -2.1282139722113454E-005
  -2.0049999999999998E-002    -2.1658697673467882E-005
  -2.0000000000000000E-002    -2.2040651257560737E-005
  -1.9949999999999999E-002    -2.2428037961834884E-005
  -1.9900000000000001E-002    -2.2820918659097959E-005
  -1.9850000000000000E-002    -2.3219366526439566E-005
  -1.9799999999999998E-002    -2.3623447587123737E-005
  -1.9750000000000000E-002    -2.4033207165604975E-005
  -1.9699999999999999E-002    -2.4448666295836857E-005
  -1.9650000000000001E-002    -2.4869850283801005E-005
  -1.9599999999999999E-002    -2.5296794042506588E-005
  -1.9550000000000001E-002    -2.5729552970713026E-005
  -1.9500000000000000E-002    -2.6168197164758177E-005
  -1.9449999999999999E-002    -2.6612796373072571E-005
  -1.9400000000000001E-002    -2.7063411156115225E-005
  -1.9349999999999999E-002    -2.7520098898473294E-005
  -1.9300000000000001E-002    -2.7982919915652975E-005
  -1.9250000000000000E-002    -2.8451931823945725E-005
  -1.9199999999999998E-002    -2.8927174141260212E-005
  -1.9150000000000000E-002    -2.9408673767129085E-005
  -1.9099999999999999E-002    -2.9896443952559542E-005
  -1.9050000000000001E-002    -3.0390507852282701E-005
  -1.9000000000000000E-002    -3.0890910535518942E-005
  -1.8949999999999998E-002    -3.1397711507486213E-005
  -1.8900000000000000E-002    -3.1910984018080870E-005
  -1.8849999999999999E-002    -3.2430780109612718E-005
  -1.8800000000000001E-002    -3.2957150767693404E-005
  -1.8749999999999999E-002    -3.3490128241781621E-005
  -1.8700000000000001E-002    -3.4029738693160631E-005
  -1.8650000000000000E-002    -3.4576013712189183E-005
  -1.8599999999999998E-002    -3.5128983937027198E-005
  -1.8550000000000001E-002    -3.5688678782291281E-005
  -1.8499999999999999E-002    -3.6255140144996828E-005
  -1.8450000000000001E-002    -3.6828413550730912E-005
  -1.8400000000000000E-002    -3.7408556699639408E-005
  -1.8349999999999998E-002    -3.7995636332458708E-005
  -1.8300000000000000E-002    -3.8589710028401748E-005
  -1.8249999999999999E-002    -3.9190819332793054E-005
  -1.8200000000000001E-002    -3.9798985683305445E-005
  -1.8149999999999999E-002    -4.0414218907673519E-005
  -1.8100000000000002E-002    -4.1036537192542068E-005
  -1.8050000000000000E-002    -4.1665966044079016E-005
  -1.7999999999999999E-002    -4.2302546936892561E-005
  -1.7950000000000001E-002    -4.2946323374696898E-005
  -1.7899999999999999E-002    -4.3597328565879781E-005
  -1.7850000000000001E-002    -4.4255578388829224E-005
  -1.7800000000000000E-002    -4.4921089810984075E-005
  -1.7749999999999998E-002    -4.5593874157315621E-005
  -1.7700000000000000E-002    -4.6273945852506285E-005
  -1.7649999999999999E-002    -4.6961333282458638E-005
  -1.7600000000000001E-002    -4.7656062719992752E-005
  -1.7550000000000000E-002    -4.8358157913679231E-005
  -1.7499999999999998E-002    -4.9067649272485842E-005
  -1.7450000000000000E-002    -4.9784553197959375E-005
  -1.7399999999999999E-002    -5.0508882073019333E-005
  -1.7350000000000001E-002    -5.1240651593885433E-005
  -1.7299999999999999E-002    -5.1979871356202482E-005
  -1.7250000000000001E-002    -5.2726561037069459E-005
  -1.7200000000000000E-002    -5.3480739001920811E-005
  -1.7149999999999999E-002    -5.4242414948567721E-005
  -1.7100000000000001E-002    -5.5011604044028167E-005
  -1.7049999999999999E-002    -5.5788316558395520E-005
  -1.7000000000000001E-002    -5.6572551975014971E-005
  -1.6950000000000000E-002    -5.7364312759082591E-005
  -1.6899999999999998E-002    -5.8163596580777961E-005
  -1.6850000000000000E-002    -5.8970383903587671E-005
  -1.6799999999999999E-002    -5.9784678392372939E-005
  -1.6750000000000001E-002    -6.0606478505586603E-005
  -1.6700000000000000E-002    -6.1435771744878869E-005
  -1.6649999999999998E-002    -6.2272566784116808E-005
  -1.6600000000000000E-002    -6.3116859502365056E-005
  -1.6549999999999999E-002    -6.3968654270357152E-005
  -1.6500000000000001E-002    -6.4827938088441936E-005
  -1.6449999999999999E-002    -6.5694696660630915E-005
  -1.6400000000000001E-002    -6.6568905810470769E-005
  -1.6350000000000000E-002    -6.7450539069403793E-005
  -1.6299999999999999E-002    -6.8339544586611914E-005
  -1.6250000000000001E-002    -6.9235902556884275E-005
  -1.6199999999999999E-002    -7.0139601332160702E-005
  -1.6150000000000001E-002    -7.1050630421288488E-005
  -1.6100000000000000E-002    -7.1968988666451820E-005
  -1.6049999999999998E-002    -7.2894666260689032E-005
  -1.6000000000000000E-002    -7.3827656620313511E-005
  -1.5949999999999999E-002    -7.4767911662224442E-005
  -1.5900000000000001E-002    -7.5715366078467415E-005
  -1.5850000000000000E-002    -7.6669959934401195E-005
  -1.5799999999999998E-002    -7.7631639995997593E-005
  -1.5750000000000000E-002    -7.8600354356731796E-005
  -1.5699999999999999E-002    -7.9576050086302603E-005
  -1.5650000000000001E-002    -8.0558694315144817E-005
  -1.5599999999999999E-002    -8.1548245016168134E-005
  -1.5550000000000001E-002    -8.2544656512288639E-005
  -1.5500000000000000E-002    -8.3547874755883456E-005
  -1.5449999999999998E-002    -8.4557834012596964E-005
  -1.5400000000000000E-002    -8.5574457436487822E-005
  -1.5349999999999999E-002    -8.6597656156528957E-005
  -1.5300000000000001E-002    -8.7627359654924718E-005
  -1.5250000000000000E-002    -8.8663492305888331E-005
  -1.5199999999999998E-002    -8.9705999761596571E-005
  -1.5150000000000000E-002    -9.0754813277552039E-005
  -1.5099999999999999E-002    -9.1809877535286178E-005
  -1.5050000000000001E-002    -9.2871134239667788E-005
  -1.4999999999999999E-002    -9.3938526536237904E-005
  -1.4949999999999998E-002    -9.5011980716953491E-005
  -1.4900000000000000E-002    -9.6091405224679738E-005
  -1.4849999999999999E-002    -9.7176690616699712E-005
  -1.4800000000000001E-002    -9.8267705814984556E-005
  -1.4749999999999999E-002    -9.9364307385679850E-005
  -1.4700000000000001E-002    -1.0046636863646869E-004
  -1.4650000000000000E-002    -1.0157378176878392E-004
  -1.4599999999999998E-002    -1.0268646993168010E-004
  -1.4550000000000000E-002    -1.0380434745845088E-004
  -1.4499999999999999E-002    -1.0492735438289932E-004
  -1.4450000000000001E-002    -1.0605538084733389E-004
  -1.4400000000000000E-002    -1.0718829575940842E-004
  -1.4349999999999998E-002    -1.0832594189324888E-004
  -1.4300000000000000E-002    -1.0946815058395084E-004
  -1.4249999999999999E-002    -1.1061478468989030E-004
  -1.4200000000000001E-002    -1.1176573785597716E-004
  -1.4149999999999999E-002    -1.1292090719065416E-004
  -1.4099999999999998E-002    -1.1408020315277923E-004
  -1.4050000000000000E-002    -1.1524351008607148E-004
  -1.3999999999999999E-002    -1.1641069595761983E-004
  -1.3950000000000001E-002    -1.1758158663944575E-004
  -1.3899999999999999E-002    -1.1875600375310972E-004
  -1.3850000000000001E-002    -1.1993377758756272E-004
  -1.3800000000000000E-002    -1.2111472393466457E-004
  -1.3749999999999998E-002    -1.2229869096299370E-004
  -1.3700000000000000E-002    -1.2348552517166169E-004
  -1.3649999999999999E-002    -1.2467506311171364E-004
  -1.3600000000000001E-002    -1.2586714313410309E-004
  -1.3550000000000000E-002    -1.2706157082277981E-004
  -1.3499999999999998E-002    -1.2825818705120191E-004
  -1.3450000000000000E-002    -1.2945680339663472E-004
  -1.3399999999999999E-002    -1.3065720163483302E-004
  -1.3350000000000001E-002    -1.3185919791156638E-004
  -1.3299999999999999E-002    -1.3306260302146564E-004
  -1.3249999999999998E-002    -1.3426724633239316E-004
  -1.3200000000000000E-002    -1.3547296311363841E-004
  -1.3149999999999998E-002    -1.3667958904792134E-004
  -1.3100000000000001E-002    -1.3788690962325903E-004
  -1.3049999999999999E-002    -1.3909470097898274E-004
  -1.3000000000000001E-002    -1.4030274116110864E-004
  -1.2950000000000000E-002    -1.4151079822966582E-004
  -1.2899999999999998E-002    -1.4271865590937034E-004
  -1.2850000000000000E-002    -1.4392608409075341E-004
  -1.2799999999999999E-002    -1.4513286572529426E-004