  -4.0000000000000001E-002     0.0000000000000000     
  -3.9949999999999999E-002     0.0000000000000000     
  -3.9899999999999998E-002     0.0000000000000000     
  -3.9850000000000003E-002     0.0000000000000000     
  -3.9800000000000002E-002     0.0000000000000000     
  -3.9750000000000001E-002     0.0000000000000000     
  -3.9699999999999999E-002     6.4059819239068156E-021
  -3.9649999999999998E-002     5.9545998904788598E-020
  -3.9600000000000003E-002     2.7022037100884105E-019
  -3.9550000000000002E-002     7.6745928036510737E-019
  -3.9500000000000000E-002     1.4186700679846485E-018
  -3.9449999999999999E-002     1.4012665871155759E-018
  -3.9399999999999998E-002    -8.3529750975165908E-019
  -3.9350000000000003E-002    -6.5723232254027607E-018
  -3.9300000000000002E-002    -1.5135760492971034E-017
  -3.9250000000000000E-002    -2.3516101630088940E-017
  -3.9199999999999999E-002    -2.9316142133421692E-017
  -3.9150000000000004E-002    -3.5365384506836864E-017
  -3.9100000000000003E-002    -4.8957834264515550E-017
  -3.9050000000000001E-002    -6.8662841903860078E-017
  -3.9000000000000000E-002    -6.2914689655156865E-017
  -3.8949999999999999E-002     3.8110850407986028E-017
  -3.8900000000000004E-002     3.1065063843246585E-016
  -3.8850000000000003E-002     7.6235306474788527E-016
  -3.8800000000000001E-002     1.2558151690401622E-015
  -3.8750000000000000E-002     1.5018417557792649E-015
  -3.8699999999999998E-002     1.1682423009234333E-015
  -3.8650000000000004E-002     7.0266106534983069E-017
  -3.8600000000000002E-002    -1.6692095541001387E-015
  -3.8550000000000001E-002    -3.6057155975621529E-015
  -3.8500000000000000E-002    -5.1322013895980491E-015
  -3.8449999999999998E-002    -5.7197547554071223E-015
  -3.8400000000000004E-002    -5.1006206266058237E-015
  -3.8350000000000002E-002    -3.3147247001730748E-015
  -3.8300000000000001E-002    -6.4558842237941728E-016
  -3.8249999999999999E-002     2.4845770381024444E-015
  -3.8199999999999998E-002     5.6370731937060655E-015
  -3.8150000000000003E-002     8.5216399433239973E-015
  -3.8100000000000002E-002     1.1174567827134602E-014
  -3.8050000000000000E-002     1.3983283463793745E-014
  -3.7999999999999999E-002     1.7345610796339652E-014
  -3.7949999999999998E-002     2.0958650506823691E-014
  -3.7900000000000003E-002     2.3120433011994798E-014
  -3.7850000000000002E-002     2.0676953221363842E-014
  -3.7800000000000000E-002     1.0046303289898363E-014
  -3.7749999999999999E-002    -1.0878472995053114E-014
  -3.7699999999999997E-002    -4.0794586344826415E-014
  -3.7650000000000003E-002    -7.4053747699713399E-014
  -3.7600000000000001E-002    -1.0135011283889296E-013
  -3.7550000000000000E-002    -1.1198462204201368E-013
  -3.7499999999999999E-002    -9.7161885982041021E-014
  -3.7449999999999997E-002    -5.3565666910536380E-014
  -3.7400000000000003E-002     1.3721673635836416E-014
  -3.7350000000000001E-002     9.0221559094187969E-014
  -3.7300000000000000E-002     1.5438664840531553E-013
  -3.7249999999999998E-002     1.8390132232441051E-013
  -3.7200000000000004E-002     1.6468247192790419E-013
  -3.7150000000000002E-002     9.9059116288204252E-014
  -3.7100000000000001E-002     8.6783885959504934E-015
  -3.7050000000000000E-002    -7.0715272272734755E-014
  -3.6999999999999998E-002    -1.0179338341881046E-013
  -3.6950000000000004E-002    -6.0887607776033713E-014
  -3.6900000000000002E-002     5.0139936040404661E-014
  -3.6850000000000001E-002     2.0013024675124655E-013
  -3.6799999999999999E-002     3.3456501405022473E-013
  -3.6749999999999998E-002     3.8978321646572481E-013
  -3.6700000000000003E-002     3.1209844143516006E-013
  -3.6650000000000002E-002     7.7241510910641768E-014
  -3.6600000000000001E-002    -2.9540386843571231E-013
  -3.6549999999999999E-002    -7.3945169269825158E-013
  -3.6499999999999998E-002    -1.1526299518213306E-012
  -3.6450000000000003E-002    -1.4210587819375150E-012
  -3.6400000000000002E-002    -1.4495540006927944E-012
  -3.6350000000000000E-002    -1.1876116547269912E-012
  -3.6299999999999999E-002    -6.4265075145276576E-013
  -3.6249999999999998E-002     1.2181039286459149E-013
  -3.6200000000000003E-002     9.9913418914487732E-013
  -3.6150000000000002E-002     1.8573511794014820E-012
  -3.6100000000000000E-002     2.5573756948946236E-012
  -3.6049999999999999E-002     2.9706822174111527E-012
  -3.6000000000000004E-002     2.9969177429442920E-012
  -3.5950000000000003E-002     2.5806932066151688E-012
  -3.5900000000000001E-002     1.7251673212170483E-012
  -3.5850000000000000E-002     5.0025752404507240E-013
  -3.5799999999999998E-002    -9.5521680420937412E-013
  -3.5750000000000004E-002    -2.4384327739384810E-012
  -3.5700000000000003E-002    -3.6987368331094455E-012
  -3.5650000000000001E-002    -4.4724079278894202E-012
  -3.5600000000000000E-002    -4.5402224910746635E-012
  -3.5549999999999998E-002    -3.8000323699742615E-012
  -3.5500000000000004E-002    -2.3307102700420252E-012
  -3.5450000000000002E-002    -4.1521239383987529E-013
  -3.5400000000000001E-002     1.5016726904554803E-012
  -3.5349999999999999E-002     2.9216216700679659E-012
  -3.5299999999999998E-002     3.4392654517131338E-012
  -3.5250000000000004E-002     2.8798949896161399E-012
  -3.5200000000000002E-002     1.3803667387798147E-012
  -3.5150000000000001E-002    -6.1877236860141541E-013
  -3.5099999999999999E-002    -2.4761511285348735E-012
  -3.5049999999999998E-002    -3.5257455871752620E-012
  -3.5000000000000003E-002    -3.2803669645961261E-012
  -3.4950000000000002E-002    -1.6013216166043971E-012
  -3.4900000000000000E-002     1.2252738257098307E-012
  -3.4849999999999999E-002     4.5411019778796322E-012
  -3.4799999999999998E-002     7.4896324052524475E-012
  -3.4750000000000003E-002     9.2578066032463004E-012
  -3.4700000000000002E-002     9.3047231743158503E-012
  -3.4650000000000000E-002     7.5034725226400993E-012
  -3.4599999999999999E-002     4.1592980979533035E-012
  -3.4549999999999997E-002    -8.6007822161149975E-014
  -3.4500000000000003E-002    -4.4201521091358899E-012
  -3.4450000000000001E-002    -8.0444484552889375E-012
  -3.4400000000000000E-002    -1.0333556871442432E-011
  -3.4349999999999999E-002    -1.0944411014960028E-011
  -3.4299999999999997E-002    -9.8615586639795158E-012
  -3.4250000000000003E-002    -7.3776817496605384E-012
  -3.4200000000000001E-002    -4.0209678931293821E-012
  -3.4150000000000000E-002    -4.5288312552861867E-013
  -3.4099999999999998E-002     2.6370209012329096E-012
  -3.4049999999999997E-002     4.6235014465042987E-012
  -3.4000000000000002E-002     5.0283755562178895E-012
  -3.3950000000000001E-002     3.6083321944854206E-012
  -3.3900000000000000E-002     4.5455481171538634E-013
  -3.3849999999999998E-002    -3.9138045558466967E-012
  -3.3799999999999997E-002    -8.5042830019666158E-012
  -3.3750000000000002E-002    -1.1899563489042890E-011
  -3.3700000000000001E-002    -1.2423018914952791E-011
  -3.3649999999999999E-002    -8.4059977020674925E-012
  -3.3599999999999998E-002     1.4947860056154412E-012
  -3.3550000000000003E-002     1.8003113627844324E-011
  -3.3500000000000002E-002     4.1029029405700956E-011
  -3.3450000000000001E-002     6.9637593985456897E-011
  -3.3399999999999999E-002     1.0221113671437216E-010
  -3.3349999999999998E-002     1.3678387845802070E-010
  -3.3300000000000003E-002     1.7146576498699867E-010
  -3.3250000000000002E-002     2.0482646766849662E-010
  -3.3200000000000000E-002     2.3610893202096758E-010
  -3.3149999999999999E-002     2.6520007624408016E-010
  -3.3099999999999997E-002     2.9238483719164658E-010
  -3.3050000000000003E-002     3.1800136955817279E-010
  -3.3000000000000002E-002     3.4215308741084860E-010
  -3.2950000000000000E-002     3.6459815374640170E-010
  -3.2899999999999999E-002     3.8484790621681747E-010
  -3.2850000000000004E-002     4.0240882214661804E-010
  -3.2800000000000003E-002     4.1704740400810316E-010
  -3.2750000000000001E-002     4.2895987226977654E-010
  -3.2700000000000000E-002     4.3878481569103398E-010
  -3.2649999999999998E-002     4.4747637704268455E-010
  -3.2600000000000004E-002     4.5611770019471611E-010
  -3.2550000000000003E-002     4.6577477173731657E-010
  -3.2500000000000001E-002     4.7745384808138158E-010
  -3.2450000000000000E-002     4.9215010913938255E-010
  -3.2399999999999998E-002     5.1089859713432555E-010
  -3.2350000000000004E-002     5.3471170034819385E-010
  -3.2300000000000002E-002     5.6433491069234956E-010
  -3.2250000000000001E-002     5.9986602230046308E-010
  -3.2199999999999999E-002     6.4039565088870469E-010
  -3.2149999999999998E-002     6.8387625429946269E-010
  -3.2100000000000004E-002     7.2736641171895129E-010
  -3.2050000000000002E-002     7.6764341495617479E-010
  -3.2000000000000001E-002     8.0200656359200925E-010
  -3.1949999999999999E-002     8.2898615648842175E-010
  -3.1899999999999998E-002     8.4869157469852408E-010
  -3.1850000000000003E-002     8.6266751628363922E-010
  -3.1800000000000002E-002     8.7332283398978495E-010
  -3.1750000000000000E-002     8.8316380816987809E-010
  -3.1699999999999999E-002     8.9413127970033108E-010
  -3.1649999999999998E-002     9.0727591898169746E-010
  -3.1600000000000003E-002     9.2284287033989374E-010
  -3.1550000000000002E-002     9.4064774577933177E-010
  -3.1500000000000000E-002     9.6050558495790034E-010
  -3.1449999999999999E-002     9.8248361365742897E-010
  -3.1399999999999997E-002     1.0068734300157884E-009
  -3.1350000000000003E-002     1.0339527843297033E-009
  -3.1300000000000001E-002     1.0637304650256950E-009
  -3.1250000000000000E-002     1.0958640668419689E-009
  -3.1199999999999999E-002     1.1298285458849369E-009
  -3.1150000000000001E-002     1.1652550460096053E-009
  -3.1100000000000003E-002     1.2022527534732513E-009
  -3.1050000000000001E-002     1.2415346849367803E-009
  -3.1000000000000000E-002     1.2842682934435063E-009
  -3.0949999999999998E-002     1.3317132725808801E-009
  -3.0900000000000000E-002     1.3848169202727865E-009
  -3.0850000000000002E-002     1.4439600286628460E-009
  -3.0800000000000001E-002     1.5089780128837439E-009
  -3.0750000000000000E-002     1.5794517046960459E-009
  -3.0699999999999998E-002     1.6551286203554580E-009
  -3.0650000000000000E-002     1.7362582875677924E-009
  -3.0600000000000002E-002     1.8236492058286245E-009
  -3.0550000000000001E-002     1.9183880563290449E-009
  -3.0499999999999999E-002     2.0213389466055726E-009
  -3.0449999999999998E-002     2.1326650658846040E-009
  -3.0400000000000000E-002     2.2516002658291193E-009
  -3.0350000000000002E-002     2.3765546916375943E-009
  -3.0300000000000001E-002     2.5054360862438838E-009
  -3.0249999999999999E-002     2.6359631566622610E-009
  -3.0200000000000001E-002     2.7657829393916676E-009
  -3.0150000000000000E-002     2.8923827951068561E-009
  -3.0100000000000002E-002     3.0129561700430498E-009
  -3.0050000000000000E-002     3.1244466897496677E-009
  -2.9999999999999999E-002     3.2238887782769688E-009
  -2.9950000000000001E-002     3.3089811993259808E-009
  -2.9899999999999999E-002     3.3786837566932139E-009
  -2.9850000000000002E-002     3.4336005804104552E-009
  -2.9800000000000000E-002     3.4760025980516935E-009
  -2.9749999999999999E-002     3.5094817642779868E-009
  -2.9700000000000001E-002     3.5383608046337806E-009
  -2.9650000000000003E-002     3.5670587006747828E-009
  -2.9600000000000001E-002     3.5996240948607766E-009
  -2.9550000000000000E-002     3.6395978695229661E-009
  -2.9499999999999998E-002     3.6902143093157767E-009
  -2.9450000000000000E-002     3.7548005688949770E-009
  -2.9400000000000003E-002     3.8370796400833680E-009
  -2.9350000000000001E-002     3.9411345109114290E-009
  -2.9300000000000000E-002     4.0709839462847393E-009
  -2.9249999999999998E-002     4.2299984865862738E-009
  -2.9200000000000000E-002     4.4205497147825752E-009
  -2.9150000000000002E-002     4.6441363407798194E-009
  -2.9100000000000001E-002     4.9019647327423731E-009
  -2.9049999999999999E-002     5.1955968620703952E-009
  -2.8999999999999998E-002     5.5272313244802512E-009
  -2.8950000000000000E-002     5.8993916857770293E-009
  -2.8900000000000002E-002     6.3141872745953292E-009
  -2.8850000000000001E-002     6.7725607175048898E-009
  -2.8799999999999999E-002     7.2739419552984823E-009
  -2.8749999999999998E-002     7.8164459211412709E-009
  -2.8700000000000000E-002     8.3974632099884121E-009
  -2.8650000000000002E-002     9.0143332173340570E-009
  -2.8600000000000000E-002     9.6647941418509712E-009
  -2.8549999999999999E-002     1.0347075878156922E-008
  -2.8500000000000001E-002     1.1059580244754124E-008
  -2.8450000000000000E-002     1.1800220020857389E-008
  -2.8400000000000002E-002     1.2565577625163588E-008
  -2.8350000000000000E-002     1.3350203635632637E-008
  -2.8299999999999999E-002     1.4146404914190732E-008
  -2.8250000000000001E-002     1.4944743681788486E-008
  -2.8200000000000003E-002     1.5735108274554490E-008
  -2.8150000000000001E-002     1.6507912692449196E-008
  -2.8100000000000000E-002     1.7254898289131992E-008
  -2.8049999999999999E-002     1.7969286818222626E-008
  -2.8000000000000001E-002     1.8645501205807642E-008
  -2.7950000000000003E-002     1.9278892237112426E-008
  -2.7900000000000001E-002     1.9865826217995259E-008
  -2.7850000000000000E-002     2.0404109149985259E-008
  -2.7799999999999998E-002     2.0893339023153986E-008
  -2.7750000000000000E-002     2.1334877947255466E-008
  -2.7700000000000002E-002     2.1731453061536907E-008
  -2.7650000000000001E-002     2.2086714469947759E-008
  -2.7600000000000000E-002     2.2405112202329526E-008
  -2.7549999999999998E-002     2.2692097461606447E-008
  -2.7500000000000000E-002     2.2954311007471679E-008
  -2.7450000000000002E-002     2.3199337944573069E-008
  -2.7400000000000001E-002     2.3434924670526670E-008
  -2.7349999999999999E-002     2.3667989524262831E-008
  -2.7299999999999998E-002     2.3903903955863223E-008
  -2.7250000000000000E-002     2.4146296534243484E-008
  -2.7200000000000002E-002     2.4397336160948904E-008
  -2.7150000000000001E-002     2.4658214369662017E-008
  -2.7099999999999999E-002     2.4929694971155952E-008
  -2.7049999999999998E-002     2.5212730309574080E-008
  -2.7000000000000000E-002     2.5509181835996957E-008
  -2.6950000000000002E-002     2.5822308213630157E-008
  -2.6900000000000000E-002     2.6156613105789478E-008
  -2.6849999999999999E-002     2.6516833552598288E-008
  -2.6800000000000001E-002     2.6906501957597634E-008
  -2.6749999999999999E-002     2.7326956922684235E-008
  -2.6700000000000002E-002     2.7777660269913431E-008
  -2.6650000000000000E-002     2.8257785269232673E-008
  -2.6599999999999999E-002     2.8768097102649803E-008
  -2.6550000000000001E-002     2.9311912036278437E-008
  -2.6500000000000003E-002     2.9894349355990536E-008
  -2.6450000000000001E-002     3.0520281865691255E-008
  -2.6400000000000000E-002     3.1192112777294225E-008
  -2.6349999999999998E-002     3.1908494643254875E-008
  -2.6300000000000000E-002     3.2664357295640868E-008
  -2.6250000000000002E-002     3.3451927802298908E-008
  -2.6200000000000001E-002     3.4262171655346610E-008
  -2.6150000000000000E-002     3.5086289218701111E-008
  -2.6099999999999998E-002     3.5917157570680736E-008
  -2.6050000000000000E-002     3.6750541387711377E-008
  -2.6000000000000002E-002     3.7585515762018385E-008
  -2.5950000000000001E-002     3.8423788341863893E-008
  -2.5899999999999999E-002     3.9268081795003532E-008
  -2.5849999999999998E-002     4.0120528681290934E-008
  -2.5800000000000000E-002     4.0982281684730393E-008
  -2.5750000000000002E-002     4.1854703239815622E-008
  -2.5700000000000001E-002     4.2741328882417812E-008
  -2.5649999999999999E-002     4.3649080224763099E-008
  -2.5599999999999998E-002     4.4587671897540450E-008
  -2.5550000000000000E-002     4.5567405259879224E-008
  -2.5500000000000002E-002     4.6596675466932500E-008
  -2.5450000000000000E-002     4.7680531487235223E-008
  -2.5399999999999999E-002     4.8820661506583763E-008
  -2.5349999999999998E-002     5.0016119644864246E-008
  -2.5300000000000000E-002     5.1263855599496070E-008
  -2.5250000000000002E-002     5.2558853953665366E-008
  -2.5200000000000000E-002     5.3894382479533200E-008
  -2.5149999999999999E-002     5.5263002348079803E-008
  -2.5100000000000001E-002     5.6658203231996023E-008
  -2.5049999999999999E-002     5.8075726945918401E-008
  -2.5000000000000001E-002     5.9513706076801223E-008
  -2.4950000000000000E-002     6.0971573941572926E-008
  -2.4899999999999999E-002     6.2448820429551148E-008
  -2.4850000000000001E-002     6.3944620726713855E-008
  -2.4800000000000003E-002     6.5458703614699604E-008
  -2.4750000000000001E-002     6.6992505006710394E-008
  -2.4700000000000000E-002     6.8549513106439453E-008
  -2.4649999999999998E-002     7.0134483235791291E-008
  -2.4600000000000000E-002     7.1752199573262899E-008
  -2.4550000000000002E-002     7.3406693574085819E-008
  -2.4500000000000001E-002     7.5101398959069088E-008
  -2.4450000000000000E-002     7.6839387157396263E-008
  -2.4399999999999998E-002     7.8622719278347429E-008
  -2.4350000000000000E-002     8.0450956272648599E-008
  -2.4299999999999999E-002     8.2319973942007357E-008
  -2.4250000000000001E-002     8.4222394407909042E-008
  -2.4199999999999999E-002     8.6150103987673798E-008
  -2.4150000000000001E-002     8.8097394599348772E-008
  -2.4100000000000000E-002     9.0062849263041872E-008
  -2.4049999999999998E-002     9.2048905100244833E-008
  -2.4000000000000000E-002     9.4059760797188539E-008
  -2.3949999999999999E-002     9.6099545238382981E-008
  -2.3900000000000001E-002     9.8172121177360946E-008
  -2.3850000000000000E-002     1.0028239551097040E-007
  -2.3800000000000002E-002     1.0243752023280440E-007
  -2.3750000000000000E-002     1.0464690540252345E-007
  -2.3699999999999999E-002     1.0692092964663463E-007
  -2.3650000000000001E-002     1.0926933795150353E-007
  -2.3599999999999999E-002     1.1170044724019804E-007
  -2.3550000000000001E-002     1.1422104611418677E-007
  -2.3500000000000000E-002     1.1683597299418682E-007
  -2.3449999999999999E-002     1.1954681544562400E-007
  -2.3400000000000001E-002     1.2235020132097270E-007
  -2.3349999999999999E-002     1.2523749017970074E-007
  -2.3300000000000001E-002     1.2819652837052226E-007
  -2.3250000000000000E-002     1.3121509397796743E-007
  -2.3199999999999998E-002     1.3428383447371646E-007
  -2.3150000000000000E-002     1.3739702484685224E-007
  -2.3099999999999999E-002     1.4055125401513976E-007
  -2.3050000000000001E-002     1.4374366873640285E-007
  -2.3000000000000000E-002     1.4697152326699449E-007
  -2.2950000000000002E-002     1.5023350621417871E-007
  -2.2900000000000000E-002     1.5353158366833030E-007
  -2.2849999999999999E-002     1.5687132738093790E-007
  -2.2800000000000001E-002     1.6026006214855565E-007
  -2.2749999999999999E-002     1.6370445437513681E-007
  -2.2700000000000001E-002     1.6720897315471370E-007
  -2.2650000000000000E-002     1.7077619822798781E-007
  -2.2599999999999999E-002     1.7440819338178625E-007
  -2.2550000000000001E-002     1.7810731499694398E-007
  -2.2499999999999999E-002     1.8187546857535262E-007
  -2.2450000000000001E-002     1.8571291817953312E-007
  -2.2400000000000000E-002     1.8961798235974390E-007
  -2.2349999999999998E-002     1.9358827465077185E-007
  -2.2300000000000000E-002     1.9762263048126840E-007
  -2.2249999999999999E-002     2.0172178440213426E-007
  -2.2200000000000001E-002     2.0588704630892504E-007
  -2.2150000000000000E-002     2.1011829676235598E-007
  -2.2100000000000002E-002     2.1441321826659544E-007
  -2.2050000000000000E-002     2.1876884910481403E-007
  -2.1999999999999999E-002     2.2318470764458778E-007
  -2.1950000000000001E-002     2.2766462542419962E-007
  -2.1899999999999999E-002     2.3221627590567308E-007
  -2.1850000000000001E-002     2.3684847018207022E-007
  -2.1800000000000000E-002     2.4156867349840611E-007
  -2.1749999999999999E-002     2.4638264510233712E-007
  -2.1700000000000001E-002     2.5129571778775007E-007
  -2.1649999999999999E-002     2.5631422286087131E-007
  -2.1600000000000001E-002     2.6144490420886916E-007
  -2.1550000000000000E-002     2.6669246211741968E-007
  -2.1499999999999998E-002     2.7205749347332352E-007
  -2.1450000000000000E-002     2.7753612693789842E-007
  -2.1399999999999999E-002     2.8312230219610485E-007
  -2.1350000000000001E-002     2.8881020754671542E-007
  -2.1299999999999999E-002     2.9459484155899238E-007
  -2.1250000000000002E-002     3.0047101214845360E-007
  -2.1200000000000000E-002     3.0643155060430378E-007
  -2.1149999999999999E-002     3.1246787576336119E-007
  -2.1100000000000001E-002     3.1857211888116650E-007
  -2.1049999999999999E-002     3.2473994585724980E-007
  -2.1000000000000001E-002     3.3097162407994405E-007
  -2.0950000000000000E-002     3.3727068492101190E-007
  -2.0899999999999998E-002     3.4364173916633920E-007
  -2.0850000000000000E-002     3.5008924825053234E-007
  -2.0799999999999999E-002     3.5661793404966625E-007
  -2.0750000000000001E-002     3.6323397794068311E-007
  -2.0700000000000000E-002     3.6994471671508220E-007
  -2.0649999999999998E-002     3.7675666519712380E-007
  -2.0600000000000000E-002     3.8367292447835949E-007
  -2.0549999999999999E-002     3.9069235031197008E-007
  -2.0500000000000001E-002     3.9781153850994068E-007
  -2.0449999999999999E-002     4.0502797153238029E-007
  -2.0400000000000001E-002     4.1234143218492556E-007
  -2.0350000000000000E-002     4.1975278637192426E-007
  -2.0299999999999999E-002     4.2726071825339773E-007
  -2.0250000000000001E-002     4.3485952009902717E-007
  -2.0199999999999999E-002     4.4253994941104218E-007
  -2.0150000000000001E-002     4.5029273646257853E-007
  -2.0100000000000000E-002     4.5811190406086513E-007
  -2.0049999999999998E-002     4.6599613652709148E-007
  -2.0000000000000000E-002     4.7394758789537075E-007
  -1.9949999999999999E-002     4.8197017292915958E-007
  -1.9900000000000001E-002     4.9006870576383648E-007
  -1.9850000000000000E-002     4.9824961002864530E-007
  -1.9799999999999998E-002     5.0652153647432175E-007
  -1.9750000000000000E-002     5.1489485159846689E-007
  -1.9699999999999999E-002     5.2337886067956671E-007
  -1.9650000000000001E-002     5.3197908783230326E-007
  -1.9599999999999999E-002     5.4069652824926324E-007
  -1.9550000000000001E-002     5.4952940598169746E-007
  -1.9500000000000000E-002     5.5847502170759264E-007
  -1.9449999999999999E-002     5.6753072400949739E-007
  -1.9400000000000001E-002     5.7669244202489560E-007
  -1.9349999999999999E-002     5.8595291740678744E-007
  -1.9300000000000001E-002     5.9530147616414408E-007
  -1.9250000000000000E-002     6.0472639052602389E-007
  -1.9199999999999998E-002     6.1421838488682758E-007
  -1.9150000000000000E-002     6.2377236878706237E-007
  -1.9099999999999999E-002     6.3338686012618411E-007
  -1.9050000000000001E-002     6.4306131269078860E-007
  -1.9000000000000000E-002     6.5279403947367268E-007
  -1.8949999999999998E-002     6.6258288486027734E-007
  -1.8900000000000000E-002     6.7242714599827810E-007
  -1.8849999999999999E-002     6.8232928231569271E-007
  -1.8800000000000001E-002     6.9229484872905616E-007
  -1.8749999999999999E-002     7.0232892072505588E-007
  -1.8700000000000001E-002     7.1243351886420769E-007
  -1.8650000000000000E-002     7.2260710986585246E-007
  -1.8599999999999998E-002     7.3284568309396709E-007
  -1.8550000000000001E-002     7.4314474417943718E-007
  -1.8499999999999999E-002     7.5349939733491079E-007
  -1.8450000000000001E-002     7.6390271504923824E-007
  -1.8400000000000000E-002     7.7434402239925974E-007
  -1.8349999999999998E-002     7.8480944323295253E-007
  -1.8300000000000000E-002     7.9528520676508044E-007
  -1.8249999999999999E-002     8.0576048792494971E-007
  -1.8200000000000001E-002     8.1622847406287660E-007
  -1.8149999999999999E-002     8.2668521171634327E-007
  -1.8100000000000002E-002     8.3712660923650141E-007
  -1.8050000000000000E-002     8.4754741553681103E-007
  -1.7999999999999999E-002     8.5794232852761713E-007
  -1.7950000000000001E-002     8.6830933496148826E-007
  -1.7899999999999999E-002     8.7865105636654024E-007
  -1.7850000000000001E-002     8.8897365311058472E-007
  -1.7800000000000000E-002     8.9928211641344561E-007
  -1.7749999999999998E-002     9.0957801693621262E-007
  -1.7700000000000000E-002     9.1985931158206597E-007
  -1.7649999999999999E-002     9.3012288374392415E-007
  -1.7600000000000001E-002     9.4036690208496856E-007
  -1.7550000000000000E-002     9.5059032641766719E-007
  -1.7499999999999998E-002     9.6078971804412570E-007
  -1.7450000000000000E-002     9.7095599716090623E-007
  -1.7399999999999999E-002     9.8107487478633619E-007
  -1.7350000000000001E-002     9.9112918175208564E-007
  -1.7299999999999999E-002     1.0011025413608744E-006
  -1.7250000000000001E-002     1.0109812134322736E-006
  -1.7200000000000000E-002     1.0207520897053159E-006
  -1.7149999999999999E-002     1.0304005177526694E-006
  -1.7100000000000001E-002     1.0399110401622155E-006
  -1.7049999999999999E-002     1.0492695787915845E-006
  -1.7000000000000001E-002     1.0584671122221600E-006
  -1.6950000000000000E-002     1.0675001392906341E-006
  -1.6899999999999998E-002     1.0763674871480227E-006
  -1.6850000000000000E-002     1.0850666525082849E-006
  -1.6799999999999999E-002     1.0935911855061027E-006
  -1.6750000000000001E-002     1.1019321454864036E-006
  -1.6700000000000000E-002     1.1100805333934326E-006
  -1.6649999999999998E-002     1.1180289025302623E-006
  -1.6600000000000000E-002     1.1257688661275636E-006
  -1.6549999999999999E-002     1.1332868076180705E-006
  -1.6500000000000001E-002     1.1405624072934735E-006
  -1.6449999999999999E-002     1.1475698433529470E-006
  -1.6400000000000001E-002     1.1542844976226756E-006
  -1.6350000000000000E-002     1.1606860768181814E-006
  -1.6299999999999999E-002     1.1667584301747689E-006
  -1.6250000000000001E-002     1.1724851271309978E-006
  -1.6199999999999999E-002     1.1778460026773504E-006
  -1.6150000000000001E-002     1.1828170541211837E-006
  -1.6100000000000000E-002     1.1873754080754245E-006
  -1.6049999999999998E-002     1.1915045182081632E-006
  -1.6000000000000000E-002     1.1951957790673515E-006
  -1.5949999999999999E-002     1.1984440448049184E-006
  -1.5900000000000001E-002     1.2012435203020680E-006
  -1.5850000000000000E-002     1.2035851021323110E-006
  -1.5799999999999998E-002     1.2054572704525834E-006
  -1.5750000000000000E-002     1.2068490212571415E-006
  -1.5699999999999999E-002     1.2077506022109655E-006
  -1.5650000000000001E-002     1.2081493405053148E-006
  -1.5599999999999999E-002     1.2080257107201074E-006
  -1.5550000000000001E-002     1.2073525036586685E-006
  -1.5500000000000000E-002     1.2060986942454377E-006
  -1.5449999999999998E-002     1.2042353014157186E-006
  -1.5400000000000000E-002     1.2017383336098717E-006
  -1.5349999999999999E-002     1.1985856564025121E-006
  -1.5300000000000001E-002     1.1947509098025210E-006
  -1.5250000000000000E-002     1.1902010530965431E-006
  -1.5199999999999998E-002     1.1848994746708800E-006
  -1.5150000000000000E-002     1.1788132883278479E-006
  -1.5099999999999999E-002     1.1719178514084488E-006
  -1.5050000000000001E-002     1.1641953820006994E-006
  -1.4999999999999999E-002     1.1556284988002490E-006
  -1.4949999999999998E-002     1.1461949582645304E-006
  -1.4900000000000000E-002     1.1358682866149014E-006
  -1.4849999999999999E-002     1.1246217806021104E-006
  -1.4800000000000001E-002     1.1124322350126177E-006
  -1.4749999999999999E-002     1.0992792006204804E-006
  -1.4700000000000001E-002     1.0851391828216339E-006
  -1.4650000000000000E-002     1.0699803012035947E-006
  -1.4599999999999998E-002     1.0537618938710973E-006
  -1.4550000000000000E-002     1.0364417332640524E-006
  -1.4499999999999999E-002     1.0179813230989893E-006
  -1.4450000000000001E-002     9.9834685723549239E-007
  -1.4400000000000000E-002     9.7750426886984924E-007
  -1.4349999999999998E-002     9.5541218184858474E-007
  -1.4300000000000000E-002     9.3202206274976256E-007
  -1.4249999999999999E-002     9.0728509086862519E-007
  -1.4200000000000001E-002     8.8115922660616371E-007
  -1.4149999999999999E-002     8.5361167927883126E-007
  -1.4099999999999998E-002     8.2461298973235243E-007
  -1.4050000000000000E-002     7.9413020836092587E-007
  -1.3999999999999999E-002     7.6212223621532050E-007
  -1.3950000000000001E-002     7.2854546102264240E-007
  -1.3899999999999999E-002     6.9336037472098813E-007
  -1.3850000000000001E-002     6.5653533550634734E-007
  -1.3800000000000000E-002     6.1804191277330153E-007
  -1.3749999999999998E-002     5.7784564071528731E-007
  -1.3700000000000000E-002     5.3590182727301924E-007
  -1.3649999999999999E-002     4.9215884520437192E-007
  -1.3600000000000001E-002     4.4656644895896024E-007
  -1.3550000000000000E-002     3.9908000193244172E-007
  -1.3499999999999998E-002     3.4965764691088494E-007
  -1.3450000000000000E-002     2.9825252778836535E-007
  -1.3399999999999999E-002     2.4480819530171308E-007
  -1.3350000000000001E-002     1.8926223638921487E-007
  -1.3299999999999999E-002     1.3155483505350400E-007
  -1.3249999999999998E-002     7.1633875005331690E-008
  -1.3200000000000000E-002     9.4529832127034097E-009
  -1.3149999999999998E-002    -5.5036936652692723E-008
  -1.3100000000000001E-002    -1.2189362940585173E-007
  -1.3049999999999999E-002    -1.9118119231247504E-007
  -1.3000000000000001E-002    -2.6296242422515737E-007
  -1.2950000000000000E-002    -3.3729050043874950E-007
  -1.2899999999999998E-002    -4.1421070906955472E-007
  -1.2850000000000000E-002    -4.9376809950630446E-007
  -1.2799999999999999E-002    -5.7601689718062624E-007