  -4.0000000000000001E-002     0.0000000000000000     
  -3.9949999999999999E-002     0.0000000000000000     
  -3.9899999999999998E-002     0.0000000000000000     
  -3.9850000000000003E-002     0.0000000000000000     
  -3.9800000000000002E-002     0.0000000000000000     
  -3.9750000000000001E-002     0.0000000000000000     
  -3.9699999999999999E-002     0.0000000000000000     
  -3.9649999999999998E-002     0.0000000000000000     
  -3.9600000000000003E-002    -5.8244586393699344E-025
  -3.9550000000000002E-002    -7.9846647744547644E-024
  -3.9500000000000000E-002    -4.1087184027108657E-023
  -3.9449999999999999E-002    -4.5354945768900155E-023
  -3.9399999999999998E-002     6.7446572660866893E-022
  -3.9350000000000003E-002     5.1883321143799140E-021
  -3.9300000000000002E-002     2.1702609048626543E-020
  -3.9250000000000000E-002     6.3422961331109629E-020
  -3.9199999999999999E-002     1.3503921297184809E-019
  -3.9150000000000004E-002     1.9309892915495903E-019
  -3.9100000000000003E-002     8.4532347397869954E-020
  -3.9050000000000001E-002    -4.8521915191987418E-019
  -3.9000000000000000E-002    -1.8444539297904525E-018
  -3.8949999999999999E-002    -3.9954835045420204E-018
  -3.8900000000000004E-002    -6.0347507551449980E-018
  -3.8850000000000003E-002    -5.6961286440326685E-018
  -3.8800000000000001E-002     3.2178559464332878E-019
  -3.8750000000000000E-002     1.4615297795185807E-017
  -3.8699999999999998E-002     3.6015350327668461E-017
  -3.8650000000000004E-002     5.6648691818729869E-017
  -3.8600000000000002E-002     6.1766445287042031E-017
  -3.8550000000000001E-002     3.4772224410749552E-017
  -3.8500000000000000E-002    -3.2656253465517930E-017
  -3.8449999999999998E-002    -1.2970497877520927E-016
  -3.8400000000000004E-002    -2.2252992271193311E-016
  -3.8350000000000002E-002    -2.6404445041431659E-016
  -3.8300000000000001E-002    -2.1704773139849780E-016
  -3.8249999999999999E-002    -7.9829462624628122E-017
  -3.8199999999999998E-002     1.0365020477920269E-016
  -3.8150000000000003E-002     2.6287368218020545E-016
  -3.8100000000000002E-002     3.4587718125542093E-016
  -3.8050000000000000E-002     3.6462326094417810E-016
  -3.7999999999999999E-002     4.0298153131487150E-016
  -3.7949999999999998E-002     5.6266111510624650E-016
  -3.7900000000000003E-002     8.6118193644354956E-016
  -3.7850000000000002E-002     1.1414842247172949E-015
  -3.7800000000000000E-002     1.0730601753501226E-015
  -3.7749999999999999E-002     2.9368524911687979E-016
  -3.7699999999999997E-002    -1.3394658991978419E-015
  -3.7650000000000003E-002    -3.5127054038325157E-015
  -3.7600000000000001E-002    -5.4006989967835535E-015
  -3.7550000000000000E-002    -5.9105337768603663E-015
  -3.7499999999999999E-002    -4.1956639534901251E-015
  -3.7449999999999997E-002    -2.2972541893778826E-016
  -3.7400000000000003E-002     4.8817772188996959E-015
  -3.7350000000000001E-002     9.1254979276676862E-015
  -3.7300000000000000E-002     1.0384142131670709E-014
  -3.7249999999999998E-002     7.5375190896108522E-015
  -3.7200000000000004E-002     1.3205777005951505E-015
  -3.7150000000000002E-002    -5.6159551623722837E-015
  -3.7100000000000001E-002    -9.6900191467518106E-015
  -3.7050000000000000E-002    -8.1302110874134078E-015
  -3.6999999999999998E-002    -6.7912719676256806E-016
  -3.6950000000000004E-002     9.7119019879931619E-015
  -3.6900000000000002E-002     1.7817419084826757E-014
  -3.6850000000000001E-002     1.8528277533818522E-014
  -3.6799999999999999E-002     9.6508459390172017E-015
  -3.6749999999999998E-002    -6.3857978663869304E-015
  -3.6700000000000003E-002    -2.3089975524600300E-014
  -3.6650000000000002E-002    -3.2834726097459131E-014
  -3.6600000000000001E-002    -3.0909877593265388E-014
  -3.6549999999999999E-002    -1.8580012432328769E-014
  -3.6499999999999998E-002    -3.2120640339771295E-015
  -3.6450000000000003E-002     5.1423255355296492E-015
  -3.6400000000000002E-002    -5.7355602804161072E-016
  -3.6350000000000000E-002    -1.9266229871821869E-014
  -3.6299999999999999E-002    -4.0064819307884906E-014
  -3.6249999999999998E-002    -4.5853434656206486E-014
  -3.6200000000000003E-002    -2.1144411332045631E-014
  -3.6150000000000002E-002     3.8918570867424388E-014
  -3.6100000000000000E-002     1.2274698706955310E-013
  -3.6049999999999999E-002     2.0312993915454031E-013
  -3.6000000000000004E-002     2.4549854997721531E-013
  -3.5950000000000003E-002     2.2111191641006475E-013
  -3.5900000000000001E-002     1.2011149469394448E-013
  -3.5850000000000000E-002    -4.1138423716231228E-014
  -3.5799999999999998E-002    -2.2216043396400171E-013
  -3.5750000000000004E-002    -3.7008838300201667E-013
  -3.5700000000000003E-002    -4.3728982171011964E-013
  -3.5650000000000001E-002    -3.9856335869768599E-013
  -3.5600000000000000E-002    -2.6134846329721239E-013
  -3.5549999999999998E-002    -6.4691234196244655E-014
  -3.5500000000000004E-002     1.3324048174654356E-013
  -3.5450000000000002E-002     2.7497073665279945E-013
  -3.5400000000000001E-002     3.2373598349590421E-013
  -3.5349999999999999E-002     2.7613005743673351E-013
  -3.5299999999999998E-002     1.6224849320638677E-013
  -3.5250000000000004E-002     3.2919858338201445E-014
  -3.5200000000000002E-002    -6.1052674492817589E-014
  -3.5150000000000001E-002    -8.8941513618886141E-014
  -3.5099999999999999E-002    -5.0447223880839869E-014
  -3.5049999999999998E-002     2.8723722791786028E-014
  -3.5000000000000003E-002     1.1418619608489675E-013
  -3.4950000000000002E-002     1.8423675080345836E-013
  -3.4900000000000000E-002     2.4298102078844548E-013
  -3.4849999999999999E-002     3.1573287601409153E-013
  -3.4799999999999998E-002     4.2587646779712497E-013
  -3.4750000000000003E-002     5.6342808189729433E-013
  -3.4700000000000002E-002     6.6331810080508005E-013
  -3.4650000000000000E-002     6.1090887417390610E-013
  -3.4599999999999999E-002     2.8189963387838571E-013
  -3.4549999999999997E-002    -3.9307551266613846E-013
  -3.4500000000000003E-002    -1.3647211719885088E-012
  -3.4450000000000001E-002    -2.4343745255906494E-012
  -3.4400000000000000E-002    -3.2806678703796841E-012
  -3.4349999999999999E-002    -3.5468879916905722E-012
  -3.4299999999999997E-002    -2.9658446915492390E-012
  -3.4250000000000003E-002    -1.4784260474663241E-012
  -3.4200000000000001E-002     7.0263562915634733E-013
  -3.4150000000000000E-002     3.1169865396714251E-012
  -3.4099999999999998E-002     5.1713215963931245E-012
  -3.4049999999999997E-002     6.3122994020959437E-012
  -3.4000000000000002E-002     6.2008594848876578E-012
  -3.3950000000000001E-002     4.8268663513547505E-012
  -3.3900000000000000E-002     2.5216263653490838E-012
  -3.3849999999999998E-002    -1.3928626971788893E-013
  -3.3799999999999997E-002    -2.5122009301900832E-012
  -3.3750000000000002E-002    -4.0822214662702113E-012
  -3.3700000000000001E-002    -4.6153817474474182E-012
  -3.3649999999999999E-002    -4.2162859189247212E-012
  -3.3599999999999998E-002    -3.2739858307604986E-012
  -3.3550000000000003E-002    -2.3168009772002977E-012
  -3.3500000000000002E-002    -1.8269346238213553E-012
  -3.3450000000000001E-002    -2.0777359851005523E-012
  -3.3399999999999999E-002    -3.0462608586360088E-012
  -3.3349999999999998E-002    -4.4253583728064054E-012
  -3.3300000000000003E-002    -5.7236156504394394E-012
  -3.3250000000000002E-002    -6.4119498852800374E-012
  -3.3200000000000000E-002    -6.0638998665397772E-012
  -3.3149999999999999E-002    -4.4469223100825428E-012
  -3.3099999999999997E-002    -1.5488524725141807E-012
  -3.3050000000000003E-002     2.4458062484516450E-012
  -3.3000000000000002E-002     7.1958307546963863E-012
  -3.2950000000000000E-002     1.2227156859627238E-011
  -3.2899999999999999E-002     1.6930243875825306E-011
  -3.2850000000000004E-002     2.0551041882051260E-011
  -3.2800000000000003E-002     2.2217872863850015E-011
  -3.2750000000000001E-002     2.1045555276919161E-011
  -3.2700000000000000E-002     1.6330142201099589E-011
  -3.2649999999999998E-002     7.8023496266914244E-012
  -3.2600000000000004E-002    -4.1344561544157017E-012
  -3.2550000000000003E-002    -1.8273188775977765E-011
  -3.2500000000000001E-002    -3.2650082202511295E-011
  -3.2450000000000000E-002    -4.4787024535780156E-011
  -3.2399999999999998E-002    -5.2077859084492662E-011
  -3.2350000000000004E-002    -5.2212088485540470E-011
  -3.2300000000000002E-002    -4.3510863018606117E-011
  -3.2250000000000001E-002    -2.5077024368491589E-011
  -3.2199999999999999E-002     3.2757602844170594E-012
  -3.2149999999999998E-002     4.1273994195195459E-011
  -3.2100000000000004E-002     8.8514632958180132E-011
  -3.2050000000000002E-002     1.4475030808888773E-010
  -3.2000000000000001E-002     2.1002586226194543E-010
  -3.1949999999999999E-002     2.8461849071920634E-010
  -3.1899999999999998E-002     3.6880425041312307E-010
  -3.1850000000000003E-002     4.6253468547545250E-010
  -3.1800000000000002E-002     5.6513789210189746E-010
  -3.1750000000000000E-002     6.7514925421832867E-010
  -3.1699999999999999E-002     7.9033275065906023E-010
  -3.1649999999999998E-002     9.0789309889262810E-010
  -3.1600000000000003E-002     1.0248215590533376E-009
  -3.1550000000000002E-002     1.1382877192110432E-009
  -3.1500000000000000E-002     1.2459917030366366E-009
  -3.1449999999999999E-002     1.3464194875914591E-009
  -3.1399999999999997E-002     1.4389837476466824E-009
  -3.1350000000000003E-002     1.5240582887121264E-009
  -3.1300000000000001E-002     1.6029212667584013E-009
  -3.1250000000000000E-002     1.6776100993903259E-009
  -3.1199999999999999E-002     1.7506780060372953E-009
  -3.1150000000000001E-002     1.8248458057564221E-009
  -3.1100000000000003E-002     1.9025764055009454E-009
  -3.1050000000000001E-002     1.9856462685260669E-009
  -3.1000000000000000E-002     2.0748258667668338E-009
  -3.0949999999999998E-002     2.1697808598366546E-009
  -3.0900000000000000E-002     2.2692498585253012E-009
  -3.0850000000000002E-002     2.3714599679669593E-009
  -3.0800000000000001E-002     2.4746453971154253E-009
  -3.0750000000000000E-002     2.5774890742307424E-009
  -3.0699999999999998E-002     2.6793362419825809E-009
  -3.0650000000000000E-002     2.7801341500307712E-009
  -3.0600000000000002E-002     2.8801742568175007E-009
  -3.0550000000000001E-002     2.9797990590115063E-009
  -3.0499999999999999E-002     3.0792380912254463E-009
  -3.0449999999999998E-002     3.1786471373100484E-009
  -3.0400000000000000E-002     3.2783004206863229E-009
  -3.0350000000000002E-002     3.3787897419383912E-009
  -3.0300000000000001E-002     3.4810748972423392E-009
  -3.0249999999999999E-002     3.5863188375514435E-009
  -3.0200000000000001E-002     3.6955746291313599E-009
  -3.0150000000000000E-002     3.8094986167728146E-009
  -3.0100000000000002E-002     3.9282660268587771E-009
  -3.0050000000000000E-002     4.0517701581163384E-009
  -2.9999999999999999E-002     4.1800162189251184E-009
  -2.9950000000000001E-002     4.3134916701708281E-009
  -2.9899999999999999E-002     4.4532661558003367E-009
  -2.9850000000000002E-002     4.6006854718190815E-009
  -2.9800000000000000E-002     4.7567306379719644E-009
  -2.9749999999999999E-002     4.9213034671486244E-009
  -2.9700000000000001E-002     5.0927788789069361E-009
  -2.9650000000000003E-002     5.2680842109681866E-009
  -2.9600000000000001E-002     5.4433533144942620E-009
  -2.9550000000000000E-002     5.6149482806344994E-009
  -2.9499999999999998E-002     5.7804831077010346E-009
  -2.9450000000000000E-002     5.9394766816308093E-009
  -2.9400000000000003E-002     6.0934149546739587E-009
  -2.9350000000000001E-002     6.2452562670496570E-009
  -2.9300000000000000E-002     6.3986160725683839E-009
  -2.9249999999999998E-002     6.5569653919568127E-009
  -2.9200000000000000E-002     6.7231127921212209E-009
  -2.9150000000000002E-002     6.8990529757705082E-009
  -2.9100000000000001E-002     7.0860896826870537E-009
  -2.9049999999999999E-002     7.2850210383823348E-009
  -2.8999999999999998E-002     7.4962026795022757E-009
  -2.8950000000000000E-002     7.7194286544174982E-009
  -2.8900000000000002E-002     7.9537340849226705E-009
  -2.8850000000000001E-002     8.1973148702857517E-009
  -2.8799999999999999E-002     8.4477393833738288E-009
  -2.8749999999999998E-002     8.7024890537947989E-009
  -2.8700000000000000E-002     8.9596766468700040E-009
  -2.8650000000000002E-002     9.2186656067208597E-009
  -2.8600000000000000E-002     9.4803098864329847E-009
  -2.8549999999999999E-002     9.7466787379474992E-009
  -2.8500000000000001E-002     1.0020363831716450E-008
  -2.8450000000000000E-002     1.0303658258597355E-008
  -2.8400000000000002E-002     1.0597975755272120E-008
  -2.8350000000000000E-002     1.0903761101199289E-008
  -2.8299999999999999E-002     1.1220909490391511E-008
  -2.8250000000000001E-002     1.1549453386795976E-008
  -2.8200000000000003E-002     1.1890113063039824E-008
  -2.8150000000000001E-002     1.2244371313325879E-008
  -2.8100000000000000E-002     1.2613957188699703E-008
  -2.8049999999999999E-002     1.2999926663646890E-008
  -2.8000000000000001E-002     1.3401763732201048E-008
  -2.7950000000000003E-002     1.3816958884527879E-008
  -2.7900000000000001E-002     1.4241310962405814E-008
  -2.7850000000000000E-002     1.4669877208931635E-008
  -2.7799999999999998E-002     1.5098194019897555E-008
  -2.7750000000000000E-002     1.5523274188327036E-008
  -2.7700000000000002E-002     1.5944024631900490E-008
  -2.7650000000000001E-002     1.6361006752549121E-008
  -2.7600000000000000E-002     1.6775787861336692E-008
  -2.7549999999999998E-002     1.7190292965168438E-008
  -2.7500000000000000E-002     1.7606483092029343E-008
  -2.7450000000000002E-002     1.8026473103391423E-008
  -2.7400000000000001E-002     1.8452918748678486E-008
  -2.7349999999999999E-002     1.8889362977004552E-008
  -2.7299999999999998E-002     1.9340238254168008E-008
  -2.7250000000000000E-002     1.9810470081681211E-008
  -2.7200000000000002E-002     2.0304805660198608E-008
  -2.7150000000000001E-002     2.0827154385999407E-008
  -2.7099999999999999E-002     2.1380171364924586E-008
  -2.7049999999999998E-002     2.1965181090698170E-008
  -2.7000000000000000E-002     2.2582350149769585E-008
  -2.6950000000000002E-002     2.3230936546810858E-008
  -2.6900000000000000E-002     2.3909513549104858E-008
  -2.6849999999999999E-002     2.4616195169923342E-008
  -2.6800000000000001E-002     2.5348945562480034E-008
  -2.6749999999999999E-002     2.6106096532422282E-008
  -2.6700000000000002E-002     2.6886957176851613E-008
  -2.6650000000000000E-002     2.7692260975960194E-008
  -2.6599999999999999E-002     2.8524134162782799E-008
  -2.6550000000000001E-002     2.9385417756230167E-008
  -2.6500000000000003E-002     3.0278509535681147E-008
  -2.6450000000000001E-002     3.1204223364438461E-008
  -2.6400000000000000E-002     3.2161195243496983E-008
  -2.6349999999999998E-002     3.3146242878128972E-008
  -2.6300000000000000E-002     3.4155545769786000E-008
  -2.6250000000000002E-002     3.5186045024725288E-008
  -2.6200000000000001E-002     3.6236276099140696E-008
  -2.6150000000000000E-002     3.7306026170509709E-008
  -2.6099999999999998E-002     3.8394844884121996E-008
  -2.6050000000000000E-002     3.9499969915431331E-008
  -2.6000000000000002E-002     4.0614767546858353E-008
  -2.5950000000000001E-002     4.1728601443811182E-008
  -2.5899999999999999E-002     4.2828529464988058E-008
  -2.5849999999999998E-002     4.3902353828782618E-008
  -2.5800000000000000E-002     4.4941887728034976E-008
  -2.5750000000000002E-002     4.5945094187479185E-008
  -2.5700000000000001E-002     4.6916173639322191E-008
  -2.5649999999999999E-002     4.7863542196324103E-008
  -2.5599999999999998E-002     4.8796620015270358E-008
  -2.5550000000000000E-002     4.9722813751110017E-008
  -2.5500000000000002E-002     5.0646104115953724E-008
  -2.5450000000000000E-002     5.1567764659600524E-008
  -2.5399999999999999E-002     5.2488768467911773E-008
  -2.5349999999999998E-002     5.3412590083271761E-008
  -2.5300000000000000E-002     5.4346861005908739E-008
  -2.5250000000000002E-002     5.5302829488769831E-008
  -2.5200000000000000E-002     5.6292660834473167E-008
  -2.5149999999999999E-002     5.7325640952014950E-008
  -2.5100000000000001E-002     5.8405014998133703E-008
  -2.5049999999999999E-002     5.9527032074394597E-008
  -2.5000000000000001E-002     6.0682904976836654E-008
  -2.4950000000000000E-002     6.1863068607970350E-008
  -2.4899999999999999E-002     6.3062128378428579E-008
  -2.4850000000000001E-002     6.4282366711175728E-008
  -2.4800000000000003E-002     6.5534257634535107E-008
  -2.4750000000000001E-002     6.6833646551800951E-008
  -2.4700000000000000E-002     6.8196647937765795E-008
  -2.4649999999999998E-002     6.9634449417872072E-008
  -2.4600000000000000E-002     7.1150205088552253E-008
  -2.4550000000000002E-002     7.2739421106270069E-008
  -2.4500000000000001E-002     7.4393602523648179E-008
  -2.4450000000000000E-002     7.6105506154646896E-008
  -2.4399999999999998E-002     7.7873585266223451E-008
  -2.4350000000000000E-002     7.9703613254826960E-008
  -2.4299999999999999E-002     8.1606561317842833E-008
  -2.4250000000000001E-002     8.3593649047106756E-008
  -2.4199999999999999E-002     8.5670542019857860E-008
  -2.4150000000000001E-002     8.7833255743114222E-008
  -2.4100000000000000E-002     9.0067535561598346E-008
  -2.4049999999999998E-002     9.2352118343239042E-008
  -2.4000000000000000E-002     9.4664823318247286E-008
  -2.3949999999999999E-002     9.6989179376170756E-008
  -2.3900000000000001E-002     9.9319227557526450E-008
  -2.3850000000000000E-002     1.0166071077185571E-007
  -2.3800000000000002E-002     1.0402834798654471E-007
  -2.3750000000000000E-002     1.0644025883559912E-007
  -2.3699999999999999E-002     1.0891174646351078E-007
  -2.3650000000000001E-002     1.1145066285990802E-007
  -2.3599999999999999E-002     1.1405617464404498E-007
  -2.3550000000000001E-002     1.1672127772815870E-007
  -2.3500000000000000E-002     1.1943796972975155E-007
  -2.3449999999999999E-002     1.2220296426572406E-007
  -2.3400000000000001E-002     1.2502142310588877E-007
  -2.3349999999999999E-002     1.2790687877348808E-007
  -2.3300000000000001E-002     1.3087711132332253E-007
  -2.3250000000000000E-002     1.3394712562964269E-007
  -2.3199999999999998E-002     1.3712214591981385E-007
  -2.3150000000000000E-002     1.4039353593966427E-007
  -2.3099999999999999E-002     1.4373995001321675E-007
  -2.3050000000000001E-002     1.4713376377160669E-007
  -2.3000000000000000E-002     1.5055092175876040E-007
  -2.2950000000000002E-002     1.5398019065371558E-007
  -2.2900000000000000E-002     1.5742804751916866E-007
  -2.2849999999999999E-002     1.6091685065854260E-007
  -2.2800000000000001E-002     1.6447667938822537E-007
  -2.2749999999999999E-002     1.6813398313638496E-007
  -2.2700000000000001E-002     1.7190169760920914E-007
  -2.2650000000000000E-002     1.7577500280492401E-007
  -2.2599999999999999E-002     1.7973455749730230E-007
  -2.2550000000000001E-002     1.8375586760412337E-007
  -2.2499999999999999E-002     1.8782075854687620E-007
  -2.2450000000000001E-002     1.9192592991359701E-007
  -2.2400000000000000E-002     1.9608491208496066E-007
  -2.2349999999999998E-002     2.0032245953521009E-007
  -2.2300000000000000E-002     2.0466370599214714E-007
  -2.2249999999999999E-002     2.0912276048315584E-007
  -2.2200000000000001E-002     2.1369566661922091E-007
  -2.2150000000000000E-002     2.1836085547381806E-007
  -2.2100000000000002E-002     2.2308703933177974E-007
  -2.2050000000000000E-002     2.2784544583136341E-007
  -2.1999999999999999E-002     2.3262142041908481E-007
  -2.1950000000000001E-002     2.3742069749098750E-007
  -2.1899999999999999E-002     2.4226779956232381E-007
  -2.1850000000000001E-002     2.4719737003858778E-007
  -2.1800000000000000E-002     2.5224215435515458E-007
  -2.1749999999999999E-002     2.5742211367642222E-007
  -2.1700000000000001E-002     2.6273940925873893E-007
  -2.1649999999999999E-002     2.6818064703305104E-007
  -2.1600000000000001E-002     2.7372520378547347E-007
  -2.1550000000000000E-002     2.7935637480014375E-007
  -2.1499999999999998E-002     2.8507017203340104E-007
  -2.1450000000000000E-002     2.9087849191951626E-007
  -2.1399999999999999E-002     2.9680517950170942E-007
  -2.1350000000000001E-002     3.0287675322215175E-007
  -2.1299999999999999E-002     3.0911143284542231E-007
  -2.1250000000000002E-002     3.1551112257009816E-007
  -2.1200000000000000E-002     3.2205963759525915E-007
  -2.1149999999999999E-002     3.2872775612091471E-007
  -2.1100000000000001E-002     3.3548331641064130E-007
  -2.1049999999999999E-002     3.4230211527532545E-007
  -2.1000000000000001E-002     3.4917538420477275E-007
  -2.0950000000000000E-002     3.5611135787580552E-007
  -2.0899999999999998E-002     3.6313034999425902E-007
  -2.0850000000000000E-002     3.7025595749760568E-007
  -2.0799999999999999E-002     3.7750581840228265E-007
  -2.0750000000000001E-002     3.8488574970502505E-007
  -2.0700000000000000E-002     3.9238906314682053E-007
  -2.0649999999999998E-002     4.0000087925669259E-007
  -2.0600000000000000E-002     4.0770558222845236E-007
  -2.0549999999999999E-002     4.1549411162438558E-007
  -2.0500000000000001E-002     4.2336827025267976E-007
  -2.0449999999999999E-002     4.3134050609914365E-007
  -2.0400000000000001E-002     4.3942919344787730E-007
  -2.0350000000000000E-002     4.4765148523989101E-007
  -2.0299999999999999E-002     4.5601646478130733E-007
  -2.0250000000000001E-002     4.6452127354649151E-007
  -2.0199999999999999E-002     4.7315188470084679E-007
  -2.0150000000000001E-002     4.8188798832296015E-007
  -2.0100000000000000E-002     4.9071021800767986E-007
  -2.0049999999999998E-002     4.9960700282512035E-007
  -2.0000000000000000E-002     5.0857863761905932E-007
  -1.9949999999999999E-002     5.1763711325510174E-007
  -1.9900000000000001E-002     5.2680200126644537E-007
  -1.9850000000000000E-002     5.3609431294653703E-007
  -1.9799999999999998E-002     5.4553066952412925E-007
  -1.9750000000000000E-002     5.5511961762727183E-007
  -1.9699999999999999E-002     5.6486154793207446E-007
  -1.9650000000000001E-002     5.7475177304200273E-007
  -1.9599999999999999E-002     5.8478460560519610E-007
  -1.9550000000000001E-002     5.9495691589399119E-007
  -1.9500000000000000E-002     6.0526943769306940E-007
  -1.9449999999999999E-002     6.1572554821167461E-007
  -1.9400000000000001E-002     6.2632860325137919E-007
  -1.9349999999999999E-002     6.3707969591151549E-007
  -1.9300000000000001E-002     6.4797650013590481E-007
  -1.9250000000000000E-002     6.5901391716546613E-007
  -1.9199999999999998E-002     6.7018552644833662E-007
  -1.9150000000000000E-002     6.8148456694894602E-007
  -1.9099999999999999E-002     6.9290372716054603E-007
  -1.9050000000000001E-002     7.0443432190824269E-007
  -1.9000000000000000E-002     7.1606598613888808E-007
  -1.8949999999999998E-002     7.2778742432895589E-007
  -1.8900000000000000E-002     7.3958947473359800E-007
  -1.8849999999999999E-002     7.5146843016631816E-007
  -1.8800000000000001E-002     7.6342900832062087E-007
  -1.8749999999999999E-002     7.7548398608277615E-007
  -1.8700000000000001E-002     7.8765117717139206E-007
  -1.8650000000000000E-002     7.9994748178536856E-007
  -1.8599999999999998E-002     8.1238311727388186E-007
  -1.8550000000000001E-002     8.2495757720529092E-007
  -1.8499999999999999E-002     8.3765944912995625E-007
  -1.8450000000000001E-002     8.5047059957616443E-007
  -1.8400000000000000E-002     8.6337294396499622E-007
  -1.8349999999999998E-002     8.7635448682156929E-007
  -1.8300000000000000E-002     8.8941274219424357E-007
  -1.8249999999999999E-002     9.0255390100958757E-007
  -1.8200000000000001E-002     9.1578787745525305E-007
  -1.8149999999999999E-002     9.2912146713141417E-007
  -1.8100000000000002E-002     9.4255307996289777E-007
  -1.8050000000000000E-002     9.5607103690250832E-007
  -1.7999999999999999E-002     9.6965643244023790E-007
  -1.7950000000000001E-002     9.8328915887967360E-007
  -1.7899999999999999E-002     9.9695539972960733E-007
  -1.7850000000000001E-002     1.0106535685676267E-006
  -1.7800000000000000E-002     1.0243953758607125E-006
  -1.7749999999999998E-002     1.0382027826511955E-006
  -1.7700000000000000E-002     1.0521001871230192E-006
  -1.7649999999999999E-002     1.0661063044369312E-006
  -1.7600000000000001E-002     1.0802260963503458E-006
  -1.7550000000000000E-002     1.0944487117042383E-006
  -1.7499999999999998E-002     1.1087496458032039E-006
  -1.7450000000000000E-002     1.1230988015629293E-006
  -1.7399999999999999E-002     1.1374702375390899E-006
  -1.7350000000000001E-002     1.1518500958325699E-006
  -1.7299999999999999E-002     1.1662391577815209E-006
  -1.7250000000000001E-002     1.1806495144733576E-006
  -1.7200000000000000E-002     1.1950959833631151E-006
  -1.7149999999999999E-002     1.2095865761962680E-006
  -1.7100000000000001E-002     1.2241149562178623E-006
  -1.7049999999999999E-002     1.2386594156668078E-006
  -1.7000000000000001E-002     1.2531867532163016E-006
  -1.6950000000000000E-002     1.2676622337977135E-006
  -1.6899999999999998E-002     1.2820593804950609E-006
  -1.6850000000000000E-002     1.2963675157687413E-006
  -1.6799999999999999E-002     1.3105940545114584E-006
  -1.6750000000000001E-002     1.3247601706294397E-006
  -1.6700000000000000E-002     1.3388913629921263E-006
  -1.6649999999999998E-002     1.3530070515122672E-006
  -1.6600000000000000E-002     1.3671117481052971E-006
  -1.6549999999999999E-002     1.3811919425755612E-006
  -1.6500000000000001E-002     1.3952194775607274E-006
  -1.6449999999999999E-002     1.4091588971060852E-006
  -1.6400000000000001E-002     1.4229767502760628E-006
  -1.6350000000000000E-002     1.4366491809802535E-006
  -1.6299999999999999E-002     1.4501644151649121E-006
  -1.6250000000000001E-002     1.4635203426218098E-006
  -1.6199999999999999E-002     1.4767185208826592E-006
  -1.6150000000000001E-002     1.4897570262547065E-006
  -1.6100000000000000E-002     1.5026251729473641E-006
  -1.6049999999999998E-002     1.5153023369262474E-006
  -1.6000000000000000E-002     1.5277617229812236E-006
  -1.5949999999999999E-002     1.5399772230569853E-006
  -1.5900000000000001E-002     1.5519299425840998E-006
  -1.5850000000000000E-002     1.5636128031242427E-006
  -1.5799999999999998E-002     1.5750295407551195E-006
  -1.5750000000000000E-002     1.5861900487751686E-006
  -1.5699999999999999E-002     1.5971026725223731E-006
  -1.5650000000000001E-002     1.6077680869286350E-006
  -1.5599999999999999E-002     1.6181761755818702E-006
  -1.5550000000000001E-002     1.6283076590200900E-006
  -1.5500000000000000E-002     1.6381378175213453E-006
  -1.5449999999999998E-002     1.6476411322017969E-006
  -1.5400000000000000E-002     1.6567937968819031E-006
  -1.5349999999999999E-002     1.6655744982365278E-006
  -1.5300000000000001E-002     1.6739626784777040E-006
  -1.5250000000000000E-002     1.6819371081194175E-006
  -1.5199999999999998E-002     1.6894757414184000E-006
  -1.5150000000000000E-002     1.6965566145404468E-006
  -1.5099999999999999E-002     1.7031592162660826E-006
  -1.5050000000000001E-002     1.7092657350770484E-006
  -1.4999999999999999E-002     1.7148604380613749E-006
  -1.4949999999999998E-002     1.7199280553638164E-006
  -1.4900000000000000E-002     1.7244519082524186E-006
  -1.4849999999999999E-002     1.7284118582295881E-006
  -1.4800000000000001E-002     1.7317844773054744E-006
  -1.4749999999999999E-002     1.7345449029469169E-006
  -1.4700000000000001E-002     1.7366705169290495E-006
  -1.4650000000000000E-002     1.7381426377501073E-006
  -1.4599999999999998E-002     1.7389471492129841E-006
  -1.4550000000000000E-002     1.7390720460269293E-006
  -1.4499999999999999E-002     1.7385033815754096E-006
  -1.4450000000000001E-002     1.7372198916035210E-006
  -1.4400000000000000E-002     1.7351902289613460E-006
  -1.4349999999999998E-002     1.7323734934052341E-006
  -1.4300000000000000E-002     1.7287222116902428E-006
  -1.4249999999999999E-002     1.7241875492093789E-006
  -1.4200000000000001E-002     1.7187248792354022E-006
  -1.4149999999999999E-002     1.7122974964305074E-006
  -1.4099999999999998E-002     1.7048783267428537E-006
  -1.4050000000000000E-002     1.6964496830437208E-006
  -1.3999999999999999E-002     1.6870002373042915E-006
  -1.3950000000000001E-002     1.6765202139617148E-006
  -1.3899999999999999E-002     1.6649959342193921E-006
  -1.3850000000000001E-002     1.6524056523607245E-006
  -1.3800000000000000E-002     1.6387179289702613E-006
  -1.3749999999999998E-002     1.6238931277226631E-006
  -1.3700000000000000E-002     1.6078888722997905E-006
  -1.3649999999999999E-002     1.5906650139958756E-006
  -1.3600000000000001E-002     1.5721880477967360E-006
  -1.3550000000000000E-002     1.5524322428988170E-006
  -1.3499999999999998E-002     1.5313758544092810E-006
  -1.3450000000000000E-002     1.5089957071076340E-006
  -1.3399999999999999E-002     1.4852616921575629E-006
  -1.3350000000000001E-002     1.4601332790727833E-006
  -1.3299999999999999E-002     1.4335595610577224E-006
  -1.3249999999999998E-002     1.4054833019216485E-006
  -1.3200000000000000E-002     1.3758463319629759E-006
  -1.3149999999999998E-002     1.3445960106816618E-006
  -1.3100000000000001E-002     1.3116891088813576E-006
  -1.3049999999999999E-002     1.2770920161174355E-006
  -1.3000000000000001E-002     1.2407779021784854E-006
  -1.2950000000000000E-002     1.2027215748821874E-006
  -1.2899999999999998E-002     1.1628938397246893E-006
  -1.2850000000000000E-002     1.1212588044079927E-006
  -1.2799999999999999E-002     1.0777725753927755E-006