  -4.0000000000000001E-002     0.0000000000000000     
  -3.9949999999999999E-002     0.0000000000000000     
  -3.9899999999999998E-002     0.0000000000000000     
  -3.9850000000000003E-002     0.0000000000000000     
  -3.9800000000000002E-002     0.0000000000000000     
  -3.9750000000000001E-002     0.0000000000000000     
  -3.9699999999999999E-002     0.0000000000000000     
  -3.9649999999999998E-002     0.0000000000000000     
  -3.9600000000000003E-002     0.0000000000000000     
  -3.9550000000000002E-002     0.0000000000000000     
  -3.9500000000000000E-002     0.0000000000000000     
  -3.9449999999999999E-002     0.0000000000000000     
  -3.9399999999999998E-002     0.0000000000000000     
  -3.9350000000000003E-002     0.0000000000000000     
  -3.9300000000000002E-002     0.0000000000000000     
  -3.9250000000000000E-002     0.0000000000000000     
  -3.9199999999999999E-002     0.0000000000000000     
  -3.9150000000000004E-002     0.0000000000000000     
  -3.9100000000000003E-002     0.0000000000000000     
  -3.9050000000000001E-002     0.0000000000000000     
  -3.9000000000000000E-002     0.0000000000000000     
  -3.8949999999999999E-002     0.0000000000000000     
  -3.8900000000000004E-002     0.0000000000000000     
  -3.8850000000000003E-002     0.0000000000000000     
  -3.8800000000000001E-002     0.0000000000000000     
  -3.8750000000000000E-002     0.0000000000000000     
  -3.8699999999999998E-002     0.0000000000000000     
  -3.8650000000000004E-002     0.0000000000000000     
  -3.8600000000000002E-002     0.0000000000000000     
  -3.8550000000000001E-002     0.0000000000000000     
  -3.8500000000000000E-002     0.0000000000000000     
  -3.8449999999999998E-002    -2.0624115896705140E-039
  -3.8400000000000004E-002    -4.5692799994672372E-039
  -3.8350000000000002E-002    -2.1550623122766906E-039
  -3.8300000000000001E-002     2.8064834793793112E-038
  -3.8249999999999999E-002     1.3015239137494536E-037
  -3.8199999999999998E-002     3.4738721586136152E-037
  -3.8150000000000003E-002     5.5538133533538704E-037
  -3.8100000000000002E-002     9.5579080954796542E-038
  -3.8050000000000000E-002    -2.5344835822430367E-036
  -3.7999999999999999E-002    -9.6204612259713822E-036
  -3.7949999999999998E-002    -2.2050539138286290E-035
  -3.7900000000000003E-002    -3.3038996077143914E-035
  -3.7850000000000002E-002    -1.7668092708735396E-035
  -3.7800000000000000E-002     7.5358216757649659E-035
  -3.7749999999999999E-002     3.1026991667937268E-034
  -3.7699999999999997E-002     6.9772015520117400E-034
  -3.7650000000000003E-002     1.0519258434412158E-033
  -3.7600000000000001E-002     8.0653752639594880E-034
  -3.7550000000000000E-002    -1.0495018569916599E-033
  -3.7499999999999999E-002    -5.6018902363320050E-033
  -3.7449999999999997E-002    -1.2859862693106976E-032
  -3.7400000000000003E-002    -1.9806130858956336E-032
  -3.7350000000000001E-002    -1.8507002389308776E-032
  -3.7300000000000000E-002     3.6043759423921914E-033
  -3.7249999999999998E-002     5.8369712295399976E-032
  -3.7200000000000004E-002     1.4471952515762604E-031
  -3.7150000000000002E-002     2.3229810130380131E-031
  -3.7100000000000001E-002     2.5068527519093949E-031
  -3.7050000000000000E-002     1.0001689050931320E-031
  -3.6999999999999998E-002    -3.0339827097025566E-031
  -3.6950000000000004E-002    -9.4971154701848749E-031
  -3.6900000000000002E-002    -1.6595028861034932E-030
  -3.6850000000000001E-002    -2.0686185114987429E-030
  -3.6799999999999999E-002    -1.7275183077223798E-030
  -3.6749999999999998E-002    -3.0721808690969623E-031
  -3.6700000000000003E-002     2.1997459185395941E-030
  -3.6650000000000002E-002     5.4666034073673747E-030
  -3.6600000000000001E-002     9.1149238558636712E-030
  -3.6549999999999999E-002     1.3103656933409201E-029
  -3.6499999999999998E-002     1.7625337505581126E-029
  -3.6450000000000003E-002     2.1750452196571490E-029
  -3.6400000000000002E-002     2.0669702483772418E-029
  -3.6350000000000000E-002     3.0374623121108158E-030
  -3.6299999999999999E-002    -4.7919628267546144E-029
  -3.6249999999999998E-002    -1.4490612100657128E-028
  -3.6200000000000003E-002    -2.7673448239981914E-028
  -3.6150000000000002E-002    -3.8412599244281172E-028
  -3.6100000000000000E-002    -3.4845941792154014E-028
  -3.6049999999999999E-002    -1.8907919259710786E-029
  -3.6000000000000004E-002     7.0234002577403029E-028
  -3.5950000000000003E-002     1.7255293251983761E-027
  -3.5900000000000001E-002     2.6472460026296338E-027
  -3.5850000000000000E-002     2.7391099635057527E-027
  -3.5799999999999998E-002     1.1664170594475066E-027
  -3.5750000000000004E-002    -2.5201131119035855E-027
  -3.5700000000000003E-002    -7.7415471622537580E-027
  -3.5650000000000001E-002    -1.2428883180234909E-026
  -3.5600000000000000E-002    -1.3209424745756849E-026
  -3.5549999999999998E-002    -6.6152187865321735E-027
  -3.5500000000000004E-002     8.7363008245049844E-027
  -3.5450000000000002E-002     2.9733071611157414E-026
  -3.5400000000000001E-002     4.7548264639975558E-026
  -3.5349999999999999E-002     4.9213006064655397E-026
  -3.5299999999999998E-002     2.2842262686378043E-026
  -3.5250000000000004E-002    -3.4399107221349542E-026
  -3.5200000000000002E-002    -1.0879204035354607E-025
  -3.5150000000000001E-002    -1.6787705841102029E-025
  -3.5099999999999999E-002    -1.6805602907945552E-025
  -3.5049999999999998E-002    -7.3119990003274281E-026
  -3.5000000000000003E-002     1.2100154500161811E-025
  -3.4950000000000002E-002     3.6612142434653982E-025
  -3.4900000000000000E-002     5.6009855237145487E-025
  -3.4849999999999999E-002     5.7376778169550169E-025
  -3.4799999999999998E-002     3.0554132517974239E-025
  -3.4750000000000003E-002    -2.5306557826754417E-025
  -3.4700000000000002E-002    -9.7119309147056764E-025
  -3.4650000000000000E-002    -1.5843313711091858E-024
  -3.4599999999999999E-002    -1.7699781637700057E-024
  -3.4549999999999997E-002    -1.2808035348942781E-024
  -3.4500000000000003E-002    -8.7319729322931702E-026
  -3.4450000000000001E-002     1.5405346201525659E-024
  -3.4400000000000000E-002     3.0753440820076564E-024
  -3.4349999999999999E-002     3.9141744132096996E-024
  -3.4299999999999997E-002     3.6450665564301501E-024
  -3.4250000000000003E-002     2.2761876455845915E-024
  -3.4200000000000001E-002     2.8565302430193560E-025
  -3.4150000000000000E-002    -1.5937429786576578E-024
  -3.4099999999999998E-002    -2.8104815339265757E-024
  -3.4049999999999997E-002    -3.4492288529125705E-024
  -3.4000000000000002E-002    -4.4010181530212356E-024
  -3.3950000000000001E-002    -6.9842545494390190E-024
  -3.3900000000000000E-002    -1.1973839752371530E-023
  -3.3849999999999998E-002    -1.8354181716486337E-023
  -3.3799999999999997E-002    -2.2462226660984952E-023
  -3.3750000000000002E-002    -1.8322785302102743E-023
  -3.3700000000000001E-002     2.8045032167903321E-025
  -3.3649999999999999E-002     3.6154559917551682E-023
  -3.3599999999999998E-002     8.4593867712797499E-023
  -3.3550000000000003E-002     1.3079842858092818E-022
  -3.3500000000000002E-002     1.5101944183001949E-022
  -3.3450000000000001E-002     1.1884947662895505E-022
  -3.3399999999999999E-002     1.6219321592038287E-023
  -3.3349999999999998E-002    -1.5380970699986165E-022
  -3.3300000000000003E-002    -3.5752363052664530E-022
  -3.3250000000000002E-002    -5.3006129532552350E-022
  -3.3200000000000000E-002    -5.8804637256944025E-022
  -3.3149999999999999E-002    -4.5531822185192014E-022
  -3.3099999999999997E-002    -9.6106371960979939E-023
  -3.3050000000000003E-002     4.5515478753954793E-022
  -3.3000000000000002E-002     1.0804521107964176E-021
  -3.2950000000000000E-002     1.5918691451661162E-021
  -3.2899999999999999E-002     1.7753666307638070E-021
  -3.2850000000000004E-002     1.4568568107008753E-021
  -3.2800000000000003E-002     5.7226888159037538E-022
  -3.2750000000000001E-002    -7.8240093460543884E-022
  -3.2700000000000000E-002    -2.3425580640012664E-021
  -3.2649999999999998E-002    -3.7182241138932218E-021
  -3.2600000000000004E-002    -4.4822550287157674E-021
  -3.2550000000000003E-002    -4.2803693417486939E-021
  -3.2500000000000001E-002    -2.9308761955762305E-021
  -3.2450000000000000E-002    -4.8534611570990583E-022
  -3.2399999999999998E-002     2.7632967431152731E-021
  -3.2350000000000004E-002     6.3180526280473684E-021
  -3.2300000000000002E-002     9.5374793899338849E-021
  -3.2250000000000001E-002     1.1693663292215872E-020
  -3.2199999999999999E-002     1.2021934658683141E-020
  -3.2149999999999998E-002     9.7849100563444248E-021
  -3.2100000000000004E-002     4.3976476371169120E-021
  -3.2050000000000002E-002    -4.3410918199317463E-021
  -3.2000000000000001E-002    -1.5909111187691624E-020
  -3.1949999999999999E-002    -2.8691226971750676E-020
  -3.1899999999999998E-002    -3.9752004974432459E-020
  -3.1850000000000003E-002    -4.4982140887601155E-020
  -3.1800000000000002E-002    -3.9823519528129613E-020
  -3.1750000000000000E-002    -2.0632556562519244E-020
  -3.1699999999999999E-002     1.3513295574599245E-020
  -3.1649999999999998E-002     5.9059890469639176E-020
  -3.1600000000000003E-002     1.0699449493339762E-019
  -3.1550000000000002E-002     1.4338981503023689E-019
  -3.1500000000000000E-002     1.5196024601300665E-019
  -3.1449999999999999E-002     1.1854855655148959E-019
  -3.1399999999999997E-002     3.6704184360845309E-020
  -3.1350000000000003E-002    -8.7202664722801680E-020
  -3.1300000000000001E-002    -2.3127670941435044E-019
  -3.1250000000000000E-002    -3.5956056820414351E-019
  -3.1199999999999999E-002    -4.2854915766832068E-019
  -3.1150000000000001E-002    -3.9819734548301554E-019
  -3.1100000000000003E-002    -2.4520697936972011E-019
  -3.1050000000000001E-002     2.4972661961855019E-020
  -3.1000000000000000E-002     3.7150874792738340E-019
  -3.0949999999999998E-002     7.2030374534963418E-019
  -3.0900000000000000E-002     9.7634481285577062E-019
  -3.0850000000000002E-002     1.0449948861369671E-018
  -3.0800000000000001E-002     8.5804429394382755E-019
  -3.0750000000000000E-002     3.9819248459974853E-019
  -3.0699999999999998E-002    -2.8501608131913276E-019
  -3.0650000000000000E-002    -1.0735469147205399E-018
  -3.0600000000000002E-002    -1.7963072515752075E-018
  -3.0550000000000001E-002    -2.2604421675203989E-018
  -3.0499999999999999E-002    -2.2932499883869102E-018
  -3.0449999999999998E-002    -1.7864542118668291E-018
  -3.0400000000000000E-002    -7.3330547491605072E-019
  -3.0350000000000002E-002     7.5026782042433215E-019
  -3.0300000000000001E-002     2.4267808988293024E-018
  -3.0249999999999999E-002     3.9633544312882337E-018
  -3.0200000000000001E-002     4.9817515731410667E-018
  -3.0150000000000000E-002     5.1273033884205595E-018
  -3.0100000000000002E-002     4.1482171199623708E-018
  -3.0050000000000000E-002     1.9735088173373070E-018
  -2.9999999999999999E-002    -1.2250611172791745E-018
  -2.9950000000000001E-002    -5.0036116554637921E-018
  -2.9899999999999999E-002    -8.6657367654469830E-018
  -2.9850000000000002E-002    -1.1343592929116713E-017
  -2.9800000000000000E-002    -1.2143931541610279E-017
  -2.9749999999999999E-002    -1.0347987065375226E-017
  -2.9700000000000001E-002    -5.6356357513700451E-018
  -2.9650000000000003E-002     1.7140471069596738E-018
  -2.9600000000000001E-002     1.0705921936408569E-017
  -2.9550000000000000E-002     1.9655096972415869E-017
  -2.9499999999999998E-002     2.6397635470143130E-017
  -2.9450000000000000E-002     2.8689750343711583E-017
  -2.9400000000000003E-002     2.4748588467602288E-017
  -2.9350000000000001E-002     1.3833475734011491E-017
  -2.9300000000000000E-002    -3.2754242288541979E-018
  -2.9249999999999998E-002    -2.4057792678459263E-017
  -2.9200000000000000E-002    -4.4423033540925025E-017
  -2.9150000000000002E-002    -5.9328697364547314E-017
  -2.9100000000000001E-002    -6.3801428332985456E-017
  -2.9049999999999999E-002    -5.4195253195403656E-017
  -2.8999999999999998E-002    -2.9419199691517953E-017
  -2.8950000000000000E-002     8.1883136870370904E-018
  -2.8900000000000002E-002     5.2641569761470567E-017
  -2.8850000000000001E-002     9.4946454899050793E-017
  -2.8799999999999999E-002     1.2461997051866485E-016
  -2.8749999999999998E-002     1.3189679591208452E-016
  -2.8700000000000000E-002     1.1021938705638738E-016
  -2.8650000000000002E-002     5.8460508794208627E-017
  -2.8600000000000000E-002    -1.7710082023663235E-017
  -2.8549999999999999E-002    -1.0580233709741592E-016
  -2.8500000000000001E-002    -1.8807882587886708E-016
  -2.8450000000000000E-002    -2.4464241204167095E-016
  -2.8400000000000002E-002    -2.5758923871872980E-016
  -2.8350000000000000E-002    -2.1545692449727355E-016
  -2.8299999999999999E-002    -1.1700469089286780E-016
  -2.8250000000000001E-002     2.6641102924937650E-017
  -2.8200000000000003E-002     1.9223071516494868E-016
  -2.8150000000000001E-002     3.4736826399671514E-016
  -2.8100000000000000E-002     4.5602026725299386E-016
  -2.8049999999999999E-002     4.8577110416087308E-016
  -2.8000000000000001E-002     4.1553836153556029E-016
  -2.7950000000000003E-002     2.4215827024651449E-016
  -2.7900000000000001E-002    -1.5763683150706523E-017
  -2.7850000000000000E-002    -3.1802182296382562E-016
  -2.7799999999999998E-002    -6.0764432562796894E-016
  -2.7750000000000000E-002    -8.2015985408510972E-016
  -2.7700000000000002E-002    -8.9608835347994376E-016
  -2.7650000000000001E-002    -7.9455886356355573E-016
  -2.7600000000000000E-002    -5.0535339726481670E-016
  -2.7549999999999998E-002    -5.6532046301643450E-017
  -2.7500000000000000E-002     4.8477123356043629E-016
  -2.7450000000000002E-002     1.0197703285948109E-015
  -2.7400000000000001E-002     1.4335446507312405E-015
  -2.7349999999999999E-002     1.6167712352660650E-015
  -2.7299999999999998E-002     1.4901043292520505E-015
  -2.7250000000000000E-002     1.0264182411582793E-015
  -2.7200000000000002E-002     2.6572434543758993E-016
  -2.7150000000000001E-002    -6.8176180844125022E-016
  -2.7099999999999999E-002    -1.6471529738836437E-015
  -2.7049999999999998E-002    -2.4290611395071492E-015
  -2.7000000000000000E-002    -2.8312431670972211E-015
  -2.6950000000000002E-002    -2.7054973075256652E-015
  -2.6900000000000000E-002    -1.9913610203518354E-015
  -2.6849999999999999E-002    -7.4344841213502618E-016
  -2.6800000000000001E-002     8.6155172125365978E-016
  -2.6749999999999999E-002     2.5430275860011839E-015
  -2.6700000000000002E-002     3.9598238608860547E-015
  -2.6650000000000000E-002     4.7734153646395925E-015
  -2.6599999999999999E-002     4.7202733805301609E-015
  -2.6550000000000001E-002     3.6792027315342002E-015
  -2.6500000000000003E-002     1.7183906748012810E-015
  -2.6450000000000001E-002    -8.9093814091176837E-016
  -2.6400000000000000E-002    -3.7020342544118963E-015
  -2.6349999999999998E-002    -6.1613084216527766E-015
  -2.6300000000000000E-002    -7.7093334365725946E-015
  -2.6250000000000002E-002    -7.8971733322530111E-015
  -2.6200000000000001E-002    -6.4954592326868360E-015
  -2.6150000000000000E-002    -3.5721889089969322E-015
  -2.6099999999999998E-002     4.8129759131115367E-016
  -2.6050000000000000E-002     4.9884023894243113E-015
  -2.6000000000000002E-002     9.0896957606379851E-015
  -2.5950000000000001E-002     1.1896471190476672E-014
  -2.5899999999999999E-002     1.2669862342249658E-014
  -2.5849999999999998E-002     1.0991451423642822E-014
  -2.5800000000000000E-002     6.8889863022793266E-015
  -2.5750000000000002E-002     8.8576310284499397E-016
  -2.5700000000000001E-002    -6.0456339127302765E-015
  -2.5649999999999999E-002    -1.2627001802466556E-014
  -2.5599999999999998E-002    -1.7497468374108325E-014
  -2.5550000000000000E-002    -1.9479157611848441E-014
  -2.5500000000000002E-002    -1.7836141868100204E-014
  -2.5450000000000000E-002    -1.2473097389213798E-014
  -2.5399999999999999E-002    -4.0265774023443752E-015
  -2.5349999999999998E-002     6.1812995567543909E-015
  -2.5300000000000000E-002     1.6332137156489788E-014
  -2.5250000000000002E-002     2.4420317790438840E-014
  -2.5200000000000000E-002     2.8631957364516627E-014
  -2.5149999999999999E-002     2.7724683416413662E-014
  -2.5100000000000001E-002     2.1332185718230541E-014
  -2.5049999999999999E-002     1.0125303561940674E-014
  -2.5000000000000001E-002    -4.2162318723156964E-015
  -2.4950000000000000E-002    -1.9233649248190891E-014
  -2.4899999999999999E-002    -3.2093751032063149E-014
  -2.4850000000000001E-002    -4.0104407872556809E-014
  -2.4800000000000003E-002    -4.1249748156074927E-014
  -2.4750000000000001E-002    -3.4642229218724788E-014
  -2.4700000000000000E-002    -2.0796734917205462E-014
  -2.4649999999999998E-002    -1.6587491924105275E-015
  -2.4600000000000000E-002     1.9639096474030674E-014
  -2.4550000000000002E-002     3.9267743753792241E-014
  -2.4500000000000001E-002     5.3366271347015936E-014
  -2.4450000000000000E-002     5.8768454875869561E-014
  -2.4399999999999998E-002     5.3659521150879859E-014
  -2.4350000000000000E-002     3.8034424317525093E-014
  -2.4299999999999999E-002     1.3856362462078711E-014
  -2.4250000000000001E-002    -1.5138135048473969E-014
  -2.4199999999999999E-002    -4.3980302338512093E-014
  -2.4150000000000001E-002    -6.7285172150551208E-014
  -2.4100000000000000E-002    -8.0215378587034336E-014
  -2.4049999999999998E-002    -7.9428130235721273E-014
  -2.4000000000000000E-002    -6.3829669512594540E-014
  -2.3949999999999999E-002    -3.4981116455029151E-014
  -2.3900000000000001E-002     2.9508926842299097E-015
  -2.3850000000000000E-002     4.3732043818955909E-014
  -2.3800000000000002E-002     8.0033085576409841E-014
  -2.3750000000000000E-002     1.0469811594095927E-013
  -2.3699999999999999E-002     1.1209985325446812E-013
  -2.3650000000000001E-002     9.9335636120632016E-014
  -2.3599999999999999E-002     6.7022345613086163E-014
  -2.3550000000000001E-002     1.9499757857470989E-014
  -2.3500000000000000E-002    -3.5654429382646646E-014
  -2.3449999999999999E-002    -8.8771835675694947E-014
  -2.3400000000000001E-002    -1.2974514968865753E-013
  -2.3349999999999999E-002    -1.4991202033148620E-013
  -2.3300000000000001E-002    -1.4382637771258522E-013
  -2.3250000000000000E-002    -1.1056153366767663E-013
  -2.3199999999999998E-002    -5.4249585205467079E-014
  -2.3150000000000000E-002     1.6312804224979264E-014
  -2.3099999999999999E-002     8.8990350815461732E-014
  -2.3050000000000001E-002     1.5037882965064340E-013
  -2.3000000000000000E-002     1.8826738744208551E-013
  -2.2950000000000002E-002     1.9403869949934086E-013
  -2.2900000000000000E-002     1.6453383501970489E-013
  -2.2849999999999999E-002     1.0298536857242405E-013
  -2.2800000000000001E-002     1.8783998810527553E-014
  -2.2749999999999999E-002    -7.3938492976871303E-014
  -2.2700000000000001E-002    -1.5869577591300030E-013
  -2.2650000000000000E-002    -2.1959090793437923E-013
  -2.2599999999999999E-002    -2.4428227249294072E-013
  -2.2550000000000001E-002    -2.2641396703542575E-013
  -2.2499999999999999E-002    -1.6703892475894486E-013
  -2.2450000000000001E-002    -7.4740825650904521E-014
  -2.2400000000000000E-002     3.5604731789717755E-014
  -2.2349999999999998E-002     1.4524122868231331E-013
  -2.2300000000000000E-002     2.3471224062365734E-013
  -2.2249999999999999E-002     2.8726902252938992E-013
  -2.2200000000000001E-002     2.9191580054720404E-013
  -2.2150000000000000E-002     2.4555922598357164E-013
  -2.2100000000000002E-002     1.5387268144265721E-013
  -2.2050000000000000E-002     3.0693368990608452E-014
  -2.1999999999999999E-002    -1.0399436264165553E-013
  -2.1950000000000001E-002    -2.2720658180644067E-013
  -2.1899999999999999E-002    -3.1676577887549915E-013
  -2.1850000000000001E-002    -3.5516823128201163E-013
  -2.1800000000000000E-002    -3.3287661587073813E-013
  -2.1749999999999999E-002    -2.5045422979138374E-013
  -2.1700000000000001E-002    -1.1910387205960383E-013
  -2.1649999999999999E-002     4.0598373555804239E-014
  -2.1600000000000001E-002     2.0170149131220846E-013
  -2.1550000000000000E-002     3.3523368019060871E-013
  -2.1499999999999998E-002     4.1526258098531378E-013
  -2.1450000000000000E-002     4.2381767982177203E-013
  -2.1399999999999999E-002     3.5476676308856047E-013
  -2.1350000000000001E-002     2.1583450824576435E-013
  -2.1299999999999999E-002     2.8214941046403753E-014
  -2.1250000000000002E-002    -1.7636801928975277E-013
  -2.1200000000000000E-002    -3.6081871961122021E-013
  -2.1149999999999999E-002    -4.8924751234458409E-013
  -2.1100000000000001E-002    -5.3381423979006563E-013
  -2.1049999999999999E-002    -4.8052953924919630E-013
  -2.1000000000000001E-002    -3.3280569274523729E-013
  -2.0950000000000000E-002    -1.1190639795127397E-013
  -2.0899999999999998E-002     1.4599256241110901E-013
  -2.0850000000000000E-002     3.9575792155056106E-013
  -2.0799999999999999E-002     5.9126733326921718E-013
  -2.0750000000000001E-002     6.9393380167433051E-013
  -2.0700000000000000E-002     6.8015198546091459E-013
  -2.0649999999999998E-002     5.4618432917877183E-013
  -2.0600000000000000E-002     3.0946757672024982E-013
  -2.0549999999999999E-002     6.0049809243636936E-015
  -2.0500000000000001E-002    -3.1572565240547012E-013
  -2.0449999999999999E-002    -6.0322814979389509E-013
  -2.0400000000000001E-002    -8.0922117594900712E-013
  -2.0350000000000000E-002    -8.9991090795394750E-013
  -2.0299999999999999E-002    -8.6076005321787444E-013
  -2.0250000000000001E-002    -6.9870723127716587E-013
  -2.0199999999999999E-002    -4.4047923950021291E-013
  -2.0150000000000001E-002    -1.2738149305169686E-013
  -2.0100000000000000E-002     1.9239879849178568E-013
  -2.0049999999999998E-002     4.7250954901977695E-013
  -2.0000000000000000E-002     6.7655459808673125E-013
  -1.9949999999999999E-002     7.8415220857169232E-013
  -1.9900000000000001E-002     7.9387112587470146E-013
  -1.9850000000000000E-002     7.2255869602384676E-013
  -1.9799999999999998E-002     6.0121779437082195E-013
  -1.9750000000000000E-002     4.6818240660363517E-013
  -1.9699999999999999E-002     3.6080565969525862E-013
  -1.9650000000000001E-002     3.0713306475033261E-013
  -1.9599999999999999E-002     3.1906544180871834E-013
  -1.9550000000000001E-002     3.8831095357881684E-013
  -1.9500000000000000E-002     4.8602060281468411E-013
  -1.9449999999999999E-002     5.6644023170244931E-013
  -1.9400000000000001E-002     5.7427391586129282E-013
  -1.9349999999999999E-002     4.5482158573839204E-013
  -1.9300000000000001E-002     1.6542157795594165E-013
  -1.9250000000000000E-002    -3.1361483313030843E-013
  -1.9199999999999998E-002    -9.7047134167581086E-013
  -1.9150000000000000E-002    -1.7573753006019088E-012
  -1.9099999999999999E-002    -2.5913974571788111E-012
  -1.9050000000000001E-002    -3.3609260527313391E-012
  -1.9000000000000000E-002    -3.9373664068852799E-012
  -1.8949999999999998E-002    -4.1907585880039770E-012
  -1.8900000000000000E-002    -4.0073005749777736E-012
  -1.8849999999999999E-002    -3.3063790119777252E-012
  -1.8800000000000001E-002    -2.0546899682299863E-012
  -1.8749999999999999E-002    -2.7544539243839202E-013
  -1.8700000000000001E-002     1.9485886260930213E-012
  -1.8650000000000000E-002     4.4784781689849541E-012
  -1.8599999999999998E-002     7.1281343969220039E-012
  -1.8550000000000001E-002     9.6772590783799353E-012
  -1.8499999999999999E-002     1.1885904083233974E-011
  -1.8450000000000001E-002     1.3508155804043855E-011
  -1.8400000000000000E-002     1.4302771732460679E-011
  -1.8349999999999998E-002     1.4039287097706283E-011
  -1.8300000000000000E-002     1.2499131474088291E-011
  -1.8249999999999999E-002     9.4724503953326010E-012
  -1.8200000000000001E-002     4.7522752345154339E-012
  -1.8149999999999999E-002    -1.8716372187820574E-012
  -1.8100000000000002E-002    -1.0616732314194641E-011
  -1.8050000000000000E-002    -2.1707193711111298E-011
  -1.7999999999999999E-002    -3.5367759626327804E-011
  -1.7950000000000001E-002    -5.1811732368555328E-011
  -1.7899999999999999E-002    -7.1224354546504563E-011
  -1.7850000000000001E-002    -9.3744102266802124E-011
  -1.7800000000000000E-002    -1.1944505640129618E-010
  -1.7749999999999998E-002    -1.4832381893628970E-010
  -1.7700000000000000E-002    -1.8029397919902669E-010
  -1.7649999999999999E-002    -2.1519016286003456E-010
  -1.7600000000000001E-002    -2.5278155368522012E-010
  -1.7550000000000000E-002    -2.9279401066338898E-010
  -1.7499999999999998E-002    -3.3493752160167768E-010
  -1.7450000000000000E-002    -3.7893504327456275E-010
  -1.7399999999999999E-002    -4.2454864092599756E-010
  -1.7350000000000001E-002    -4.7159899909226688E-010
  -1.7299999999999999E-002    -5.1997562196949639E-010
  -1.7250000000000001E-002    -5.6963709717373273E-010
  -1.7200000000000000E-002    -6.2060160942437705E-010
  -1.7149999999999999E-002    -6.7293039820793367E-010
  -1.7100000000000001E-002    -7.2670763122346905E-010
  -1.7049999999999999E-002    -7.8201974101484125E-010
  -1.7000000000000001E-002    -8.3893852414752498E-010
  -1.6950000000000000E-002    -8.9750946065464129E-010
  -1.6899999999999998E-002    -9.5774715291627555E-010
  -1.6850000000000000E-002    -1.0196372920501247E-009
  -1.6799999999999999E-002    -1.0831447515084179E-009
  -1.6750000000000001E-002    -1.1482239913488902E-009
  -1.6700000000000000E-002    -1.2148322702121632E-009
  -1.6649999999999998E-002    -1.2829411535962282E-009
  -1.6600000000000000E-002    -1.3525456144815532E-009
  -1.6549999999999999E-002    -1.4236704981154899E-009
  -1.6500000000000001E-002    -1.4963721122767170E-009
  -1.6449999999999999E-002    -1.5707356539963169E-009
  -1.6400000000000001E-002    -1.6468696525701300E-009
  -1.6350000000000000E-002    -1.7248975185394991E-009
  -1.6299999999999999E-002    -1.8049467243182628E-009
  -1.6250000000000001E-002    -1.8871384740659506E-009
  -1.6199999999999999E-002    -1.9715787385212444E-009
  -1.6150000000000001E-002    -2.0583507297433124E-009
  -1.6100000000000000E-002    -2.1475132168530745E-009
  -1.6049999999999998E-002    -2.2391017801357775E-009
  -1.6000000000000000E-002    -2.3331362180375522E-009
  -1.5949999999999999E-002    -2.4296300867359889E-009
  -1.5900000000000001E-002    -2.5286044530281886E-009
  -1.5850000000000000E-002    -2.6300993696002552E-009
  -1.5799999999999998E-002    -2.7341827746203504E-009
  -1.5750000000000000E-002    -2.8409556729249388E-009
  -1.5699999999999999E-002    -2.9505471546763844E-009
  -1.5650000000000001E-002    -3.0631063887532453E-009
  -1.5599999999999999E-002    -3.1787860169822656E-009
  -1.5550000000000001E-002    -3.2977249142601346E-009
  -1.5500000000000000E-002    -3.4200325125473164E-009
  -1.5449999999999998E-002    -3.5457775654924032E-009
  -1.5400000000000000E-002    -3.6749872008714983E-009
  -1.5349999999999999E-002    -3.8076553604944853E-009
  -1.5300000000000001E-002    -3.9437612120286607E-009
  -1.5250000000000000E-002    -4.0832939061462533E-009
  -1.5199999999999998E-002    -4.2262805702228456E-009
  -1.5150000000000000E-002    -4.3728099580652727E-009
  -1.5099999999999999E-002    -4.5230450832037036E-009
  -1.5050000000000001E-002    -4.6772244830824127E-009
  -1.4999999999999999E-002    -4.8356489180763581E-009
  -1.4949999999999998E-002    -4.9986536438658108E-009
  -1.4900000000000000E-002    -5.1665728851848515E-009
  -1.4849999999999999E-002    -5.3397041808809330E-009
  -1.4800000000000001E-002    -5.5182750370948370E-009
  -1.4749999999999999E-002    -5.7024262916395025E-009
  -1.4700000000000001E-002    -5.8922064698992933E-009
  -1.4650000000000000E-002    -6.0875879403695380E-009
  -1.4599999999999998E-002    -6.2884934158182988E-009
  -1.4550000000000000E-002    -6.4948344258006299E-009
  -1.4499999999999999E-002    -6.7065481982328180E-009
  -1.4450000000000001E-002    -6.9236319978927324E-009
  -1.4400000000000000E-002    -7.1461619139744028E-009
  -1.4349999999999998E-002    -7.3743021879325705E-009
  -1.4300000000000000E-002    -7.6082948136039173E-009
  -1.4249999999999999E-002    -7.8484448304715484E-009
  -1.4200000000000001E-002    -8.0950939018976541E-009
  -1.4149999999999999E-002    -8.3485991663765197E-009
  -1.4099999999999998E-002    -8.6093124292707073E-009
  -1.4050000000000000E-002    -8.8775659525474366E-009
  -1.3999999999999999E-002    -9.1536707261298246E-009
  -1.3950000000000001E-002    -9.4379159498205717E-009
  -1.3899999999999999E-002    -9.7305704783317193E-009
  -1.3850000000000001E-002    -1.0031886935748773E-008
  -1.3800000000000000E-002    -1.0342098959485861E-008
  -1.3749999999999998E-002    -1.0661417512653691E-008
  -1.3700000000000000E-002    -1.0990027895793881E-008
  -1.3649999999999999E-002    -1.1328089145509420E-008
  -1.3600000000000001E-002    -1.1675732235463617E-008
  -1.3550000000000000E-002    -1.2033069453731487E-008
  -1.3499999999999998E-002    -1.2400211761303766E-008
  -1.3450000000000000E-002    -1.2777285086437301E-008
  -1.3399999999999999E-002    -1.3164450853990042E-008
  -1.3350000000000001E-002    -1.3561917214495929E-008
  -1.3299999999999999E-002    -1.3969951117481808E-008
  -1.3249999999999998E-002    -1.4388870258166433E-008
  -1.3200000000000000E-002    -1.4819034727097211E-008
  -1.3149999999999998E-002    -1.5260831772662835E-008
  -1.3100000000000001E-002    -1.5714652105083808E-008
  -1.3049999999999999E-002    -1.6180880953999410E-008
  -1.3000000000000001E-002    -1.6659893875104943E-008
  -1.2950000000000000E-002    -1.7152064999174187E-008
  -1.2899999999999998E-002    -1.7657776929477344E-008
  -1.2850000000000000E-002    -1.8177437644162867E-008
  -1.2799999999999999E-002    -1.8711500559387019E-008