  -4.0000000000000001E-002     0.0000000000000000     
  -3.9949999999999999E-002     0.0000000000000000     
  -3.9899999999999998E-002     0.0000000000000000     
  -3.9850000000000003E-002     0.0000000000000000     
  -3.9800000000000002E-002     0.0000000000000000     
  -3.9750000000000001E-002     0.0000000000000000     
  -3.9699999999999999E-002     0.0000000000000000     
  -3.9649999999999998E-002     0.0000000000000000     
  -3.9600000000000003E-002    -2.8685583394229317E-024
  -3.9550000000000002E-002    -1.8070953113621613E-023
  -3.9500000000000000E-002    -7.1172833886679217E-024
  -3.9449999999999999E-002     3.5756158444149741E-022
  -3.9399999999999998E-002     1.9334272743866174E-021
  -3.9350000000000003E-002     4.9090037063170642E-021
  -3.9300000000000002E-002     3.3493107456096107E-021
  -3.9250000000000000E-002    -2.4789520694512149E-020
  -3.9199999999999999E-002    -1.2073766869008104E-019
  -3.9150000000000004E-002    -3.1187531170245143E-019
  -3.9100000000000003E-002    -5.1243104788026234E-019
  -3.9050000000000001E-002    -3.8039041536839065E-019
  -3.9000000000000000E-002     7.3019782411004861E-019
  -3.8949999999999999E-002     3.4749270688843386E-018
  -3.8900000000000004E-002     7.7048796802293189E-018
  -3.8850000000000003E-002     1.1348876375378105E-017
  -3.8800000000000001E-002     9.8442887606684422E-018
  -3.8750000000000000E-002    -2.6195172875388493E-018
  -3.8699999999999998E-002    -2.9277604204329855E-017
  -3.8650000000000004E-002    -6.5365558083425873E-017
  -3.8600000000000002E-002    -9.4419486819091019E-017
  -3.8550000000000001E-002    -9.0807731686404168E-017
  -3.8500000000000000E-002    -3.1092268560968320E-017
  -3.8449999999999998E-002     8.8577895424369818E-017
  -3.8400000000000004E-002     2.3827158277731077E-016
  -3.8350000000000002E-002     3.5525462225705254E-016
  -3.8300000000000001E-002     3.6704818690199334E-016
  -3.8249999999999999E-002     2.3078274048758243E-016
  -3.8199999999999998E-002    -3.0978782000790019E-017
  -3.8150000000000003E-002    -3.2331396890096332E-016
  -3.8100000000000002E-002    -5.1606620233913017E-016
  -3.8050000000000000E-002    -5.1582398235464039E-016
  -3.7999999999999999E-002    -3.3705297240511905E-016
  -3.7949999999999998E-002    -1.2500462512943900E-016
  -3.7900000000000003E-002    -9.8081907897371287E-017
  -3.7850000000000002E-002    -4.1732849154679969E-016
  -3.7800000000000000E-002    -1.0384925655877988E-015
  -3.7749999999999999E-002    -1.6322772585054832E-015
  -3.7699999999999997E-002    -1.6493843146695381E-015
  -3.7650000000000003E-002    -5.5248607944445294E-016
  -3.7600000000000001E-002     1.8479519083869120E-015
  -3.7550000000000000E-002     5.0991996244781541E-015
  -3.7499999999999999E-002     8.0340459209098331E-015
  -3.7449999999999997E-002     9.0548773910332664E-015
  -3.7400000000000003E-002     6.7704185313947790E-015
  -3.7350000000000001E-002     7.9000584765687835E-016
  -3.7300000000000000E-002    -7.6821047835890472E-015
  -3.7249999999999998E-002    -1.5840784965088105E-014
  -3.7200000000000004E-002    -2.0080801630140222E-014
  -3.7150000000000002E-002    -1.7471239273891059E-014
  -3.7100000000000001E-002    -7.3694033142136780E-015
  -3.7050000000000000E-002     7.6042399980003897E-015
  -3.6999999999999998E-002     2.1912199005408768E-014
  -3.6950000000000004E-002     2.8964220868396027E-014
  -3.6900000000000002E-002     2.3976577329678500E-014
  -3.6850000000000001E-002     6.6679287118248843E-015
  -3.6799999999999999E-002    -1.7565919222545011E-014
  -3.6749999999999998E-002    -3.8918268334025015E-014
  -3.6700000000000003E-002    -4.6806862641764784E-014
  -3.6650000000000002E-002    -3.4640447433506797E-014
  -3.6600000000000001E-002    -3.6777179318370059E-015
  -3.6549999999999999E-002     3.6033781084899766E-014
  -3.6499999999999998E-002     6.8650547766461117E-014
  -3.6450000000000003E-002     7.8791675654905690E-014
  -3.6400000000000002E-002     5.8719773596392310E-014
  -3.6350000000000000E-002     1.3229949692916304E-014
  -3.6299999999999999E-002    -4.0466540945985572E-014
  -3.6249999999999998E-002    -7.8695296938864684E-014
  -3.6200000000000003E-002    -8.1334746528294654E-014
  -3.6150000000000002E-002    -4.1913475735729155E-014
  -3.6100000000000000E-002     2.6886608198253233E-014
  -3.6049999999999999E-002     9.5614878540502982E-014
  -3.6000000000000004E-002     1.2850592433958072E-013
  -3.5950000000000003E-002     9.8554573289270621E-014
  -3.5900000000000001E-002     1.2187576667358464E-015
  -3.5850000000000000E-002    -1.3942399621069779E-013
  -3.5799999999999998E-002    -2.7572855385131915E-013
  -3.5750000000000004E-002    -3.5204465216011607E-013
  -3.5700000000000003E-002    -3.2560612350612145E-013
  -3.5650000000000001E-002    -1.8484896391605210E-013
  -3.5600000000000000E-002     4.2414839875388608E-014
  -3.5549999999999998E-002     2.9510196315963786E-013
  -3.5500000000000004E-002     4.9801754256388271E-013
  -3.5450000000000002E-002     5.8760950079456632E-013
  -3.5400000000000001E-002     5.3484228146943508E-013
  -3.5349999999999999E-002     3.5626410808789090E-013
  -3.5299999999999998E-002     1.0845220068170614E-013
  -3.5250000000000004E-002    -1.3270979045061668E-013
  -3.5200000000000002E-002    -3.0039423553989271E-013
  -3.5150000000000001E-002    -3.6184684984167041E-013
  -3.5099999999999999E-002    -3.2979113888768873E-013
  -3.5049999999999998E-002    -2.5485495383253205E-013
  -3.5000000000000003E-002    -2.0111434825502516E-013
  -3.4950000000000002E-002    -2.1411431262525309E-013
  -3.4900000000000000E-002    -2.9486085952002511E-013
  -3.4849999999999999E-002    -3.9230374138665345E-013
  -3.4799999999999998E-002    -4.2050136786660529E-013
  -3.4750000000000003E-002    -2.9682672331632696E-013
  -3.4700000000000002E-002     1.2299622704813961E-014
  -3.4650000000000000E-002     4.5752121722416272E-013
  -3.4599999999999999E-002     9.0258511756067089E-013
  -3.4549999999999997E-002     1.1591687264262265E-012
  -3.4500000000000003E-002     1.0545401998116833E-012
  -3.4450000000000001E-002     5.1082703223410427E-013
  -3.4400000000000000E-002    -3.9475051521622526E-013
  -3.4349999999999999E-002    -1.4178497231525970E-012
  -3.4299999999999997E-002    -2.1986401314765759E-012
  -3.4250000000000003E-002    -2.3701179193556337E-012
  -3.4200000000000001E-002    -1.6926501723810637E-012
  -3.4150000000000000E-002    -1.6902195633524761E-013
  -3.4099999999999998E-002     1.9056565612919385E-012
  -3.4049999999999997E-002     3.9874828610673162E-012
  -3.4000000000000002E-002     5.4190633381634239E-012
  -3.3950000000000001E-002     5.6222655064263806E-012
  -3.3900000000000000E-002     4.2905850164261402E-012
  -3.3849999999999998E-002     1.5181246125613562E-012
  -3.3799999999999997E-002    -2.1815924329173326E-012
  -3.3750000000000002E-002    -5.9807474384842630E-012
  -3.3700000000000001E-002    -8.9410791552699786E-012
  -3.3649999999999999E-002    -1.0259463243078232E-011
  -3.3599999999999998E-002    -9.4843984989838524E-012
  -3.3550000000000003E-002    -6.6412455963138708E-012
  -3.3500000000000002E-002    -2.2319125628263120E-012
  -3.3450000000000001E-002     2.8878614137344865E-012
  -3.3399999999999999E-002     7.7158058667466375E-012
  -3.3349999999999998E-002     1.1335867219814823E-011
  -3.3300000000000003E-002     1.3114748694541526E-011
  -3.3250000000000002E-002     1.2815903984738054E-011
  -3.3200000000000000E-002     1.0611364385011323E-011
  -3.3149999999999999E-002     7.0008824528505683E-012
  -3.3099999999999997E-002     2.6706209360166926E-012
  -3.3050000000000003E-002    -1.6656015182451595E-012
  -3.3000000000000002E-002    -5.4022084143171003E-012
  -3.2950000000000000E-002    -8.1281075572327736E-012
  -3.2899999999999999E-002    -9.6551183735138174E-012
  -3.2850000000000004E-002    -9.9975846118786021E-012
  -3.2800000000000003E-002    -9.3224384112478391E-012
  -3.2750000000000001E-002    -7.8899405556838352E-012
  -3.2700000000000000E-002    -5.9984448343687688E-012
  -3.2649999999999998E-002    -3.9365551663375231E-012
  -3.2600000000000004E-002    -1.9388428175325271E-012
  -3.2550000000000003E-002    -1.4129893848700803E-013
  -3.2500000000000001E-002     1.4595921769546551E-012
  -3.2450000000000000E-002     3.0287887347060074E-012
  -3.2399999999999998E-002     4.8721448735284149E-012
  -3.2350000000000004E-002     7.3520232398198727E-012
  -3.2300000000000002E-002     1.0733136539782986E-011
  -3.2250000000000001E-002     1.4978572810778551E-011
  -3.2199999999999999E-002     1.9543206898493182E-011
  -3.2149999999999998E-002     2.3228702771352064E-011
  -3.2100000000000004E-002     2.4161514914545521E-011
  -3.2050000000000002E-002     1.9929449440913569E-011
  -3.2000000000000001E-002     7.8697431319821869E-012
  -3.1949999999999999E-002    -1.4544327011282575E-011
  -3.1899999999999998E-002    -4.9304659645441996E-011
  -3.1850000000000003E-002    -9.7551343914114912E-011
  -3.1800000000000002E-002    -1.5941033263457161E-010
  -3.1750000000000000E-002    -2.3401565568513195E-010
  -3.1699999999999999E-002    -3.1969614781022504E-010
  -3.1649999999999998E-002    -4.1426773528828987E-010
  -3.1600000000000003E-002    -5.1535514341475111E-010
  -3.1550000000000002E-002    -6.2067558932198132E-010
  -3.1500000000000000E-002    -7.2824267759426896E-010
  -3.1449999999999999E-002    -8.3648100143901612E-010
  -3.1399999999999997E-002    -9.4426413465314654E-010
  -3.1350000000000003E-002    -1.0508994970706892E-009
  -3.1300000000000001E-002    -1.1560791116028088E-009
  -3.1250000000000000E-002    -1.2598044230766768E-009
  -3.1199999999999999E-002    -1.3622882777389329E-009
  -3.1150000000000001E-002    -1.4638365309192829E-009
  -3.1100000000000003E-002    -1.5647227032070888E-009
  -3.1050000000000001E-002    -1.6650819020204391E-009
  -3.1000000000000000E-002    -1.7648557566854232E-009
  -3.0949999999999998E-002    -1.8638172648322254E-009
  -3.0900000000000000E-002    -1.9616822347829965E-009
  -3.0850000000000002E-002    -2.0582886860914877E-009
  -3.0800000000000001E-002    -2.1537928167208096E-009
  -3.0750000000000000E-002    -2.2488168203295413E-009
  -3.0699999999999998E-002    -2.3444831714673696E-009
  -3.0650000000000000E-002    -2.4422941545459629E-009
  -3.0600000000000002E-002    -2.5438615626801147E-009
  -3.0550000000000001E-002    -2.6505328916199892E-009
  -3.0499999999999999E-002    -2.7630061579655557E-009
  -3.0449999999999998E-002    -2.8810396657895545E-009
  -3.0400000000000000E-002    -3.0033513287115317E-009
  -3.0350000000000002E-002    -3.1277619739864322E-009
  -3.0300000000000001E-002    -3.2515790108679867E-009
  -3.0249999999999999E-002    -3.3721502580640050E-009
  -3.0200000000000001E-002    -3.4874725073716112E-009
  -3.0150000000000000E-002    -3.5967121526173822E-009
  -3.0100000000000002E-002    -3.7005102438076641E-009
  -3.0050000000000000E-002    -3.8009863817837254E-009
  -2.9999999999999999E-002    -3.9014264502695665E-009
  -2.9950000000000001E-002    -4.0057080515948307E-009
  -2.9899999999999999E-002    -4.1175847536853378E-009
  -2.9850000000000002E-002    -4.2399804692586331E-009
  -2.9800000000000000E-002    -4.3744527152572938E-009
  -2.9749999999999999E-002    -4.5209464119300098E-009
  -2.9700000000000001E-002    -4.6778930316149418E-009
  -2.9650000000000003E-002    -4.8426348630509622E-009
  -2.9600000000000001E-002    -5.0120726768655058E-009
  -2.9550000000000000E-002    -5.1833804005097216E-009
  -2.9499999999999998E-002    -5.3546044306709673E-009
  -2.9450000000000000E-002    -5.5249987950288731E-009
  -2.9400000000000003E-002    -5.6950101058059913E-009
  -2.9350000000000001E-002    -5.8659368436883339E-009
  -2.9300000000000000E-002    -6.0393756578470077E-009
  -2.9249999999999998E-002    -6.2166507359086133E-009
  -2.9200000000000000E-002    -6.3984173340723390E-009
  -2.9150000000000002E-002    -6.5845775651075333E-009
  -2.9100000000000001E-002    -6.7745362290886951E-009
  -2.9049999999999999E-002    -6.9676906143075211E-009
  -2.8999999999999998E-002    -7.1639602035854535E-009
  -2.8950000000000000E-002    -7.3641378860318666E-009
  -2.8900000000000002E-002    -7.5698958955319848E-009
  -2.8850000000000001E-002    -7.7834253433987216E-009
  -2.8799999999999999E-002    -8.0068080494910384E-009
  -2.8749999999999998E-002    -8.2413477537498827E-009
  -2.8700000000000000E-002    -8.4871055572702408E-009
  -2.8650000000000002E-002    -8.7428126220171763E-009
  -2.8600000000000000E-002    -9.0062121744441023E-009
  -2.8549999999999999E-002    -9.2747103993136029E-009
  -2.8500000000000001E-002    -9.5461194028960387E-009
  -2.8450000000000000E-002    -9.8192284100066356E-009
  -2.8400000000000002E-002    -1.0094026201057576E-008
  -2.8350000000000000E-002    -1.0371525439071500E-008
  -2.8299999999999999E-002    -1.0653283478901407E-008
  -2.8250000000000001E-002    -1.0940830009226180E-008
  -2.8200000000000003E-002    -1.1235221482419550E-008
  -2.8150000000000001E-002    -1.1536890583221823E-008
  -2.8100000000000000E-002    -1.1845831897983747E-008
  -2.8049999999999999E-002    -1.2162044089579022E-008
  -2.8000000000000001E-002    -1.2486042723262124E-008
  -2.7950000000000003E-002    -1.2819244384233192E-008
  -2.7900000000000001E-002    -1.3164068967489463E-008
  -2.7850000000000000E-002    -1.3523692795943312E-008
  -2.7799999999999998E-002    -1.3901506060217138E-008
  -2.7750000000000000E-002    -1.4300409751151917E-008
  -2.7700000000000002E-002    -1.4722144312882578E-008
  -2.7650000000000001E-002    -1.5166815943367073E-008
  -2.7600000000000000E-002    -1.5632762831752448E-008
  -2.7549999999999998E-002    -1.6116794476506608E-008
  -2.7500000000000000E-002    -1.6614765600980601E-008
  -2.7450000000000002E-002    -1.7122374147518490E-008
  -2.7400000000000001E-002    -1.7635992015750165E-008
  -2.7349999999999999E-002    -1.8153367122001783E-008
  -2.7299999999999998E-002    -1.8674020378867294E-008
  -2.7250000000000000E-002    -1.9199234378745466E-008
  -2.7200000000000002E-002    -1.9731639782089219E-008
  -2.7150000000000001E-002    -2.0274474797961588E-008
  -2.7099999999999999E-002    -2.0830707320915405E-008
  -2.7049999999999998E-002    -2.1402250575826777E-008
  -2.7000000000000000E-002    -2.1989486128931433E-008
  -2.6950000000000002E-002    -2.2591246318156106E-008
  -2.6900000000000000E-002    -2.3205280564031482E-008
  -2.6849999999999999E-002    -2.3829088309785634E-008
  -2.6800000000000001E-002    -2.4460871356368005E-008
  -2.6749999999999999E-002    -2.5100330601464350E-008
  -2.6700000000000002E-002    -2.5749032999032280E-008
  -2.6650000000000000E-002    -2.6410209781119887E-008
  -2.6599999999999999E-002    -2.7088003674680819E-008
  -2.6550000000000001E-002    -2.7786382080829427E-008
  -2.6500000000000003E-002    -2.8508044108542293E-008
  -2.6450000000000001E-002    -2.9253695375184288E-008
  -2.6400000000000000E-002    -3.0021958074071293E-008
  -2.6349999999999998E-002    -3.0810004967185177E-008
  -2.6300000000000000E-002    -3.1614797975515100E-008
  -2.6250000000000002E-002    -3.2434523895898433E-008
  -2.6200000000000001E-002    -3.3269828653285275E-008
  -2.6150000000000000E-002    -3.4124394829958207E-008
  -2.6099999999999998E-002    -3.5004657517345081E-008
  -2.6050000000000000E-002    -3.5918664764679366E-008
  -2.6000000000000002E-002    -3.6874426126635992E-008
  -2.5950000000000001E-002    -3.7878149562321604E-008
  -2.5899999999999999E-002    -3.8932968869776786E-008
  -2.5849999999999998E-002    -4.0038483073308626E-008
  -2.5800000000000000E-002    -4.1191287871715630E-008
  -2.5750000000000002E-002    -4.2386297337955715E-008
  -2.5700000000000001E-002    -4.3618448806601574E-008
  -2.5649999999999999E-002    -4.4884252372382505E-008
  -2.5599999999999998E-002    -4.6182689141918148E-008
  -2.5550000000000000E-002    -4.7515163310399797E-008
  -2.5500000000000002E-002    -4.8884533296838445E-008
  -2.5450000000000000E-002    -5.0293563225612251E-008
  -2.5399999999999999E-002    -5.1743303829236947E-008
  -2.5349999999999998E-002    -5.3231974988867888E-008
  -2.5300000000000000E-002    -5.4754758454701744E-008
  -2.5250000000000002E-002    -5.6304615646231201E-008
  -2.5200000000000000E-002    -5.7873882774971773E-008
  -2.5149999999999999E-002    -5.9456145813142156E-008
  -2.5100000000000001E-002    -6.1047728270611169E-008
  -2.5049999999999999E-002    -6.2648263512541245E-008
  -2.5000000000000001E-002    -6.4260133600005662E-008
  -2.4950000000000000E-002    -6.5886891546482961E-008
  -2.4899999999999999E-002    -6.7531181659522477E-008
  -2.4850000000000001E-002    -6.9192996281600645E-008
  -2.4800000000000003E-002    -7.0868814301986368E-008
  -2.4750000000000001E-002    -7.2552143253158722E-008
  -2.4700000000000000E-002    -7.4235262988666544E-008
  -2.4649999999999998E-002    -7.5911737441568874E-008
  -2.4600000000000000E-002    -7.7578717317531121E-008
  -2.4550000000000002E-002    -7.9238366938429168E-008
  -2.4500000000000001E-002    -8.0897744155670586E-008
  -2.4450000000000000E-002    -8.2567179192898018E-008
  -2.4399999999999998E-002    -8.4257733084377210E-008
  -2.4350000000000000E-002    -8.5978501999187562E-008
  -2.4299999999999999E-002    -8.7734823042631490E-008
  -2.4250000000000001E-002    -8.9527942871671899E-008
  -2.4199999999999999E-002    -9.1356294309742395E-008
  -2.4150000000000001E-002    -9.3217907385366627E-008
  -2.4100000000000000E-002    -9.5113059987604909E-008
  -2.4049999999999998E-002    -9.7046152608807025E-008
  -2.4000000000000000E-002    -9.9026086483304860E-008
  -2.3949999999999999E-002    -1.0106493149851482E-007
  -2.3900000000000001E-002    -1.0317532129804531E-007
  -2.3850000000000000E-002    -1.0536741303114275E-007
  -2.3800000000000002E-002    -1.0764649991354225E-007
  -2.3750000000000000E-002    -1.1001219679259359E-007
  -2.3699999999999999E-002    -1.1245938560985526E-007
  -2.3650000000000001E-002    -1.1498073738473369E-007
  -2.3599999999999999E-002    -1.1756995011700288E-007
  -2.3550000000000001E-002    -1.2022459368144842E-007
  -2.3500000000000000E-002    -1.2294763356804943E-007
  -2.3449999999999999E-002    -1.2574704966364281E-007
  -2.3400000000000001E-002    -1.2863380088029723E-007
  -2.3349999999999999E-002    -1.3161857655725163E-007
  -2.3300000000000001E-002    -1.3470867916083246E-007
  -2.3250000000000000E-002    -1.3790584800120731E-007
  -2.3199999999999998E-002    -1.4120594532295930E-007
  -2.3150000000000000E-002    -1.4460038045390538E-007
  -2.3099999999999999E-002    -1.4807898000344752E-007
  -2.3050000000000001E-002    -1.5163320311337993E-007
  -2.3000000000000000E-002    -1.5525864419080979E-007
  -2.2950000000000002E-002    -1.5895590411730674E-007
  -2.2900000000000000E-002    -1.6272971736085277E-007
  -2.2849999999999999E-002    -1.6658640187265962E-007
  -2.2800000000000001E-002    -1.7053084839289267E-007
  -2.2749999999999999E-002    -1.7456394012105096E-007
  -2.2700000000000001E-002    -1.7868145587282083E-007
  -2.2650000000000000E-002    -1.8287492895086159E-007
  -2.2599999999999999E-002    -1.8713429081004662E-007
  -2.2550000000000001E-002    -1.9145138773573852E-007
  -2.2499999999999999E-002    -1.9582324842538822E-007
  -2.2450000000000001E-002    -2.0025397776508631E-007
  -2.2400000000000000E-002    -2.0475448965599463E-007
  -2.2349999999999998E-002    -2.0934026021673655E-007
  -2.2300000000000000E-002    -2.1402749917636528E-007
  -2.2249999999999999E-002    -2.1882924641584238E-007
  -2.2200000000000001E-002    -2.2375237595196774E-007
  -2.2150000000000000E-002    -2.2879667483355789E-007
  -2.2100000000000002E-002    -2.3395609058860247E-007
  -2.2050000000000000E-002    -2.3922181744904734E-007
  -2.1999999999999999E-002    -2.4458603557017113E-007
  -2.1950000000000001E-002    -2.5004514299728389E-007
  -2.1899999999999999E-002    -2.5560121771208393E-007
  -2.1850000000000001E-002    -2.6126134989159008E-007
  -2.1800000000000000E-002    -2.6703522862337034E-007
  -2.1749999999999999E-002    -2.7293163419426266E-007
  -2.1700000000000001E-002    -2.7895518941493214E-007
  -2.1649999999999999E-002    -2.8510481934840047E-007
  -2.1600000000000001E-002    -2.9137397363643457E-007
  -2.1550000000000000E-002    -2.9775301353457345E-007
  -2.1499999999999998E-002    -3.0423298058182902E-007
  -2.1450000000000000E-002    -3.1080906663311373E-007
  -2.1399999999999999E-002    -3.1748306502004499E-007
  -2.1350000000000001E-002    -3.2426362629741380E-007
  -2.1299999999999999E-002    -3.3116431333699098E-007
  -2.1250000000000002E-002    -3.3820009675517098E-007
  -2.1200000000000000E-002    -3.4538337631159505E-007
  -2.1149999999999999E-002    -3.5272070632072973E-007
  -2.1100000000000001E-002    -3.6021130979185908E-007
  -2.1049999999999999E-002    -3.6784773415169808E-007
  -2.1000000000000001E-002    -3.7561850158793763E-007
  -2.0950000000000000E-002    -3.8351161362614666E-007
  -2.0899999999999998E-002    -3.9151801743704778E-007
  -2.0850000000000000E-002    -3.9963407261441238E-007
  -2.0799999999999999E-002    -4.0786212081416639E-007
  -2.0750000000000001E-002    -4.1620947340132960E-007
  -2.0700000000000000E-002    -4.2468596601768801E-007
  -2.0649999999999998E-002    -4.3330120640582733E-007
  -2.0600000000000000E-002    -4.4206241841674806E-007
  -2.0549999999999999E-002    -4.5097321951506120E-007
  -2.0500000000000001E-002    -4.6003417075263172E-007
  -2.0449999999999999E-002    -4.6924415518415700E-007
  -2.0400000000000001E-002    -4.7860255340341131E-007
  -2.0350000000000000E-002    -4.8811121476665212E-007
  -2.0299999999999999E-002    -4.9777550395263307E-007
  -2.0250000000000001E-002    -5.0760411415720075E-007
  -2.0199999999999999E-002    -5.1760786156096902E-007
  -2.0150000000000001E-002    -5.2779736871405463E-007
  -2.0100000000000000E-002    -5.3818069242825143E-007
  -2.0049999999999998E-002    -5.4876150144293835E-007
  -2.0000000000000000E-002    -5.5953847271115521E-007
  -1.9949999999999999E-002    -5.7050560874102582E-007
  -1.9900000000000001E-002    -5.8165407193848944E-007
  -1.9850000000000000E-002    -5.9297464294812421E-007
  -1.9799999999999998E-002    -6.0445977432416044E-007
  -1.9750000000000000E-002    -6.1610550129696940E-007
  -1.9699999999999999E-002    -6.2791172556813213E-007
  -1.9650000000000001E-002    -6.3988169888445158E-007
  -1.9599999999999999E-002    -6.5202060119245970E-007
  -1.9550000000000001E-002    -6.6433408601304295E-007
  -1.9500000000000000E-002    -6.7682671606924765E-007
  -1.9449999999999999E-002    -6.8950132135128420E-007
  -1.9400000000000001E-002    -7.0235893847611347E-007
  -1.9349999999999999E-002    -7.1539946919264922E-007
  -1.9300000000000001E-002    -7.2862254601945586E-007
  -1.9250000000000000E-002    -7.4202833150631258E-007
  -1.9199999999999998E-002    -7.5561794281555009E-007
  -1.9150000000000000E-002    -7.6939331043111793E-007
  -1.9099999999999999E-002    -7.8335693448210070E-007
  -1.9050000000000001E-002    -7.9751096815017319E-007
  -1.9000000000000000E-002    -8.1185679045673443E-007
  -1.8949999999999998E-002    -8.2639427324589231E-007
  -1.8900000000000000E-002    -8.4112196627093687E-007
  -1.8849999999999999E-002    -8.5603730371066323E-007
  -1.8800000000000001E-002    -8.7113718604347472E-007
  -1.8749999999999999E-002    -8.8641901760870239E-007
  -1.8700000000000001E-002    -9.0188140187731721E-007
  -1.8650000000000000E-002    -9.1752499934158134E-007
  -1.8599999999999998E-002    -9.3335298821091096E-007
  -1.8550000000000001E-002    -9.4937094465159250E-007
  -1.8499999999999999E-002    -9.6558640321991435E-007
  -1.8450000000000001E-002    -9.8200737462001705E-007
  -1.8400000000000000E-002    -9.9864080126487498E-007
  -1.8349999999999998E-002    -1.0154910516010970E-006
  -1.8300000000000000E-002    -1.0325588899223049E-006
  -1.8249999999999999E-002    -1.0498407075757466E-006
  -1.8200000000000001E-002    -1.0673297392481302E-006
  -1.8149999999999999E-002    -1.0850174455477799E-006
  -1.8100000000000002E-002    -1.1028958012441176E-006
  -1.8050000000000000E-002    -1.1209596771205600E-006
  -1.7999999999999999E-002    -1.1392080751532386E-006
  -1.7950000000000001E-002    -1.1576443800911774E-006
  -1.7899999999999999E-002    -1.1762754590989894E-006
  -1.7850000000000001E-002    -1.1951086966416973E-006
  -1.7800000000000000E-002    -1.2141500653484047E-006
  -1.7749999999999998E-002    -1.2334010439795019E-006
  -1.7700000000000000E-002    -1.2528575975080863E-006
  -1.7649999999999999E-002    -1.2725106509538120E-006
  -1.7600000000000001E-002    -1.2923474666209413E-006
  -1.7550000000000000E-002    -1.3123552115001069E-006
  -1.7499999999999998E-002    -1.3325233140194147E-006
  -1.7450000000000000E-002    -1.3528461599418172E-006
  -1.7399999999999999E-002    -1.3733237059023048E-006
  -1.7350000000000001E-002    -1.3939605759037195E-006
  -1.7299999999999999E-002    -1.4147639629431974E-006
  -1.7250000000000001E-002    -1.4357403713068954E-006
  -1.7200000000000000E-002    -1.4568937350407141E-006
  -1.7149999999999999E-002    -1.4782234452744682E-006
  -1.7100000000000001E-002    -1.4997247089835432E-006
  -1.7049999999999999E-002    -1.5213897418702699E-006
  -1.7000000000000001E-002    -1.5432102017799652E-006
  -1.6950000000000000E-002    -1.5651791584712962E-006
  -1.6899999999999998E-002    -1.5872928795918034E-006
  -1.6850000000000000E-002    -1.6095506935051878E-006
  -1.6799999999999999E-002    -1.6319543481504443E-006
  -1.6750000000000001E-002    -1.6545059135206415E-006
  -1.6700000000000000E-002    -1.6772057073638066E-006
  -1.6649999999999998E-002    -1.7000505830123561E-006
  -1.6600000000000000E-002    -1.7230331094862577E-006
  -1.6549999999999999E-002    -1.7461424688473502E-006
  -1.6500000000000001E-002    -1.7693656272086264E-006
  -1.6449999999999999E-002    -1.7926896258562626E-006
  -1.6400000000000001E-002    -1.8161030847450345E-006
  -1.6350000000000000E-002    -1.8395975586824472E-006
  -1.6299999999999999E-002    -1.8631679814445534E-006
  -1.6250000000000001E-002    -1.8868112206124683E-006
  -1.6199999999999999E-002    -1.9105251981796717E-006
  -1.6150000000000001E-002    -1.9343069464568174E-006
  -1.6100000000000000E-002    -1.9581509444787888E-006
  -1.6049999999999998E-002    -1.9820499342798524E-006
  -1.6000000000000000E-002    -2.0059939334781398E-006
  -1.5949999999999999E-002    -2.0299714371800755E-006
  -1.5900000000000001E-002    -2.0539710480231979E-006
  -1.5850000000000000E-002    -2.0779826977321139E-006
  -1.5799999999999998E-002    -2.1019980447385226E-006
  -1.5750000000000000E-002    -2.1260100434840528E-006
  -1.5699999999999999E-002    -2.1500129231821724E-006
  -1.5650000000000001E-002    -2.1740003486700372E-006
  -1.5599999999999999E-002    -2.1979648020440533E-006
  -1.5550000000000001E-002    -2.2218958164017049E-006
  -1.5500000000000000E-002    -2.2457807050353106E-006
  -1.5449999999999998E-002    -2.2696039794585535E-006
  -1.5400000000000000E-002    -2.2933492030117259E-006
  -1.5349999999999999E-002    -2.3169996714024247E-006
  -1.5300000000000001E-002    -2.3405397493871914E-006
  -1.5250000000000000E-002    -2.3639559178334294E-006
  -1.5199999999999998E-002    -2.3872366941902293E-006
  -1.5150000000000000E-002    -2.4103721298814062E-006
  -1.5099999999999999E-002    -2.4333537640480537E-006
  -1.5050000000000001E-002    -2.4561732625210363E-006
  -1.4999999999999999E-002    -2.4788222815315400E-006
  -1.4949999999999998E-002    -2.5012919663702516E-006
  -1.4900000000000000E-002    -2.5235720876757751E-006
  -1.4849999999999999E-002    -2.5456511818117251E-006
  -1.4800000000000001E-002    -2.5675153032465405E-006
  -1.4749999999999999E-002    -2.5891479313673919E-006
  -1.4700000000000001E-002    -2.6105298590221082E-006
  -1.4650000000000000E-002    -2.6316385574607304E-006
  -1.4599999999999998E-002    -2.6524485799324185E-006
  -1.4550000000000000E-002    -2.6729330274587546E-006
  -1.4499999999999999E-002    -2.6930649532430907E-006
  -1.4450000000000001E-002    -2.7128182623596570E-006
  -1.4400000000000000E-002    -2.7321697998750914E-006
  -1.4349999999999998E-002    -2.7510985323041907E-006
  -1.4300000000000000E-002    -2.7695865863197663E-006
  -1.4249999999999999E-002    -2.7876167462108623E-006
  -1.4200000000000001E-002    -2.8051712565255460E-006
  -1.4149999999999999E-002    -2.8222308028352583E-006
  -1.4099999999999998E-002    -2.8387735554699937E-006
  -1.4050000000000000E-002    -2.8547750757448368E-006
  -1.3999999999999999E-002    -2.8702091375826855E-006
  -1.3950000000000001E-002    -2.8850500320590324E-006
  -1.3899999999999999E-002    -2.8992725260457038E-006
  -1.3850000000000001E-002    -2.9128540770202469E-006
  -1.3800000000000000E-002    -2.9257738615194658E-006
  -1.3749999999999998E-002    -2.9380116055031093E-006
  -1.3700000000000000E-002    -2.9495464646130887E-006
  -1.3649999999999999E-002    -2.9603541302267273E-006
  -1.3600000000000001E-002    -2.9704061557155878E-006
  -1.3550000000000000E-002    -2.9796696729992801E-006
  -1.3499999999999998E-002    -2.9881084170827074E-006
  -1.3450000000000000E-002    -2.9956836636206639E-006
  -1.3399999999999999E-002    -3.0023581157397851E-006
  -1.3350000000000001E-002    -3.0080968651868792E-006
  -1.3299999999999999E-002    -3.0128693736690905E-006
  -1.3249999999999998E-002    -3.0166484155054407E-006
  -1.3200000000000000E-002    -3.0194088410935807E-006
  -1.3149999999999998E-002    -3.0211254269432985E-006
  -1.3100000000000001E-002    -3.0217697961267802E-006
  -1.3049999999999999E-002    -3.0213089656609563E-006
  -1.3000000000000001E-002    -3.0197064602138574E-006
  -1.2950000000000000E-002    -3.0169222410791836E-006
  -1.2899999999999998E-002    -3.0129157382412152E-006
  -1.2850000000000000E-002    -3.0076482357734719E-006
  -1.2799999999999999E-002    -3.0010836404342788E-006