  -4.0000000000000001E-002     0.0000000000000000     
  -3.9949999999999999E-002     0.0000000000000000     
  -3.9899999999999998E-002     0.0000000000000000     
  -3.9850000000000003E-002     0.0000000000000000     
  -3.9800000000000002E-002     0.0000000000000000     
  -3.9750000000000001E-002     0.0000000000000000     
  -3.9699999999999999E-002     0.0000000000000000     
  -3.9649999999999998E-002     0.0000000000000000     
  -3.9600000000000003E-002     0.0000000000000000     
  -3.9550000000000002E-002     0.0000000000000000     
  -3.9500000000000000E-002     0.0000000000000000     
  -3.9449999999999999E-002     0.0000000000000000     
  -3.9399999999999998E-002     0.0000000000000000     
  -3.9350000000000003E-002    -4.0110626119554700E-036
  -3.9300000000000002E-002    -5.6956173480579029E-035
  -3.9250000000000000E-002    -2.7554702805001404E-034
  -3.9199999999999999E-002     5.9088671085044489E-034
  -3.9150000000000004E-002     1.7298446287376359E-032
  -3.9100000000000003E-002     1.3140301368195683E-031
  -3.9050000000000001E-002     6.2776932964934340E-031
  -3.9000000000000000E-002     2.0961952095363968E-030
  -3.8949999999999999E-002     4.5980479302740324E-030
  -3.8900000000000004E-002     3.0638137177170733E-030
  -3.8850000000000003E-002    -2.6057191788140810E-029
  -3.8800000000000001E-002    -1.4811190549015311E-028
  -3.8750000000000000E-002    -4.8037229684965155E-028
  -3.8699999999999998E-002    -1.1047382569808523E-027
  -3.8650000000000004E-002    -1.7181651678730115E-027
  -3.8600000000000002E-002    -8.7204571528721954E-028
  -3.8550000000000001E-002     4.9780821482193615E-027
  -3.8500000000000000E-002     2.1394985302504793E-026
  -3.8449999999999998E-002     5.2190749700713604E-026
  -3.8400000000000004E-002     8.8756696929203524E-026
  -3.8350000000000002E-002     9.2479924757443505E-026
  -3.8300000000000001E-002    -1.9879573203741140E-026
  -3.8249999999999999E-002    -3.6246089162597714E-025
  -3.8199999999999998E-002    -1.0022666531975397E-024
  -3.8150000000000003E-002    -1.7968962627318058E-024
  -3.8100000000000002E-002    -2.1930144414277976E-024
  -3.8050000000000000E-002    -1.1410008401199866E-024
  -3.7999999999999999E-002     2.6221638138712802E-024
  -3.7949999999999998E-002     9.7071502406344103E-024
  -3.7900000000000003E-002     1.8703856498747144E-023
  -3.7850000000000002E-002     2.4943680503997390E-023
  -3.7800000000000000E-002     2.0586138011876888E-023
  -3.7749999999999999E-002    -2.7166078630989266E-024
  -3.7699999999999997E-002    -4.8282604587343472E-023
  -3.7650000000000003E-002    -1.0772944519433859E-022
  -3.7600000000000001E-002    -1.5717473614909570E-022
  -3.7550000000000000E-002    -1.6110748663448070E-022
  -3.7499999999999999E-002    -8.6338846513769189E-023
  -3.7449999999999997E-002     7.7398386882768943E-023
  -3.7400000000000003E-002     3.0049710801707074E-022
  -3.7350000000000001E-002     5.1351330739612263E-022
  -3.7300000000000000E-002     6.3196813513640623E-022
  -3.7249999999999998E-002     5.9875560704379977E-022
  -3.7200000000000004E-002     4.1916119992380171E-022
  -3.7150000000000002E-002     1.5565783200881116E-022
  -3.7100000000000001E-002    -1.3526020111190276E-022
  -3.7050000000000000E-002    -5.0129353120353800E-022
  -3.6999999999999998E-002    -1.1548494288270872E-021
  -3.6950000000000004E-002    -2.3987961024758852E-021
  -3.6900000000000002E-002    -4.3598309193560556E-021
  -3.6850000000000001E-002    -6.5895736052777846E-021
  -3.6799999999999999E-002    -7.7538475389705255E-021
  -3.6749999999999998E-002    -5.7408655904619978E-021
  -3.6700000000000003E-002     1.5394448860866884E-021
  -3.6650000000000002E-002     1.4694119371429872E-020
  -3.6600000000000001E-002     3.1243240983181529E-020
  -3.6549999999999999E-002     4.4846661263964294E-020
  -3.6499999999999998E-002     4.6410420840768774E-020
  -3.6450000000000003E-002     2.7537507353459456E-020
  -3.6400000000000002E-002    -1.4442521318911836E-020
  -3.6350000000000000E-002    -7.2033481589211459E-020
  -3.6299999999999999E-002    -1.2661763164484944E-019
  -3.6249999999999998E-002    -1.5311129663350830E-019
  -3.6200000000000003E-002    -1.2988864617638472E-019
  -3.6150000000000002E-002    -5.0339423586408057E-020
  -3.6100000000000000E-002     6.9860048380508901E-020
  -3.6049999999999999E-002     1.9503395856154041E-019
  -3.6000000000000004E-002     2.8235233607740094E-019
  -3.5950000000000003E-002     2.9992593146360225E-019
  -3.5900000000000001E-002     2.4017136504867861E-019
  -3.5850000000000000E-002     1.1938441651921547E-019
  -3.5799999999999998E-002    -3.7621470652819700E-020
  -3.5750000000000004E-002    -2.1731942960965471E-019
  -3.5700000000000003E-002    -4.2344560895645036E-019
  -3.5650000000000001E-002    -6.5499139097000798E-019
  -3.5600000000000000E-002    -8.6065889575119683E-019
  -3.5549999999999998E-002    -8.9990548591935451E-019
  -3.5500000000000004E-002    -5.5676201473330510E-019
  -3.5450000000000002E-002     3.5904025911798293E-019
  -3.5400000000000001E-002     1.8353893520298132E-018
  -3.5349999999999999E-002     3.4835342709640662E-018
  -3.5299999999999998E-002     4.4939339028054047E-018
  -3.5250000000000004E-002     3.8396729095095257E-018
  -3.5200000000000002E-002     7.5037438629957529E-019
  -3.5150000000000001E-002    -4.6798760079513121E-018
  -3.5099999999999999E-002    -1.1041501349102632E-017
  -3.5049999999999998E-002    -1.5657974483258928E-017
  -3.5000000000000003E-002    -1.5349455724336045E-017
  -3.4950000000000002E-002    -7.8209161974448353E-018
  -3.4900000000000000E-002     6.7962432846429285E-018
  -3.4849999999999999E-002     2.4988387808897483E-017
  -3.4799999999999998E-002     4.0196993349074557E-017
  -3.4750000000000003E-002     4.4740039691417828E-017
  -3.4700000000000002E-002     3.2907090199332746E-017
  -3.4650000000000000E-002     4.1140252356597077E-018
  -3.4599999999999999E-002    -3.5339734320498990E-017
  -3.4549999999999997E-002    -7.3082838897814812E-017
  -3.4500000000000003E-002    -9.4300402833766729E-017
  -3.4450000000000001E-002    -8.7182968564897513E-017
  -3.4400000000000000E-002    -4.8181480505286900E-017
  -3.4349999999999999E-002     1.5201505480782526E-017
  -3.4299999999999997E-002     8.5595913077707675E-017
  -3.4250000000000003E-002     1.4088147733623059E-016
  -3.4200000000000001E-002     1.6149367202943172E-016
  -3.4150000000000000E-002     1.3712861891059233E-016
  -3.4099999999999998E-002     7.0236684340388039E-017
  -3.4049999999999997E-002    -2.4901103733933048E-017
  -3.4000000000000002E-002    -1.2672961156578978E-016
  -3.3950000000000001E-002    -2.1226117787839398E-016
  -3.3900000000000000E-002    -2.6159203466398480E-016
  -3.3849999999999998E-002    -2.5975043602317907E-016
  -3.3799999999999997E-002    -1.9667942676404600E-016
  -3.3750000000000002E-002    -6.7886063743429539E-017
  -3.3700000000000001E-002     1.2169422452339757E-016
  -3.3649999999999999E-002     3.5028242817395774E-016
  -3.3599999999999998E-002     5.7162085391443160E-016
  -3.3550000000000003E-002     7.1362127673591615E-016
  -3.3500000000000002E-002     6.9015011221348361E-016
  -3.3450000000000001E-002     4.2886221348313016E-016
  -3.3399999999999999E-002    -8.9764281914390977E-017
  -3.3349999999999998E-002    -7.9583677528311184E-016
  -3.3300000000000003E-002    -1.5150404590312948E-015
  -3.3250000000000002E-002    -1.9924194377452890E-015
  -3.3200000000000000E-002    -1.9610017280795179E-015
  -3.3149999999999999E-002    -1.2431042119429814E-015
  -3.3099999999999997E-002     1.4692001947824895E-016
  -3.3050000000000003E-002     1.9411880094800466E-015
  -3.3000000000000002E-002     3.6370667445235717E-015
  -3.2950000000000000E-002     4.6136529838925929E-015
  -3.2899999999999999E-002     4.3282098763808791E-015
  -3.2850000000000004E-002     2.5374727612575343E-015
  -3.2800000000000003E-002    -5.3558705449225691E-016
  -3.2750000000000001E-002    -4.1669986177708742E-015
  -3.2700000000000000E-002    -7.2729847091170935E-015
  -3.2649999999999998E-002    -8.7128199223103735E-015
  -3.2600000000000004E-002    -7.6744110838366942E-015
  -3.2550000000000003E-002    -4.0172329158254265E-015
  -3.2500000000000001E-002     1.5592284859574093E-015
  -3.2450000000000000E-002     7.6106533911477399E-015
  -3.2399999999999998E-002     1.2312789649178289E-014
  -3.2350000000000004E-002     1.4005285956334875E-014
  -3.2300000000000002E-002     1.1748366175182659E-014
  -3.2250000000000001E-002     5.7038229699567861E-015
  -3.2199999999999999E-002    -2.8038053549271153E-015
  -3.2149999999999998E-002    -1.1589857217506470E-014
  -3.2100000000000004E-002    -1.8197881349317243E-014
  -3.2050000000000002E-002    -2.0596197605956283E-014
  -3.2000000000000001E-002    -1.7766644277741559E-014
  -3.1949999999999999E-002    -1.0007285264439658E-014
  -3.1899999999999998E-002     1.1297494301626919E-015
  -3.1850000000000003E-002     1.3222491635860459E-014
  -3.1800000000000002E-002     2.3547206211185321E-014
  -3.1750000000000000E-002     2.9658664264616572E-014
  -3.1699999999999999E-002     2.9847130690856960E-014
  -3.1649999999999998E-002     2.3417132759273678E-014
  -3.1600000000000003E-002     1.0812305199054553E-014
  -3.1550000000000002E-002    -6.3558971477858366E-015
  -3.1500000000000000E-002    -2.5348635817674107E-014
  -3.1449999999999999E-002    -4.2458124358735740E-014
  -3.1399999999999997E-002    -5.3400843969444474E-014
  -3.1350000000000003E-002    -5.4061188293018363E-014
  -3.1300000000000001E-002    -4.1593794278319639E-014
  -3.1250000000000000E-002    -1.5695105285845585E-014
  -3.1199999999999999E-002     2.0359227439971921E-014
  -3.1150000000000001E-002     5.9433086343824879E-014
  -3.1100000000000003E-002     9.1448084482517131E-014
  -3.1050000000000001E-002     1.0563020298174368E-013
  -3.1000000000000000E-002     9.3725162216398741E-014
  -3.0949999999999998E-002     5.3319345699587812E-014
  -3.0900000000000000E-002    -9.9021452460960972E-015
  -3.0850000000000002E-002    -8.2053470210455374E-014
  -3.0800000000000001E-002    -1.4367214699898042E-013
  -3.0750000000000000E-002    -1.7477147912928985E-013
  -3.0699999999999998E-002    -1.6107760357785093E-013
  -3.0650000000000000E-002    -9.9535276566327033E-014
  -3.0600000000000002E-002    -1.0778301866847809E-015
  -3.0550000000000001E-002     1.1071290861005759E-013
  -3.0499999999999999E-002     2.0520536227324317E-013
  -3.0449999999999998E-002     2.5327167740403520E-013
  -3.0400000000000000E-002     2.3632034935005414E-013
  -3.0350000000000002E-002     1.5290529921512325E-013
  -3.0300000000000001E-002     2.0558412385656305E-014
  -3.0249999999999999E-002    -1.2808811351190509E-013
  -3.0200000000000001E-002    -2.5398013964346874E-013
  -3.0150000000000000E-002    -3.2257970111294491E-013
  -3.0100000000000002E-002    -3.1370056545483964E-013
  -3.0050000000000000E-002    -2.2719324102749836E-013
  -2.9999999999999999E-002    -8.2796846343944198E-014
  -2.9950000000000001E-002     8.5592265311869262E-014
  -2.9899999999999999E-002     2.3919170161474439E-013
  -2.9850000000000002E-002     3.4410430710818351E-013
  -2.9800000000000000E-002     3.7869473652903545E-013
  -2.9749999999999999E-002     3.3685161311932533E-013
  -2.9700000000000001E-002     2.2709059127246909E-013
  -2.9650000000000003E-002     6.8903826672059074E-014
  -2.9600000000000001E-002    -1.1162083874631782E-013
  -2.9550000000000000E-002    -2.8532601893162742E-013
  -2.9499999999999998E-002    -4.2227940381352987E-013
  -2.9450000000000000E-002    -4.9376475823613136E-013
  -2.9400000000000003E-002    -4.7553832821422176E-013
  -2.9350000000000001E-002    -3.5341441842104675E-013
  -2.9300000000000000E-002    -1.3066788575495428E-013
  -2.9249999999999998E-002     1.6522588266743276E-013
  -2.9200000000000000E-002     4.8032958683811879E-013
  -2.9150000000000002E-002     7.4004271189474098E-013
  -2.9100000000000001E-002     8.6437039408191966E-013
  -2.9049999999999999E-002     7.9045029869020090E-013
  -2.8999999999999998E-002     4.9633867592786797E-013
  -2.8950000000000000E-002     1.7745953209827342E-014
  -2.8900000000000002E-002    -5.5007346117646233E-013
  -2.8850000000000001E-002    -1.0693335992515519E-012
  -2.8799999999999999E-002    -1.3936002794603043E-012
  -2.8749999999999998E-002    -1.4100630815415300E-012
  -2.8700000000000000E-002    -1.0773526771257621E-012
  -2.8650000000000002E-002    -4.4576522851881537E-013
  -2.8600000000000000E-002     3.4880854851607486E-013
  -2.8549999999999999E-002     1.1178837797468473E-012
  -2.8500000000000001E-002     1.6718267120321878E-012
  -2.8450000000000000E-002     1.8743455304517203E-012
  -2.8400000000000002E-002     1.6826095755795444E-012
  -2.8350000000000000E-002     1.1595239593539136E-012
  -2.8299999999999999E-002     4.5353316988515161E-013
  -2.8250000000000001E-002    -2.4789469733231521E-013
  -2.8200000000000003E-002    -7.7602986708080678E-013
  -2.8150000000000001E-002    -1.0310153019795106E-012
  -2.8100000000000000E-002    -1.0082651745976616E-012
  -2.8049999999999999E-002    -7.9338628162837231E-013
  -2.8000000000000001E-002    -5.2878997444925139E-013
  -2.7950000000000003E-002    -3.6458468136459887E-013
  -2.7900000000000001E-002    -4.1084774670316890E-013
  -2.7850000000000000E-002    -7.0645176255407925E-013
  -2.7799999999999998E-002    -1.2122964925420887E-012
  -2.7750000000000000E-002    -1.8272033342656499E-012
  -2.7700000000000002E-002    -2.4168421698011974E-012
  -2.7650000000000001E-002    -2.8430237375459880E-012
  -2.7600000000000000E-002    -2.9835328692333963E-012
  -2.7549999999999998E-002    -2.7397777679726211E-012
  -2.7500000000000000E-002    -2.0373647728072081E-012
  -2.7450000000000002E-002    -8.2932578686929261E-013
  -2.7400000000000001E-002     8.8943696236657780E-013
  -2.7349999999999999E-002     3.0547998591578985E-012
  -2.7299999999999998E-002     5.5011608338878659E-012
  -2.7250000000000000E-002     7.9402003252994174E-012
  -2.7200000000000002E-002     9.9683754611604224E-012
  -2.7150000000000001E-002     1.1114446887093654E-011
  -2.7099999999999999E-002     1.0925094723389456E-011
  -2.7049999999999998E-002     9.0712599240204584E-012
  -2.7000000000000000E-002     5.4464293603170440E-012
  -2.6950000000000002E-002     2.2610117296780539E-013
  -2.6900000000000000E-002    -6.1329479124768414E-012
  -2.6849999999999999E-002    -1.2956485721979121E-011
  -2.6800000000000001E-002    -1.9461374958222421E-011
  -2.6749999999999999E-002    -2.4874353503719921E-011
  -2.6700000000000002E-002    -2.8522062392483808E-011
  -2.6650000000000000E-002    -2.9862994864278058E-011
  -2.6599999999999999E-002    -2.8453017686138091E-011
  -2.6550000000000001E-002    -2.3861011756295122E-011
  -2.6500000000000003E-002    -1.5571088711199753E-011
  -2.6450000000000001E-002    -2.9149797704997942E-012
  -2.6400000000000000E-002     1.4930459659803618E-011
  -2.6349999999999998E-002     3.8867226512290194E-011
  -2.6300000000000000E-002     6.9735458048852561E-011
  -2.6250000000000002E-002     1.0814481736146855E-010
  -2.6200000000000001E-002     1.5432570954457621E-010
  -2.6150000000000000E-002     2.0804296281853386E-010
  -2.6099999999999998E-002     2.6859601216610183E-010
  -2.6050000000000000E-002     3.3490378831694650E-010
  -2.6000000000000002E-002     4.0564930750518379E-010
  -2.5950000000000001E-002     4.7944533145387086E-010
  -2.5899999999999999E-002     5.5498266741811628E-010
  -2.5849999999999998E-002     6.3113513436983395E-010
  -2.5800000000000000E-002     7.0701316743486296E-010
  -2.5750000000000002E-002     7.8197729391492315E-010
  -2.5700000000000001E-002     8.5562929693742733E-010
  -2.5649999999999999E-002     9.2780070956722924E-010
  -2.5599999999999998E-002     9.9854647908500782E-010
  -2.5550000000000000E-002     1.0681406635784804E-009
  -2.5500000000000002E-002     1.1370578942214076E-009
  -2.5450000000000000E-002     1.2059290983838641E-009
  -2.5399999999999999E-002     1.2754616799777742E-009
  -2.5349999999999998E-002     1.3463344748714024E-009
  -2.5300000000000000E-002     1.4190890133040330E-009
  -2.5250000000000002E-002     1.4940478100816400E-009
  -2.5200000000000000E-002     1.5712858154345198E-009
  -2.5149999999999999E-002     1.6506653981039978E-009
  -2.5100000000000001E-002     1.7319238352382379E-009
  -2.5049999999999999E-002     1.8147834813084339E-009
  -2.5000000000000001E-002     1.8990456714642477E-009
  -2.4950000000000000E-002     1.9846325802576183E-009
  -2.4899999999999999E-002     2.0715648641148062E-009
  -2.4850000000000001E-002     2.1598845625038710E-009
  -2.4800000000000003E-002     2.2495596550139529E-009
  -2.4750000000000001E-002     2.3404146324050569E-009
  -2.4700000000000000E-002     2.4321284680050740E-009
  -2.4649999999999998E-002     2.5243108433772419E-009
  -2.4600000000000000E-002     2.6166462511931159E-009
  -2.4550000000000002E-002     2.7090598368362032E-009
  -2.4500000000000001E-002     2.8018510449333311E-009
  -2.4450000000000000E-002     2.8957462595228040E-009
  -2.4399999999999998E-002     2.9918430909208201E-009
  -2.4350000000000000E-002     3.0914528742008709E-009
  -2.4299999999999999E-002     3.1958810550510178E-009
  -2.4250000000000001E-002     3.3061966523656714E-009
  -2.4199999999999999E-002     3.4230478360298916E-009
  -2.4150000000000001E-002     3.5465605443176480E-009
  -2.4100000000000000E-002     3.6763384913687170E-009
  -2.4049999999999998E-002     3.8115497439492831E-009
  -2.4000000000000000E-002     3.9510795111862254E-009
  -2.3949999999999999E-002     4.0937099638813326E-009
  -2.3900000000000001E-002     4.2382998062242893E-009
  -2.3850000000000000E-002     4.3839355751979876E-009
  -2.3800000000000002E-002     4.5300380458127873E-009
  -2.3750000000000000E-002     4.6764232738661724E-009
  -2.3699999999999999E-002     4.8233041293941738E-009
  -2.3650000000000001E-002     4.9712498970933119E-009
  -2.3599999999999999E-002     5.1211117868459002E-009
  -2.3550000000000001E-002     5.2739327763146856E-009
  -2.3500000000000000E-002     5.4308527795635478E-009
  -2.3449999999999999E-002     5.5930240673335261E-009
  -2.3400000000000001E-002     5.7615377022417542E-009
  -2.3349999999999999E-002     5.9373611056900619E-009
  -2.3300000000000001E-002     6.1212704032515643E-009
  -2.3250000000000000E-002     6.3137890863204056E-009
  -2.3199999999999998E-002     6.5151312338336611E-009
  -2.3150000000000000E-002     6.7251751087883500E-009
  -2.3099999999999999E-002     6.9434776005510046E-009
  -2.3050000000000001E-002     7.1693415274673305E-009
  -2.3000000000000000E-002     7.4019223165664970E-009
  -2.2950000000000002E-002     7.6403481419717607E-009
  -2.2900000000000000E-002     7.8838146034502399E-009
  -2.2849999999999999E-002     8.1316421902626198E-009
  -2.2800000000000001E-002     8.3832765554259038E-009
  -2.2749999999999999E-002     8.6382889856555753E-009
  -2.2700000000000001E-002     8.8963931527652758E-009
  -2.2650000000000000E-002     9.1575347681459998E-009
  -2.2599999999999999E-002     9.4220257887458139E-009
  -2.2550000000000001E-002     9.6907027833291361E-009
  -2.2499999999999999E-002     9.9650093407562226E-009
  -2.2450000000000001E-002     1.0246945951854434E-008
  -2.2400000000000000E-002     1.0538844151097225E-008
  -2.2349999999999998E-002     1.0842997326027222E-008
  -2.2300000000000000E-002     1.1161251252466801E-008
  -2.2249999999999999E-002     1.1494678583670234E-008
  -2.2200000000000001E-002     1.1843438649111849E-008
  -2.2150000000000000E-002     1.2206855614364440E-008
  -2.2100000000000002E-002     1.2583682845715229E-008
  -2.2050000000000000E-002     1.2972430014046169E-008
  -2.1999999999999999E-002     1.3371642949670678E-008
  -2.1950000000000001E-002     1.3780060894693639E-008
  -2.1899999999999999E-002     1.4196642567380323E-008
  -2.1850000000000001E-002     1.4620533582180209E-008
  -2.1800000000000000E-002     1.5051071409762898E-008
  -2.1749999999999999E-002     1.5487887114493284E-008
  -2.1700000000000001E-002     1.5931094289167151E-008
  -2.1649999999999999E-002     1.6381486663269059E-008
  -2.1600000000000001E-002     1.6840613986047833E-008
  -2.1550000000000000E-002     1.7310666416590432E-008
  -2.1499999999999998E-002     1.7794153107520942E-008
  -2.1450000000000000E-002     1.8293485455803003E-008
  -2.1399999999999999E-002     1.8810594118030721E-008
  -2.1350000000000001E-002     1.9346737285101096E-008
  -2.1299999999999999E-002     1.9902528076720130E-008
  -2.1250000000000002E-002     2.0478149421650441E-008
  -2.1200000000000000E-002     2.1073592500044123E-008
  -2.1149999999999999E-002     2.1688791662717403E-008
  -2.1100000000000001E-002     2.2323559909064429E-008
  -2.1049999999999999E-002     2.2977391011673550E-008
  -2.1000000000000001E-002     2.3649257905515369E-008
  -2.0950000000000000E-002     2.4337576969452888E-008
  -2.0899999999999998E-002     2.5040440636505419E-008
  -2.0850000000000000E-002     2.5756088943124531E-008
  -2.0799999999999999E-002     2.6483453555823045E-008
  -2.0750000000000001E-002     2.7222567639543150E-008
  -2.0700000000000000E-002     2.7974670554631014E-008
  -2.0649999999999998E-002     2.8741978903177325E-008
  -2.0600000000000000E-002     2.9527227492706605E-008
  -2.0549999999999999E-002     3.0333175789098968E-008
  -2.0500000000000001E-002     3.1162300156449600E-008
  -2.0449999999999999E-002     3.2016716464240081E-008
  -2.0400000000000001E-002     3.2898266144406968E-008
  -2.0350000000000000E-002     3.3808626592002876E-008
  -2.0299999999999999E-002     3.4749272122099194E-008
  -2.0250000000000001E-002     3.5721230505963550E-008
  -2.0199999999999999E-002     3.6724734956046856E-008
  -2.0150000000000001E-002     3.7758972745129277E-008
  -2.0100000000000000E-002     3.8822147143427684E-008
  -2.0049999999999998E-002     3.9911906262795066E-008
  -2.0000000000000000E-002     4.1026066127976892E-008
  -1.9949999999999999E-002     4.2163315609699063E-008
  -1.9900000000000001E-002     4.3323626958312799E-008
  -1.9850000000000000E-002     4.4508233385724261E-008
  -1.9799999999999998E-002     4.5719136172208784E-008
  -1.9750000000000000E-002     4.6958465773423781E-008
  -1.9699999999999999E-002     4.8227956449681731E-008
  -1.9650000000000001E-002     4.9528809261116853E-008
  -1.9599999999999999E-002     5.0861967258766688E-008
  -1.9550000000000001E-002     5.2228616358284237E-008
  -1.9500000000000000E-002     5.3630581954139821E-008
  -1.9449999999999999E-002     5.5070370937768700E-008
  -1.9400000000000001E-002     5.6550761628536432E-008
  -1.9349999999999999E-002     5.8074083181031267E-008
  -1.9300000000000001E-002     5.9641565900409783E-008
  -1.9250000000000000E-002     6.1253074555251289E-008
  -1.9199999999999998E-002     6.2907265200168434E-008
  -1.9150000000000000E-002     6.4602269684503453E-008
  -1.9099999999999999E-002     6.6336436801502940E-008
  -1.9050000000000001E-002     6.8108832296605399E-008
  -1.9000000000000000E-002     6.9919363293960427E-008
  -1.8949999999999998E-002     7.1768527674449617E-008
  -1.8900000000000000E-002     7.3656974371469125E-008
  -1.8849999999999999E-002     7.5585337842216152E-008
  -1.8800000000000001E-002     7.7554411159959025E-008
  -1.8749999999999999E-002     7.9565625703379682E-008
  -1.8700000000000001E-002     8.1621576444908130E-008
  -1.8650000000000000E-002     8.3726203953016621E-008
  -1.8599999999999998E-002     8.5884503601787860E-008
  -1.8550000000000001E-002     8.8101672655916114E-008
  -1.8499999999999999E-002     9.0382090069479549E-008
  -1.8450000000000001E-002     9.2728544963269303E-008
  -1.8400000000000000E-002     9.5142026269216923E-008
  -1.8349999999999998E-002     9.7622103860145152E-008
  -1.8300000000000000E-002     1.0016771658576267E-007
  -1.8249999999999999E-002     1.0277797066367004E-007
  -1.8200000000000001E-002     1.0545253998891942E-007
  -1.8149999999999999E-002     1.0819155071340882E-007
  -1.8100000000000002E-002     1.1099523661255357E-007
  -1.8050000000000000E-002     1.1386356956600240E-007
  -1.7999999999999999E-002     1.1679625262473725E-007
  -1.7950000000000001E-002     1.1979318799596274E-007
  -1.7899999999999999E-002     1.2285505515622595E-007
  -1.7850000000000001E-002     1.2598386694764690E-007
  -1.7800000000000000E-002     1.2918288811190570E-007
  -1.7749999999999998E-002     1.3245597025098823E-007
  -1.7700000000000000E-002     1.3580665674176829E-007
  -1.7649999999999999E-002     1.3923719656361288E-007
  -1.7600000000000001E-002     1.4274839276845258E-007
  -1.7550000000000000E-002     1.4634000035152299E-007
  -1.7499999999999998E-002     1.5001176541842295E-007
  -1.7450000000000000E-002     1.5376434824252689E-007
  -1.7399999999999999E-002     1.5759977971175451E-007
  -1.7350000000000001E-002     1.6152104693747874E-007
  -1.7299999999999999E-002     1.6553098342814937E-007
  -1.7250000000000001E-002     1.6963123072355530E-007
  -1.7200000000000000E-002     1.7382161022131001E-007
  -1.7149999999999999E-002     1.7810052549116030E-007
  -1.7100000000000001E-002     1.8246618091552306E-007
  -1.7049999999999999E-002     1.8691814888085594E-007
  -1.7000000000000001E-002     1.9145836368210106E-007
  -1.6950000000000000E-002     1.9609134793323813E-007
  -1.6899999999999998E-002     2.0082329878925137E-007
  -1.6850000000000000E-002     2.0566067862879417E-007
  -1.6799999999999999E-002     2.1060914793875135E-007
  -1.6750000000000001E-002     2.1567312829555612E-007
  -1.6700000000000000E-002     2.2085651689112980E-007
  -1.6649999999999998E-002     2.2616373546338388E-007
  -1.6600000000000000E-002     2.3160058644931341E-007
  -1.6549999999999999E-002     2.3717424456541574E-007
  -1.6500000000000001E-002     2.4289200059377769E-007
  -1.6449999999999999E-002     2.4875946493212257E-007
  -1.6400000000000001E-002     2.5477906800769081E-007
  -1.6350000000000000E-002     2.6094964255391576E-007
  -1.6299999999999999E-002     2.6726728145718949E-007
  -1.6250000000000001E-002     2.7372760652063685E-007
  -1.6199999999999999E-002     2.8032810757434465E-007
  -1.6150000000000001E-002     2.8706941368705127E-007
  -1.6100000000000000E-002     2.9395517034074359E-007
  -1.6049999999999998E-002     3.0099038330317523E-007
  -1.6000000000000000E-002     3.0817925468192404E-007
  -1.5949999999999999E-002     3.1552343180590268E-007
  -1.5900000000000001E-002     3.2302181971246993E-007
  -1.5850000000000000E-002     3.3067175740179813E-007
  -1.5799999999999998E-002     3.3847098161614225E-007
  -1.5750000000000000E-002     3.4641938670018845E-007
  -1.5699999999999999E-002     3.5451944496253586E-007
  -1.5650000000000001E-002     3.6277519469332125E-007
  -1.5599999999999999E-002     3.7119017233116513E-007
  -1.5550000000000001E-002     3.7976541623320279E-007
  -1.5500000000000000E-002     3.8849872328028589E-007
  -1.5449999999999998E-002     3.9738547669408880E-007
  -1.5400000000000000E-002     4.0642068564461209E-007
  -1.5349999999999999E-002     4.1560154693386789E-007
  -1.5300000000000001E-002     4.2492864270911775E-007
  -1.5250000000000000E-002     4.3440586585908561E-007
  -1.5199999999999998E-002     4.4403890440012237E-007
  -1.5150000000000000E-002     4.5383298232757062E-007
  -1.5099999999999999E-002     4.6379140556266447E-007
  -1.5050000000000001E-002     4.7391538268460753E-007
  -1.4999999999999999E-002     4.8420538762398282E-007
  -1.4949999999999998E-002     4.9466352038533363E-007
  -1.4900000000000000E-002     5.0529521439785419E-007
  -1.4849999999999999E-002     5.1610995903349946E-007
  -1.4800000000000001E-002     5.2712007464135225E-007
  -1.4749999999999999E-002     5.3833882406310587E-007
  -1.4700000000000001E-002     5.4977780045866999E-007
  -1.4650000000000000E-002     5.6144570232500931E-007
  -1.4599999999999998E-002     5.7334834472003657E-007
  -1.4550000000000000E-002     5.8548958881320994E-007
  -1.4499999999999999E-002     5.9787344329655909E-007
  -1.4450000000000001E-002     6.1050488076002947E-007
  -1.4400000000000000E-002     6.2339011162808918E-007
  -1.4349999999999998E-002     6.3653598232504661E-007
  -1.4300000000000000E-002     6.4994885032894152E-007
  -1.4249999999999999E-002     6.6363380200575421E-007
  -1.4200000000000001E-002     6.7759477764648137E-007
  -1.4149999999999999E-002     6.9183515313131237E-007
  -1.4099999999999998E-002     7.0635844360177503E-007
  -1.4050000000000000E-002     7.2116922504976280E-007
  -1.3999999999999999E-002     7.3627270895355564E-007
  -1.3950000000000001E-002     7.5167461095492181E-007
  -1.3899999999999999E-002     7.6738031743066736E-007
  -1.3850000000000001E-002     7.8339461216387645E-007
  -1.3800000000000000E-002     7.9972211776460141E-007
  -1.3749999999999998E-002     8.1636746839235855E-007
  -1.3700000000000000E-002     8.3333564388841754E-007
  -1.3649999999999999E-002     8.5063198964501099E-007
  -1.3600000000000001E-002     8.6826124249000732E-007
  -1.3550000000000000E-002     8.8622661751132158E-007
  -1.3499999999999998E-002     9.0452948627369519E-007
  -1.3450000000000000E-002     9.2316968914929396E-007
  -1.3399999999999999E-002     9.4214687045050742E-007
  -1.3350000000000001E-002     9.6146213069065233E-007
  -1.3299999999999999E-002     9.8111899349609300E-007
  -1.3249999999999998E-002     1.0011226084865426E-006
  -1.3200000000000000E-002     1.0214787132743043E-006
  -1.3149999999999998E-002     1.0421913292857870E-006
  -1.3100000000000001E-002     1.0632620179919429E-006
  -1.3049999999999999E-002     1.0846899239374528E-006
  -1.3000000000000001E-002     1.1064744302071482E-006
  -1.2950000000000000E-002     1.1286175164295629E-006
  -1.2899999999999998E-002     1.1511262922458284E-006
  -1.2850000000000000E-002     1.1740132229869725E-006
  -1.2799999999999999E-002     1.1972935194563615E-006