  -4.0000000000000001E-002     0.0000000000000000     
  -3.9949999999999999E-002     0.0000000000000000     
  -3.9899999999999998E-002     0.0000000000000000     
  -3.9850000000000003E-002     0.0000000000000000     
  -3.9800000000000002E-002     0.0000000000000000     
  -3.9750000000000001E-002     0.0000000000000000     
  -3.9699999999999999E-002     0.0000000000000000     
  -3.9649999999999998E-002     0.0000000000000000     
  -3.9600000000000003E-002     0.0000000000000000     
  -3.9550000000000002E-002     0.0000000000000000     
  -3.9500000000000000E-002     0.0000000000000000     
  -3.9449999999999999E-002     0.0000000000000000     
  -3.9399999999999998E-002     0.0000000000000000     
  -3.9350000000000003E-002     0.0000000000000000     
  -3.9300000000000002E-002     0.0000000000000000     
  -3.9250000000000000E-002     0.0000000000000000     
  -3.9199999999999999E-002     0.0000000000000000     
  -3.9150000000000004E-002     0.0000000000000000     
  -3.9100000000000003E-002     0.0000000000000000     
  -3.9050000000000001E-002     0.0000000000000000     
  -3.9000000000000000E-002     0.0000000000000000     
  -3.8949999999999999E-002     0.0000000000000000     
  -3.8900000000000004E-002     0.0000000000000000     
  -3.8850000000000003E-002     0.0000000000000000     
  -3.8800000000000001E-002     0.0000000000000000     
  -3.8750000000000000E-002     0.0000000000000000     
  -3.8699999999999998E-002     0.0000000000000000     
  -3.8650000000000004E-002     0.0000000000000000     
  -3.8600000000000002E-002     0.0000000000000000     
  -3.8550000000000001E-002     0.0000000000000000     
  -3.8500000000000000E-002     0.0000000000000000     
  -3.8449999999999998E-002     0.0000000000000000     
  -3.8400000000000004E-002     0.0000000000000000     
  -3.8350000000000002E-002     0.0000000000000000     
  -3.8300000000000001E-002     0.0000000000000000     
  -3.8249999999999999E-002     0.0000000000000000     
  -3.8199999999999998E-002     0.0000000000000000     
  -3.8150000000000003E-002     0.0000000000000000     
  -3.8100000000000002E-002     0.0000000000000000     
  -3.8050000000000000E-002     0.0000000000000000     
  -3.7999999999999999E-002     0.0000000000000000     
  -3.7949999999999998E-002     0.0000000000000000     
  -3.7900000000000003E-002     0.0000000000000000     
  -3.7850000000000002E-002     0.0000000000000000     
  -3.7800000000000000E-002     0.0000000000000000     
  -3.7749999999999999E-002     0.0000000000000000     
  -3.7699999999999997E-002     0.0000000000000000     
  -3.7650000000000003E-002     0.0000000000000000     
  -3.7600000000000001E-002     0.0000000000000000     
  -3.7550000000000000E-002     0.0000000000000000     
  -3.7499999999999999E-002     0.0000000000000000     
  -3.7449999999999997E-002     0.0000000000000000     
  -3.7400000000000003E-002     0.0000000000000000     
  -3.7350000000000001E-002     0.0000000000000000     
  -3.7300000000000000E-002     0.0000000000000000     
  -3.7249999999999998E-002    -1.1729228935616238E-039
  -3.7200000000000004E-002    -3.0937717833777666E-039
  -3.7150000000000002E-002    -3.7973263869376360E-039
  -3.7100000000000001E-002     7.6294251050936212E-040
  -3.7050000000000000E-002     1.8258235443265166E-038
  -3.6999999999999998E-002     5.0932388099838801E-038
  -3.6950000000000004E-002     8.5539674570394120E-038
  -3.6900000000000002E-002     9.0976474676129266E-038
  -3.6850000000000001E-002     6.0870448083651541E-038
  -3.6799999999999999E-002    -1.3072221290211745E-037
  -3.6749999999999998E-002    -5.1115906110970954E-037
  -3.6700000000000003E-002    -1.0348187155073511E-036
  -3.6650000000000002E-002    -1.4558254115740156E-036
  -3.6600000000000001E-002    -1.2759660726901178E-036
  -3.6549999999999999E-002     2.0781482043361938E-037
  -3.6499999999999998E-002     3.5903661194274953E-036
  -3.6450000000000003E-002     8.7196634674262628E-036
  -3.6400000000000002E-002     1.3859233329848196E-035
  -3.6350000000000000E-002     1.5105586845749957E-035
  -3.6299999999999999E-002     6.8439187357502763E-036
  -3.6249999999999998E-002    -1.5935978335986064E-035
  -3.6200000000000003E-002    -5.3231699600589074E-035
  -3.6150000000000002E-002    -9.4729788080479549E-035
  -3.6100000000000000E-002    -1.1679283990178018E-034
  -3.6049999999999999E-002    -8.6317746784726822E-035
  -3.6000000000000004E-002     2.4898765244065025E-035
  -3.5950000000000003E-002     2.1655102103224274E-034
  -3.5900000000000001E-002     4.3677066651459578E-034
  -3.5850000000000000E-002     5.7769712742219398E-034
  -3.5799999999999998E-002     5.0824114429788038E-034
  -3.5750000000000004E-002     1.4766316900899463E-034
  -3.5700000000000003E-002    -4.4765924944021958E-034
  -3.5650000000000001E-002    -1.0461424668613169E-033
  -3.5600000000000000E-002    -1.3223201371620273E-033
  -3.5549999999999998E-002    -1.0808170111214557E-033
  -3.5500000000000004E-002    -5.3505018946524336E-034
  -3.5450000000000002E-002    -4.2232520261885369E-034
  -3.5400000000000001E-002    -1.6888417506783455E-033
  -3.5349999999999999E-002    -4.6289061194381799E-033
  -3.5299999999999998E-002    -7.7535861475533946E-033
  -3.5250000000000004E-002    -7.1618521904506100E-033
  -3.5200000000000002E-002     2.5431259125319832E-033
  -3.5150000000000001E-002     2.5120966453022656E-032
  -3.5099999999999999E-002     5.7891255577485002E-032
  -3.5049999999999998E-002     8.7552882716007150E-032
  -3.5000000000000003E-002     9.0219615799418500E-032
  -3.4950000000000002E-002     3.8825737236936157E-032
  -3.4900000000000000E-002    -8.1959660144251449E-032
  -3.4849999999999999E-002    -2.5818313978660786E-031
  -3.4799999999999998E-002    -4.3587822935646615E-031
  -3.4750000000000003E-002    -5.2723939374262097E-031
  -3.4700000000000002E-002    -4.3789796634007657E-031
  -3.4650000000000000E-002    -1.0807577807418174E-031
  -3.4599999999999999E-002     4.5081125024116563E-031
  -3.4549999999999997E-002     1.1448035678606626E-030
  -3.4500000000000003E-002     1.8191739837586328E-030
  -3.4450000000000001E-002     2.2964081252364877E-030
  -3.4400000000000000E-002     2.3926724567900501E-030
  -3.4349999999999999E-002     1.8817149052224782E-030
  -3.4299999999999997E-002     4.2472280818552323E-031
  -3.4250000000000003E-002    -2.4358142870726176E-030
  -3.4200000000000001E-002    -7.0632128201307185E-030
  -3.4150000000000000E-002    -1.3183639283386152E-029
  -3.4099999999999998E-002    -1.9104895120104214E-029
  -3.4049999999999997E-002    -2.1121929467129352E-029
  -3.4000000000000002E-002    -1.3835749103870397E-029
  -3.3950000000000001E-002     7.8907294120126064E-030
  -3.3900000000000000E-002     4.5184626030412831E-029
  -3.3849999999999998E-002     9.0640968243647896E-029
  -3.3799999999999997E-002     1.2545235059664315E-028
  -3.3750000000000002E-002     1.2144445353582663E-028
  -3.3700000000000001E-002     5.0530944729704145E-029
  -3.3649999999999999E-002    -9.8815744506745163E-029
  -3.3599999999999998E-002    -3.0313925999040560E-028
  -3.3550000000000003E-002    -4.9323624405925350E-028
  -3.3500000000000002E-002    -5.6221352003135911E-028
  -3.3450000000000001E-002    -3.9931099388834389E-028
  -3.3399999999999999E-002     5.4277653327596709E-029
  -3.3349999999999998E-002     7.4577257563370595E-028
  -3.3300000000000003E-002     1.4772061011275713E-027
  -3.3250000000000002E-002     1.9284901846936508E-027
  -3.3200000000000000E-002     1.7521458656594411E-027
  -3.3149999999999999E-002     7.2394415497272848E-028
  -3.3099999999999997E-002    -1.1014807456611232E-027
  -3.3050000000000003E-002    -3.3030488216384173E-027
  -3.3000000000000002E-002    -5.1386385893106103E-027
  -3.2950000000000000E-002    -5.7441752736381845E-027
  -3.2899999999999999E-002    -4.4391321713455971E-027
  -3.2850000000000004E-002    -1.0299724375537059E-027
  -3.2800000000000003E-002     4.0154253944483117E-027
  -3.2750000000000001E-002     9.6040075739859155E-027
  -3.2700000000000000E-002     1.4249835856834325E-026
  -3.2649999999999998E-002     1.6390996576556745E-026
  -3.2600000000000004E-002     1.4650031623579113E-026
  -3.2550000000000003E-002     7.9774375771316961E-027
  -3.2500000000000001E-002    -4.2160938533947692E-027
  -3.2450000000000000E-002    -2.1689601139812770E-026
  -3.2399999999999998E-002    -4.2548558787905154E-026
  -3.2350000000000004E-002    -6.2071466046621627E-026
  -3.2300000000000002E-002    -7.1842514595331610E-026
  -3.2250000000000001E-002    -6.0362336505526200E-026
  -3.2199999999999999E-002    -1.6349619459601163E-026
  -3.2149999999999998E-002     6.4887088969181396E-026
  -3.2100000000000004E-002     1.7339845859203828E-025
  -3.2050000000000002E-002     2.7843950362123312E-025
  -3.2000000000000001E-002     3.2925603146441459E-025
  -3.1949999999999999E-002     2.6724467190569384E-025
  -3.1899999999999998E-002     5.0308743127547178E-026
  -3.1850000000000003E-002    -3.1603264071264351E-025
  -3.1800000000000002E-002    -7.5307558543802021E-025
  -3.1750000000000000E-002    -1.1051515623312177E-024
  -3.1699999999999999E-002    -1.1712828257048720E-024
  -3.1649999999999998E-002    -7.7491650577932265E-025
  -3.1600000000000003E-002     1.4329396619092679E-025
  -3.1550000000000002E-002     1.4429581264686240E-024
  -3.1500000000000000E-002     2.7548732684283447E-024
  -3.1449999999999999E-002     3.5417004918874111E-024
  -3.1399999999999997E-002     3.2576686298166114E-024
  -3.1350000000000003E-002     1.5748646648656709E-024
  -3.1300000000000001E-002    -1.3981148331415219E-024
  -3.1250000000000000E-002    -5.0015979962274096E-024
  -3.1199999999999999E-002    -8.0967792485253778E-024
  -3.1150000000000001E-002    -9.3518323175137407E-024
  -3.1100000000000003E-002    -7.6878262442215096E-024
  -3.1050000000000001E-002    -2.7505335003593160E-024
  -3.1000000000000000E-002     4.7668832515966163E-024
  -3.0949999999999998E-002     1.3101889551800836E-023
  -3.0900000000000000E-002     1.9763535390427373E-023
  -3.0850000000000002E-002     2.2172602649685060E-023
  -3.0800000000000001E-002     1.8424896412818183E-023
  -3.0750000000000000E-002     7.9535345587741214E-024
  -3.0699999999999998E-002    -8.0953543745372006E-024
  -3.0650000000000000E-002    -2.6854068815318203E-023
  -3.0600000000000002E-002    -4.4060416204786175E-023
  -3.0550000000000001E-002    -5.4636111648905742E-023
  -3.0499999999999999E-002    -5.3471754529183674E-023
  -3.0449999999999998E-002    -3.6467188393762031E-023
  -3.0400000000000000E-002    -1.9220587830985933E-024
  -3.0350000000000002E-002     4.7751355458990655E-023
  -3.0300000000000001E-002     1.0436370884762187E-022
  -3.0249999999999999E-002     1.5317311793115385E-022
  -3.0200000000000001E-002     1.7417344388824625E-022
  -3.0150000000000000E-002     1.4647497537406005E-022
  -3.0100000000000002E-002     5.5918210065438141E-023
  -3.0050000000000000E-002    -9.5528943002961517E-023
  -2.9999999999999999E-002    -2.8185892729436623E-022
  -2.9950000000000001E-002    -4.5105403403829738E-022
  -2.9899999999999999E-002    -5.3311196508557488E-022
  -2.9850000000000002E-002    -4.5953528241929291E-022
  -2.9800000000000000E-002    -1.9123020585169467E-022
  -2.9749999999999999E-002     2.5338063421839157E-022
  -2.9700000000000001E-002     7.8181922724850200E-022
  -2.9650000000000003E-002     1.2341361074816828E-021
  -2.9600000000000001E-002     1.4187572885139392E-021
  -2.9550000000000000E-002     1.1737071110888495E-021
  -2.9499999999999998E-002     4.3751285820428512E-022
  -2.9450000000000000E-002    -6.9493213595265780E-022
  -2.9400000000000003E-002    -1.9578576705403059E-021
  -2.9350000000000001E-002    -2.9590573457827669E-021
  -2.9300000000000000E-002    -3.2827820514305285E-021
  -2.9249999999999998E-002    -2.6281275331805339E-021
  -2.9200000000000000E-002    -9.4122314647787343E-022
  -2.9150000000000002E-002     1.5071840098294434E-021
  -2.9100000000000001E-002     4.1368929914861228E-021
  -2.9049999999999999E-002     6.1781191739711773E-021
  -2.8999999999999998E-002     6.8735945766024936E-021
  -2.8950000000000000E-002     5.7098253420574064E-021
  -2.8900000000000002E-002     2.6094234804176285E-021
  -2.8850000000000001E-002    -1.9763139648941864E-021
  -2.8799999999999999E-002    -7.1078347774943994E-021
  -2.8749999999999998E-002    -1.1526568961427257E-020
  -2.8700000000000000E-002    -1.3915350848175908E-020
  -2.8650000000000002E-002    -1.3194965954774618E-020
  -2.8600000000000000E-002    -8.8030890276001655E-021
  -2.8549999999999999E-002    -9.1496432719846077E-022
  -2.8500000000000001E-002     9.4236897359663060E-021
  -2.8450000000000000E-002     2.0283229604428477E-020
  -2.8400000000000002E-002     2.9002879801191256E-020
  -2.8350000000000000E-002     3.2568943041955953E-020
  -2.8299999999999999E-002     2.8259858512722983E-020
  -2.8250000000000001E-002     1.4528468300760126E-020
  -2.8200000000000003E-002    -8.0339566808698186E-021
  -2.8150000000000001E-002    -3.5953917142951338E-020
  -2.8100000000000000E-002    -6.2751982078319412E-020
  -2.8049999999999999E-002    -7.9807372150956775E-020
  -2.8000000000000001E-002    -7.8361209422585370E-020
  -2.7950000000000003E-002    -5.2415157790466210E-020
  -2.7900000000000001E-002    -1.8115946962953113E-021
  -2.7850000000000000E-002     6.5588338922936103E-020
  -2.7799999999999998E-002     1.3378168714235221E-019
  -2.7750000000000000E-002     1.8133372006004365E-019
  -2.7700000000000002E-002     1.8688422979975467E-019
  -2.7650000000000001E-002     1.3634501307716022E-019
  -2.7600000000000000E-002     2.9718481749620860E-020
  -2.7549999999999998E-002    -1.1498692151538219E-019
  -2.7500000000000000E-002    -2.6289071821629430E-019
  -2.7450000000000002E-002    -3.6929949963870159E-019
  -2.7400000000000001E-002    -3.9167775708529720E-019
  -2.7349999999999999E-002    -3.0358124667387890E-019
  -2.7299999999999998E-002    -1.0633647696921190E-019
  -2.7250000000000000E-002     1.6576919440683067E-019
  -2.7200000000000002E-002     4.4957297421328620E-019
  -2.7150000000000001E-002     6.6657115317827063E-019
  -2.7099999999999999E-002     7.4307694181275024E-019
  -2.7049999999999998E-002     6.3178453106312670E-019
  -2.7000000000000000E-002     3.2861755556587290E-019
  -2.6950000000000002E-002    -1.2029220559605885E-019
  -2.6900000000000000E-002    -6.2407283674317791E-019
  -2.6849999999999999E-002    -1.0642775915267661E-018
  -2.6800000000000001E-002    -1.3200076733645161E-018
  -2.6749999999999999E-002    -1.2955281494886261E-018
  -2.6700000000000002E-002    -9.4477506160551196E-019
  -2.6650000000000000E-002    -2.8826989619643687E-019
  -2.6599999999999999E-002     5.8048903824781708E-019
  -2.6550000000000001E-002     1.5008855765467624E-018
  -2.6500000000000003E-002     2.2644056016288592E-018
  -2.6450000000000001E-002     2.6478487627974651E-018
  -2.6400000000000000E-002     2.4596690402422513E-018
  -2.6349999999999998E-002     1.5951338186008313E-018
  -2.6300000000000000E-002     9.0547268536630503E-020
  -2.6250000000000002E-002    -1.8391611156127221E-018
  -2.6200000000000001E-002    -3.7986611451937764E-018
  -2.6150000000000000E-002    -5.2628962666970891E-018
  -2.6099999999999998E-002    -5.6860924646010540E-018
  -2.6050000000000000E-002    -4.6564981371595700E-018
  -2.6000000000000002E-002    -2.0624948680865629E-018
  -2.5950000000000001E-002     1.7815665284017921E-018
  -2.5899999999999999E-002     6.1055336185276069E-018
  -2.5849999999999998E-002     9.7899350754245508E-018
  -2.5800000000000000E-002     1.1613864087702306E-017
  -2.5750000000000002E-002     1.0601675432828895E-017
  -2.5700000000000001E-002     6.3804833514870357E-018
  -2.5649999999999999E-002    -5.6547842602203977E-019
  -2.5599999999999998E-002    -8.8496786785831842E-018
  -2.5550000000000000E-002    -1.6406928611660535E-017
  -2.5500000000000002E-002    -2.0969028920363326E-017
  -2.5450000000000000E-002    -2.0690629538375110E-017
  -2.5399999999999999E-002    -1.4757809708837349E-017
  -2.5349999999999998E-002    -3.7913306753589850E-018
  -2.5300000000000000E-002     1.0105741794591360E-017
  -2.5250000000000002E-002     2.3715657130948293E-017
  -2.5200000000000000E-002     3.3429858137058068E-017
  -2.5149999999999999E-002     3.6159621915617227E-017
  -2.5100000000000001E-002     3.0198187582058676E-017
  -2.5049999999999999E-002     1.5800703138903564E-017
  -2.5000000000000001E-002    -4.6822379691021868E-018
  -2.4950000000000000E-002    -2.7166616096745193E-017
  -2.4899999999999999E-002    -4.6617967905429049E-017
  -2.4850000000000001E-002    -5.8085945096657562E-017
  -2.4800000000000003E-002    -5.7778399124115427E-017
  -2.4750000000000001E-002    -4.3974038042022744E-017
  -2.4700000000000000E-002    -1.7618812614184813E-017
  -2.4649999999999998E-002     1.7495838627595607E-017
  -2.4600000000000000E-002     5.5033433132681399E-017
  -2.4550000000000002E-002     8.6924508521920608E-017
  -2.4500000000000001E-002     1.0468676142913396E-016
  -2.4450000000000000E-002     1.0117384058961232E-016
  -2.4399999999999998E-002     7.2542483021996694E-017
  -2.4350000000000000E-002     2.0054563293107570E-017
  -2.4299999999999999E-002    -4.8821042624170880E-017
  -2.4250000000000001E-002    -1.2058576934664896E-016
  -2.4199999999999999E-002    -1.7759340557554746E-016
  -2.4150000000000001E-002    -2.0168011973865643E-016
  -2.4100000000000000E-002    -1.7902356931913163E-016
  -2.4049999999999998E-002    -1.0512436974053933E-016
  -2.4000000000000000E-002     1.1596416394606448E-017
  -2.3949999999999999E-002     1.4908440510847143E-016
  -2.3900000000000001E-002     2.7479567782365527E-016
  -2.3850000000000000E-002     3.5266503746073275E-016
  -2.3800000000000002E-002     3.5262354625423199E-016
  -2.3750000000000000E-002     2.6029281902136837E-016
  -2.3699999999999999E-002     8.3943252597490582E-017
  -2.3650000000000001E-002    -1.4388016100469685E-016
  -2.3599999999999999E-002    -3.7144821374939127E-016
  -2.3550000000000001E-002    -5.3918273338212686E-016
  -2.3500000000000000E-002    -5.9479659200974301E-016
  -2.3449999999999999E-002    -5.0834562688117024E-016
  -2.3400000000000001E-002    -2.8289794400497730E-016
  -2.3349999999999999E-002     4.2602648695059741E-017
  -2.3300000000000001E-002     3.9971924003053035E-016
  -2.3250000000000000E-002     7.0507149126007273E-016
  -2.3199999999999998E-002     8.7966570652980299E-016
  -2.3150000000000000E-002     8.6824410312870374E-016
  -2.3099999999999999E-002     6.5386114682322689E-016
  -2.3050000000000001E-002     2.6417348372545684E-016
  -2.3000000000000000E-002    -2.3193655711783851E-016
  -2.2950000000000002E-002    -7.3650419384561060E-016
  -2.2900000000000000E-002    -1.1407294153511725E-015
  -2.2849999999999999E-002    -1.3458164775040288E-015
  -2.2800000000000001E-002    -1.2829305655345294E-015
  -2.2749999999999999E-002    -9.2935001805610592E-016
  -2.2700000000000001E-002    -3.1850372901123086E-016
  -2.2650000000000000E-002     4.5807083350931066E-016
  -2.2599999999999999E-002     1.2586278057745424E-015
  -2.2550000000000001E-002     1.9102757309438334E-015
  -2.2499999999999999E-002     2.2391339859117771E-015
  -2.2450000000000001E-002     2.1088855422307127E-015
  -2.2400000000000000E-002     1.4614314319542604E-015
  -2.2349999999999998E-002     3.4984067331990856E-016
  -2.2300000000000000E-002    -1.0479963211652086E-015
  -2.2249999999999999E-002    -2.4450741553622459E-015
  -2.2200000000000001E-002    -3.4946899235352320E-015
  -2.2150000000000000E-002    -3.8686996873615214E-015
  -2.2100000000000002E-002    -3.3491909400486792E-015
  -2.2050000000000000E-002    -1.9097673083482483E-015
  -2.1999999999999999E-002     2.4000543085898883E-016
  -2.1950000000000001E-002     2.6679430879604916E-015
  -2.1899999999999999E-002     4.7978155520631517E-015
  -2.1850000000000001E-002     6.0418741303306421E-015
  -2.1800000000000000E-002     5.9576269408130524E-015
  -2.1749999999999999E-002     4.3870794669224087E-015
  -2.1700000000000001E-002     1.5359762111229735E-015
  -2.1649999999999999E-002    -2.0370137735344689E-015
  -2.1600000000000001E-002    -5.5279762515999608E-015
  -2.1550000000000000E-002    -8.0715843325446201E-015
  -2.1499999999999998E-002    -8.9566677997309172E-015
  -2.1450000000000000E-002    -7.8171714161012724E-015
  -2.1399999999999999E-002    -4.7462050256158065E-015
  -2.1350000000000001E-002    -3.0041114051678068E-016
  -2.1299999999999999E-002     4.6089595100400772E-015
  -2.1250000000000002E-002     8.9118713839965562E-015
  -2.1200000000000000E-002     1.1614157463391777E-014
  -2.1149999999999999E-002     1.2015567235128006E-014
  -2.1100000000000001E-002     9.8638137418511092E-015
  -2.1049999999999999E-002     5.4164872220610327E-015
  -2.1000000000000001E-002    -5.9433611279490029E-016
  -2.0950000000000000E-002    -7.0808341545827324E-015
  -2.0899999999999998E-002    -1.2777104553901008E-014
  -2.0850000000000000E-002    -1.6449534399524418E-014
  -2.0799999999999999E-002    -1.7116204696085772E-014
  -2.0750000000000001E-002    -1.4252960630775704E-014
  -2.0700000000000000E-002    -7.9598510779089490E-015
  -2.0649999999999998E-002     9.4684589114861613E-016
  -2.0600000000000000E-002     1.0958148673456024E-014
  -2.0549999999999999E-002     2.0048080844045252E-014
  -2.0500000000000001E-002     2.6014704065257609E-014
  -2.0449999999999999E-002     2.6956395366957916E-014
  -2.0400000000000001E-002     2.1798983387561449E-014
  -2.0350000000000000E-002     1.0742108677886799E-014
  -2.0299999999999999E-002    -4.5255423755340424E-015
  -2.0250000000000001E-002    -2.0964823098533778E-014
  -2.0199999999999999E-002    -3.4723930534720809E-014
  -2.0150000000000001E-002    -4.2007320614962607E-014
  -2.0100000000000000E-002    -4.0089758921540029E-014
  -2.0049999999999998E-002    -2.8207180521861608E-014
  -2.0000000000000000E-002    -8.0445636892947710E-015
  -1.9949999999999999E-002     1.6382456013646317E-014
  -1.9900000000000001E-002     3.9502482567751426E-014
  -1.9850000000000000E-002     5.5479698245599497E-014
  -1.9799999999999998E-002     5.9711638343513508E-014
  -1.9750000000000000E-002     5.0131344992512790E-014
  -1.9699999999999999E-002     2.7934652928477307E-014
  -1.9650000000000001E-002    -2.5061842735225488E-015
  -1.9599999999999999E-002    -3.4560889704678634E-014
  -1.9550000000000001E-002    -6.0874479307482133E-014
  -1.9500000000000000E-002    -7.5121490720307437E-014
  -1.9449999999999999E-002    -7.3525381996330524E-014
  -1.9400000000000001E-002    -5.5759063187174913E-014
  -1.9349999999999999E-002    -2.5023262296599025E-014
  -1.9300000000000001E-002     1.2672918938418460E-014
  -1.9250000000000000E-002     4.9804008514168618E-014
  -1.9199999999999998E-002     7.8853489582166432E-014
  -1.9150000000000000E-002     9.3732090299235121E-014
  -1.9099999999999999E-002     9.0841078181725749E-014
  -1.9050000000000001E-002     6.9667286220021212E-014
  -1.9000000000000000E-002     3.2913069422801177E-014
  -1.8949999999999998E-002    -1.3781493281696292E-014
  -1.8900000000000000E-002    -6.2478312778289567E-014
  -1.8849999999999999E-002    -1.0394064810896751E-013
  -1.8800000000000001E-002    -1.2900687430508234E-013
  -1.8749999999999999E-002    -1.3029450868980266E-013
  -1.8700000000000001E-002    -1.0404527498344227E-013
  -1.8650000000000000E-002    -5.1732164087084021E-014
  -1.8599999999999998E-002     1.9094143164888201E-014
  -1.8550000000000001E-002     9.5239815883410335E-014
  -1.8499999999999999E-002     1.5988873289287946E-013
  -1.8450000000000001E-002     1.9609634446152937E-013
  -1.8400000000000000E-002     1.9112297363675233E-013
  -1.8349999999999998E-002     1.4052497995421262E-013
  -1.8300000000000000E-002     5.0731742512569534E-014
  -1.8249999999999999E-002    -6.0958596491932903E-014
  -1.8200000000000001E-002    -1.6942692871417106E-013
  -1.8149999999999999E-002    -2.4741513598733454E-013
  -1.8100000000000002E-002    -2.7255064033604674E-013
  -1.8050000000000000E-002    -2.3383165428945752E-013
  -1.7999999999999999E-002    -1.3562812111212251E-013
  -1.7950000000000001E-002     2.1949273370742483E-015
  -1.7899999999999999E-002     1.4838225589452631E-013
  -1.7850000000000001E-002     2.6773571955350426E-013
  -1.7800000000000000E-002     3.2997878376468064E-013
  -1.7749999999999998E-002     3.1761922989903410E-013
  -1.7700000000000000E-002     2.3062372969047830E-013
  -1.7649999999999999E-002     8.6624096100867929E-014
  -1.7600000000000001E-002    -8.3336974444768036E-014
  -1.7550000000000000E-002    -2.4224871677701043E-013
  -1.7499999999999998E-002    -3.5567135729842367E-013
  -1.7450000000000000E-002    -3.9913651325728775E-013
  -1.7399999999999999E-002    -3.6272024208277752E-013
  -1.7350000000000001E-002    -2.5208969268105426E-013
  -1.7299999999999999E-002    -8.6379086046401487E-014
  -1.7250000000000001E-002     1.0601329571777344E-013
  -1.7200000000000000E-002     2.9240838078947006E-013
  -1.7149999999999999E-002     4.4062119371678431E-013
  -1.7100000000000001E-002     5.2311615384526247E-013
  -1.7049999999999999E-002     5.2063136324630912E-013
  -1.7000000000000001E-002     4.2548584136229450E-013
  -1.6950000000000000E-002     2.4445706520508787E-013
  -1.6899999999999998E-002     5.0183274555051921E-016
  -1.6850000000000000E-002    -2.6792370452316419E-013
  -1.6799999999999999E-002    -5.1120136259499820E-013
  -1.6750000000000001E-002    -6.7706604028988209E-013
  -1.6700000000000000E-002    -7.2241420289139241E-013
  -1.6649999999999998E-002    -6.2589145311806732E-013
  -1.6600000000000000E-002    -3.9754426733471617E-013
  -1.6549999999999999E-002    -8.1701758645161290E-014
  -1.6500000000000001E-002     2.4944821431945130E-013
  -1.6449999999999999E-002     5.1158181496122983E-013
  -1.6400000000000001E-002     6.3016211690543088E-013
  -1.6350000000000000E-002     5.6285377505878347E-013
  -1.6299999999999999E-002     3.1562540095742835E-013
  -1.6250000000000001E-002    -5.3234594454197872E-014
  -1.6199999999999999E-002    -4.4387664778935699E-013
  -1.6150000000000001E-002    -7.3878845294209629E-013
  -1.6100000000000000E-002    -8.3398004689836762E-013
  -1.6049999999999998E-002    -6.6891304768629057E-013
  -1.6000000000000000E-002    -2.4647422316738304E-013
  -1.5949999999999999E-002     3.6312788145531858E-013
  -1.5900000000000001E-002     1.0360941770779898E-012
  -1.5850000000000000E-002     1.6228040352956293E-012
  -1.5799999999999998E-002     1.9819985998246953E-012
  -1.5750000000000000E-002     2.0121333157886909E-012
  -1.5699999999999999E-002     1.6719209637600305E-012
  -1.5650000000000001E-002     9.8574007767319312E-013
  -1.5599999999999999E-002     3.4273291574797411E-014
  -1.5550000000000001E-002    -1.0651325108309870E-012
  -1.5500000000000000E-002    -2.1817038377346011E-012
  -1.5449999999999998E-002    -3.1916795022379760E-012
  -1.5400000000000000E-002    -3.9918999029415798E-012
  -1.5349999999999999E-002    -4.5057354252784759E-012
  -1.5300000000000001E-002    -4.6832472783770601E-012
  -1.5250000000000000E-002    -4.4985574083211363E-012
  -1.5199999999999998E-002    -3.9466114779410143E-012
  -1.5150000000000000E-002    -3.0395179483400719E-012
  -1.5099999999999999E-002    -1.8006728472675884E-012
  -1.5050000000000001E-002    -2.5423583255426567E-013
  -1.4999999999999999E-002     1.5910453107261999E-012
  -1.4949999999999998E-002     3.7615345593519851E-012
  -1.4900000000000000E-002     6.3362164398057084E-012
  -1.4849999999999999E-002     9.4540868154471237E-012
  -1.4800000000000001E-002     1.3304159404003041E-011
  -1.4749999999999999E-002     1.8094980653680925E-011
  -1.4700000000000001E-002     2.4007229964522443E-011
  -1.4650000000000000E-002     3.1140063571713240E-011
  -1.4599999999999998E-002     3.9466703683098594E-011
  -1.4550000000000000E-002     4.8814975323557513E-011
  -1.4499999999999999E-002     5.8883200166700190E-011
  -1.4450000000000001E-002     6.9292219082049436E-011
  -1.4400000000000000E-002     7.9662994664028357E-011
  -1.4349999999999998E-002     8.9700362412696253E-011
  -1.4300000000000000E-002     9.9259537721354136E-011
  -1.4249999999999999E-002     1.0837568540450690E-010
  -1.4200000000000001E-002     1.1724689729169883E-010
  -1.4149999999999999E-002     1.2617411616311414E-010
  -1.4099999999999998E-002     1.3547474499866228E-010
  -1.4050000000000000E-002     1.4539420211346037E-010
  -1.3999999999999999E-002     1.5604012802558843E-010
  -1.3950000000000001E-002     1.6735687481227319E-010
  -1.3899999999999999E-002     1.7914507553352760E-010
  -1.3850000000000001E-002     1.9111817587723700E-010
  -1.3800000000000000E-002     2.0297746401132029E-010
  -1.3749999999999998E-002     2.1448384353786046E-010
  -1.3700000000000000E-002     2.2550778399659912E-010
  -1.3649999999999999E-002     2.3604822199931752E-010
  -1.3600000000000001E-002     2.4622088907465728E-010
  -1.3550000000000000E-002     2.5622567226085119E-010
  -1.3499999999999998E-002     2.6630520187536698E-010
  -1.3450000000000000E-002     2.7670625537754026E-010
  -1.3399999999999999E-002     2.8764899171076060E-010
  -1.3350000000000001E-002     2.9930433880379585E-010
  -1.3299999999999999E-002     3.1177531288976801E-010
  -1.3249999999999998E-002     3.2507977804513252E-010
  -1.3200000000000000E-002     3.3913580073020246E-010
  -1.3149999999999998E-002     3.5375642809439176E-010
  -1.3100000000000001E-002     3.6866362912704950E-010
  -1.3049999999999999E-002     3.8352882963958203E-010
  -1.3000000000000001E-002     3.9804036036554337E-010
  -1.2950000000000000E-002     4.1198688719502562E-010
  -1.2899999999999998E-002     4.2533574235075884E-010
  -1.2850000000000000E-002     4.3827908565328235E-010
  -1.2799999999999999E-002     4.5122722952067961E-010