  -4.0000000000000001E-002     0.0000000000000000     
  -3.9949999999999999E-002     0.0000000000000000     
  -3.9899999999999998E-002     0.0000000000000000     
  -3.9850000000000003E-002     0.0000000000000000     
  -3.9800000000000002E-002     0.0000000000000000     
  -3.9750000000000001E-002     0.0000000000000000     
  -3.9699999999999999E-002     0.0000000000000000     
  -3.9649999999999998E-002     0.0000000000000000     
  -3.9600000000000003E-002     0.0000000000000000     
  -3.9550000000000002E-002     0.0000000000000000     
  -3.9500000000000000E-002     0.0000000000000000     
  -3.9449999999999999E-002     7.7530000942275778E-032
  -3.9399999999999998E-002     1.3419868331630083E-030
  -3.9350000000000003E-002     1.1137820273635627E-029
  -3.9300000000000002E-002     5.6798029802095042E-029
  -3.9250000000000000E-002     1.8202825762170374E-028
  -3.9199999999999999E-002     2.5619632073348800E-028
  -3.9150000000000004E-002    -8.9864073841828720E-028
  -3.9100000000000003E-002    -7.7459790559828117E-027
  -3.9050000000000001E-002    -3.0953988341175027E-026
  -3.9000000000000000E-002    -8.4749347321913887E-026
  -3.8949999999999999E-002    -1.6175854021973650E-025
  -3.8900000000000004E-002    -1.6144743993627835E-025
  -3.8850000000000003E-002     2.2686992371596920E-025
  -3.8800000000000001E-002     1.5884414333059524E-024
  -3.8750000000000000E-002     4.5234380677969157E-024
  -3.8699999999999998E-002     8.6660786588312538E-024
  -3.8650000000000004E-002     1.0823361697571025E-023
  -3.8600000000000002E-002     3.0570742068316252E-024
  -3.8550000000000001E-002    -2.6752627101067367E-023
  -3.8500000000000000E-002    -8.7943350888466649E-023
  -3.8449999999999998E-002    -1.7109271724630392E-022
  -3.8400000000000004E-002    -2.2690306712004587E-022
  -3.8350000000000002E-002    -1.5525261718578893E-022
  -3.8300000000000001E-002     1.7020473176290656E-022
  -3.8249999999999999E-002     8.2030151250778639E-022
  -3.8199999999999998E-002     1.6796991100859364E-021
  -3.8150000000000003E-002     2.3298401657164522E-021
  -3.8100000000000002E-002     2.0595469256758604E-021
  -3.8050000000000000E-002     1.1568765069477710E-022
  -3.7999999999999999E-002    -3.7936067048883137E-021
  -3.7949999999999998E-002    -8.9223635625954441E-021
  -3.7900000000000003E-002    -1.3206729485864267E-020
  -3.7850000000000002E-002    -1.3681792506472333E-020
  -3.7800000000000000E-002    -7.7331923219068453E-021
  -3.7749999999999999E-002     5.2074033025584618E-021
  -3.7699999999999997E-002     2.2447027451492287E-020
  -3.7650000000000003E-002     3.8337681301034965E-020
  -3.7600000000000001E-002     4.6525124633611632E-020
  -3.7550000000000000E-002     4.3298526576582320E-020
  -3.7499999999999999E-002     2.9956460788155250E-020
  -3.7449999999999997E-002     1.1885408850989547E-020
  -3.7400000000000003E-002    -6.4174368308357664E-021
  -3.7350000000000001E-002    -2.8107726188616200E-020
  -3.7300000000000000E-002    -6.7295401940914808E-020
  -3.7249999999999998E-002    -1.4308806757175661E-019
  -3.7200000000000004E-002    -2.6231978654812655E-019
  -3.7150000000000002E-002    -3.9664807908664602E-019
  -3.7100000000000001E-002    -4.6809657707407299E-019
  -3.7050000000000000E-002    -3.6050155755143436E-019
  -3.6999999999999998E-002     3.2595025510515462E-020
  -3.6950000000000004E-002     7.3137623985694690E-019
  -3.6900000000000002E-002     1.5959708847485497E-018
  -3.6850000000000001E-002     2.3032600653740343E-018
  -3.6799999999999999E-002     2.4166094088406103E-018
  -3.6749999999999998E-002     1.5562718673591430E-018
  -3.6700000000000003E-002    -3.7759995834255768E-019
  -3.6650000000000002E-002    -3.0292488921507103E-018
  -3.6600000000000001E-002    -5.5731562915375780E-018
  -3.6549999999999999E-002    -6.9287833678414123E-018
  -3.6499999999999998E-002    -6.1690704073222762E-018
  -3.6450000000000003E-002    -2.9720885455078202E-018
  -3.6400000000000002E-002     2.0979769676264484E-018
  -3.6350000000000000E-002     7.6522257141218058E-018
  -3.6299999999999999E-002     1.1903166721897003E-017
  -3.6249999999999998E-002     1.3287567199381530E-017
  -3.6200000000000003E-002     1.0997322238990213E-017
  -3.6150000000000002E-002     5.1712385052226902E-018
  -3.6100000000000000E-002    -3.2906940823885131E-018
  -3.6049999999999999E-002    -1.3066108080429914E-017
  -3.6000000000000004E-002    -2.2547334882021621E-017
  -3.5950000000000003E-002    -2.9572157434016357E-017
  -3.5900000000000001E-002    -3.0959885768435427E-017
  -3.5850000000000000E-002    -2.2516817660632486E-017
  -3.5799999999999998E-002    -3.0078197743660316E-019
  -3.5750000000000004E-002     3.6555399540141657E-017
  -3.5700000000000003E-002     8.2240347417723945E-017
  -3.5650000000000001E-002     1.2186570916677773E-016
  -3.5600000000000000E-002     1.3281596866459525E-016
  -3.5549999999999998E-002     9.1582406404184429E-017
  -3.5500000000000004E-002    -1.4530531128880628E-017
  -3.5450000000000002E-002    -1.7462868526863685E-016
  -3.5400000000000001E-002    -3.4672331905543376E-016
  -3.5349999999999999E-002    -4.6200477476992195E-016
  -3.5299999999999998E-002    -4.4413686063876072E-016
  -3.5250000000000004E-002    -2.4055225926721904E-016
  -3.5200000000000002E-002     1.4436082094203570E-016
  -3.5150000000000001E-002     6.2889989747029825E-016
  -3.5099999999999999E-002     1.0602911140809671E-015
  -3.5049999999999998E-002     1.2535897615017142E-015
  -3.5000000000000003E-002     1.0565217180765084E-015
  -3.4950000000000002E-002     4.2028010753967199E-016
  -3.4900000000000000E-002    -5.5159910018589300E-016
  -3.4849999999999999E-002    -1.6019116409377100E-015
  -3.4799999999999998E-002    -2.3780223005198431E-015
  -3.4750000000000003E-002    -2.5401949606043636E-015
  -3.4700000000000002E-002    -1.8887077440703971E-015
  -3.4650000000000000E-002    -4.6521279041623951E-016
  -3.4599999999999999E-002     1.4140980561152495E-015
  -3.4549999999999997E-002     3.2170834259254561E-015
  -3.4500000000000003E-002     4.3390903907161185E-015
  -3.4450000000000001E-002     4.2926737422754240E-015
  -3.4400000000000000E-002     2.8841771618600788E-015
  -3.4349999999999999E-002     3.1649976555603054E-016
  -3.4299999999999997E-002    -2.8223757038966817E-015
  -3.4250000000000003E-002    -5.6901022436966151E-015
  -3.4200000000000001E-002    -7.4067521901989439E-015
  -3.4150000000000000E-002    -7.2972289479703018E-015
  -3.4099999999999998E-002    -5.0920608100584223E-015
  -3.4049999999999997E-002    -1.0341462517929305E-015
  -3.4000000000000002E-002     4.1319755719362241E-015
  -3.3950000000000001E-002     9.2811029148522593E-015
  -3.3900000000000000E-002     1.3110674940829694E-014
  -3.3849999999999998E-002     1.4392375010902570E-014
  -3.3799999999999997E-002     1.2241968824489097E-014
  -3.3750000000000002E-002     6.3802062865269920E-015
  -3.3700000000000001E-002    -2.6509709365861212E-015
  -3.3649999999999999E-002    -1.3374162328715543E-014
  -3.3599999999999998E-002    -2.3443544855413993E-014
  -3.3550000000000003E-002    -2.9972387478961408E-014
  -3.3500000000000002E-002    -3.0155041246036437E-014
  -3.3450000000000001E-002    -2.2120151672989490E-014
  -3.3399999999999999E-002    -5.8230213829578397E-015
  -3.3349999999999998E-002     1.6326270147512263E-014
  -3.3300000000000003E-002     3.9433203129196534E-014
  -3.3250000000000002E-002     5.6922235334416370E-014
  -3.3200000000000000E-002     6.2170888556787966E-014
  -3.3149999999999999E-002     5.0651432840410515E-014
  -3.3099999999999997E-002     2.1961915727553972E-014
  -3.3050000000000003E-002    -1.9010824833113038E-014
  -3.3000000000000002E-002    -6.2435290790473500E-014
  -3.2950000000000000E-002    -9.5631138845834310E-014
  -3.2899999999999999E-002    -1.0657953460538365E-013
  -3.2850000000000004E-002    -8.7927825270940997E-014
  -3.2800000000000003E-002    -4.0207302840938176E-014
  -3.2750000000000001E-002     2.6975175971459618E-014
  -3.2700000000000000E-002     9.6512359703267751E-014
  -3.2649999999999998E-002     1.4803499208316708E-013
  -3.2600000000000004E-002     1.6378054905471484E-013
  -3.2550000000000003E-002     1.3437347543229110E-013
  -3.2500000000000001E-002     6.2632423679691094E-014
  -3.2450000000000000E-002    -3.6009541931964719E-014
  -3.2399999999999998E-002    -1.3688900736260873E-013
  -3.2350000000000004E-002    -2.1250652940045650E-013
  -3.2300000000000002E-002    -2.4012503060475451E-013
  -3.2250000000000001E-002    -2.0831862459608729E-013
  -3.2199999999999999E-002    -1.2051006103583790E-013
  -3.2149999999999998E-002     5.5254445543199262E-015
  -3.2100000000000004E-002     1.4195602258106854E-013
  -3.2050000000000002E-002     2.5763024872128023E-013
  -3.2000000000000001E-002     3.2529684195598736E-013
  -3.1949999999999999E-002     3.2744600598457872E-013
  -3.1899999999999998E-002     2.5960033076185369E-013
  -3.1850000000000003E-002     1.3082001286318151E-013
  -3.1800000000000002E-002    -3.8045728194454174E-014
  -3.1750000000000000E-002    -2.1753269174936940E-013
  -3.1699999999999999E-002    -3.7354617877766840E-013
  -3.1649999999999998E-002    -4.7201452462794433E-013
  -3.1600000000000003E-002    -4.8439656612988691E-013
  -3.1550000000000002E-002    -3.9405259529980740E-013
  -3.1500000000000000E-002    -2.0273365198427782E-013
  -3.1449999999999999E-002     6.4596726688577417E-014
  -3.1399999999999997E-002     3.5912602137094805E-013
  -3.1350000000000003E-002     6.1405571185858491E-013
  -3.1300000000000001E-002     7.5779991193105899E-013
  -3.1250000000000000E-002     7.3281247239580440E-013
  -3.1199999999999999E-002     5.1552956711322290E-013
  -3.1150000000000001E-002     1.3100828340702893E-013
  -3.1100000000000003E-002    -3.4408714222320692E-013
  -3.1050000000000001E-002    -7.9396151030068109E-013
  -3.1000000000000000E-002    -1.0908556010216956E-012
  -3.0949999999999998E-002    -1.1308612360271849E-012
  -3.0900000000000000E-002    -8.6824651894287270E-013
  -3.0850000000000002E-002    -3.3698796419322023E-013
  -3.0800000000000001E-002     3.4916594442282752E-013
  -3.0750000000000000E-002     1.0207682935499854E-012
  -3.0699999999999998E-002     1.4959164425374612E-012
  -3.0650000000000000E-002     1.6309709884003984E-012
  -3.0600000000000002E-002     1.3636902878050400E-012
  -3.0550000000000001E-002     7.3515747927000308E-013
  -3.0499999999999999E-002    -1.1708035441529416E-013
  -3.0449999999999998E-002    -9.9343977344850455E-013
  -3.0400000000000000E-002    -1.6844451320743182E-012
  -3.0350000000000002E-002    -2.0252460700852755E-012
  -3.0300000000000001E-002    -1.9366988902136183E-012
  -3.0249999999999999E-002    -1.4418791573150629E-012
  -3.0200000000000001E-002    -6.5496658561254755E-013
  -3.0150000000000000E-002     2.5201459171364519E-013
  -3.0100000000000002E-002     1.0931083408487909E-012
  -3.0050000000000000E-002     1.7099206201662390E-012
  -2.9999999999999999E-002     2.0005816826907381E-012
  -2.9950000000000001E-002     1.9318793797818379E-012
  -2.9899999999999999E-002     1.5362959536045994E-012
  -2.9850000000000002E-002     8.9942996485068040E-013
  -2.9800000000000000E-002     1.4357676527958165E-013
  -2.9749999999999999E-002    -5.8936740912044856E-013
  -2.9700000000000001E-002    -1.1560140249962191E-012
  -2.9650000000000003E-002    -1.4329013786670206E-012
  -2.9600000000000001E-002    -1.3423619646624390E-012
  -2.9550000000000000E-002    -8.7984738898850408E-013
  -2.9499999999999998E-002    -1.3461323903684647E-013
  -2.9450000000000000E-002     7.0738633157538488E-013
  -2.9400000000000003E-002     1.3879603494271385E-012
  -2.9350000000000001E-002     1.6309994117712025E-012
  -2.9300000000000000E-002     1.2183333758523531E-012
  -2.9249999999999998E-002     6.8093450202089693E-014
  -2.9200000000000000E-002    -1.7094664630856164E-012
  -2.9150000000000002E-002    -3.8015919770551962E-012
  -2.9100000000000001E-002    -5.7400555993633754E-012
  -2.9049999999999999E-002    -7.0005620655159839E-012
  -2.8999999999999998E-002    -7.1319254273595372E-012
  -2.8950000000000000E-002    -5.8804733193041742E-012
  -2.8900000000000002E-002    -3.2735425942177604E-012
  -2.8850000000000001E-002     3.6400786935301907E-013
  -2.8799999999999999E-002     4.4674569851453798E-012
  -2.8749999999999998E-002     8.3495163917914030E-012
  -2.8700000000000000E-002     1.1345324749109179E-011
  -2.8650000000000002E-002     1.2945828687185503E-011
  -2.8600000000000000E-002     1.2885233098120825E-011
  -2.8549999999999999E-002     1.1163553929171122E-011
  -2.8500000000000001E-002     8.0057698043406440E-012
  -2.8450000000000000E-002     3.7776542011662037E-012
  -2.8400000000000002E-002    -1.1106280667917169E-012
  -2.8350000000000000E-002    -6.2816902572587892E-012
  -2.8299999999999999E-002    -1.1426777347718244E-011
  -2.8250000000000001E-002    -1.6293307035230804E-011
  -2.8200000000000003E-002    -2.0632641151441729E-011
  -2.8150000000000001E-002    -2.4127504486149406E-011
  -2.8100000000000000E-002    -2.6322197512659105E-011
  -2.8049999999999999E-002    -2.6575452583395608E-011
  -2.8000000000000001E-002    -2.4047982554417310E-011
  -2.7950000000000003E-002    -1.7727999590243348E-011
  -2.7900000000000001E-002    -6.4911493671036405E-012
  -2.7850000000000000E-002     1.0812454406414845E-011
  -2.7799999999999998E-002     3.5252665049026725E-011
  -2.7750000000000000E-002     6.7704387566254904E-011
  -2.7700000000000002E-002     1.0873430571208458E-010
  -2.7650000000000001E-002     1.5850309293716691E-010
  -2.7600000000000000E-002     2.1670072823002088E-010
  -2.7549999999999998E-002     2.8253232075568682E-010
  -2.7500000000000000E-002     3.5476878136143088E-010
  -2.7450000000000002E-002     4.3186455445943987E-010
  -2.7400000000000001E-002     5.1213064051406041E-010
  -2.7349999999999999E-002     5.9393566251637216E-010
  -2.7299999999999998E-002     6.7589631402165372E-010
  -2.7250000000000000E-002     7.5701896856248304E-010
  -2.7200000000000002E-002     8.3676286159202596E-010
  -2.7150000000000001E-002     9.1501545016426836E-010
  -2.7099999999999999E-002     9.9199352982754299E-010
  -2.7049999999999998E-002     1.0680995353182050E-009
  -2.7000000000000000E-002     1.1437759167031939E-009
  -2.6950000000000002E-002     1.2193931749725141E-009
  -2.6900000000000000E-002     1.2951953146042728E-009
  -2.6849999999999999E-002     1.3713062776490934E-009
  -2.6800000000000001E-002     1.4477840151276000E-009
  -2.6749999999999999E-002     1.5246957962336050E-009
  -2.6700000000000002E-002     1.6021867655449104E-009
  -2.6650000000000000E-002     1.6805194574439573E-009
  -2.6599999999999999E-002     1.7600716562010283E-009
  -2.6550000000000001E-002     1.8412913787422639E-009
  -2.6500000000000003E-002     1.9246177741343712E-009
  -2.6450000000000001E-002     2.0103845679087238E-009
  -2.6400000000000000E-002     2.0987268309450551E-009
  -2.6349999999999998E-002     2.1895150898915049E-009
  -2.6300000000000000E-002     2.2823411860501778E-009
  -2.6250000000000002E-002     2.3765674300634159E-009
  -2.6200000000000001E-002     2.4714466392309550E-009
  -2.6150000000000000E-002     2.5662906707373440E-009
  -2.6099999999999998E-002     2.6606576246518069E-009
  -2.6050000000000000E-002     2.7545092648452148E-009
  -2.6000000000000002E-002     2.8482936374099870E-009
  -2.5950000000000001E-002     2.9429284155576541E-009
  -2.5899999999999999E-002     3.0396808753377683E-009
  -2.5849999999999998E-002     3.1399745261365098E-009
  -2.5800000000000000E-002     3.2451649915704132E-009
  -2.5750000000000002E-002     3.3563382885690173E-009
  -2.5700000000000001E-002     3.4741614055191388E-009
  -2.5649999999999999E-002     3.5988073826050331E-009
  -2.5599999999999998E-002     3.7299462754051307E-009
  -2.5550000000000000E-002     3.8667958478516939E-009
  -2.5500000000000002E-002     4.0082122845554842E-009
  -2.5450000000000000E-002     4.1528290868006204E-009
  -2.5399999999999999E-002     4.2992382739705741E-009
  -2.5349999999999998E-002     4.4462032134097037E-009
  -2.5300000000000000E-002     4.5928794934002963E-009
  -2.5250000000000002E-002     4.7389910799857091E-009
  -2.5200000000000000E-002     4.8849049886252375E-009
  -2.5149999999999999E-002     5.0315706387660084E-009
  -2.5100000000000001E-002     5.1803233962989702E-009
  -2.5049999999999999E-002     5.3326064422392657E-009
  -2.5000000000000001E-002     5.4897018872428657E-009
  -2.4950000000000000E-002     5.6525611498954073E-009
  -2.4899999999999999E-002     5.8217915017836914E-009
  -2.4850000000000001E-002     5.9977835062579644E-009
  -2.4800000000000003E-002     6.1809055910793771E-009
  -2.4750000000000001E-002     6.3716584702254678E-009
  -2.4700000000000000E-002     6.5706935023878021E-009
  -2.4649999999999998E-002     6.7786684859095152E-009
  -2.4600000000000000E-002     6.9959920677324513E-009
  -2.4550000000000002E-002     7.2225644860582659E-009
  -2.4500000000000001E-002     7.4576459038731484E-009
  -2.4450000000000000E-002     7.6999117192934595E-009
  -2.4399999999999998E-002     7.9477063575750034E-009
  -2.4350000000000000E-002     8.1993942514963799E-009
  -2.4299999999999999E-002     8.4536876187007376E-009
  -2.4250000000000001E-002     8.7098549934929837E-009
  -2.4199999999999999E-002     8.9677624913133992E-009
  -2.4150000000000001E-002     9.2278005506438642E-009
  -2.4100000000000000E-002     9.4907707189209228E-009
  -2.4049999999999998E-002     9.7578334986252410E-009
  -2.4000000000000000E-002     1.0030519704815627E-008
  -2.3949999999999999E-002     1.0310766743641797E-008
  -2.3900000000000001E-002     1.0600879655039723E-008
  -2.3850000000000000E-002     1.0903333506613134E-008
  -2.3800000000000002E-002     1.1220411133001132E-008
  -2.3750000000000000E-002     1.1553758197701928E-008
  -2.3699999999999999E-002     1.1903993545628088E-008
  -2.3650000000000001E-002     1.2270547385966910E-008
  -2.3599999999999999E-002     1.2651788953788131E-008
  -2.3550000000000001E-002     1.3045415340026132E-008
  -2.3500000000000000E-002     1.3448978367436619E-008
  -2.3449999999999999E-002     1.3860347927976376E-008
  -2.3400000000000001E-002     1.4277999583279716E-008
  -2.3349999999999999E-002     1.4701074730308410E-008
  -2.3300000000000001E-002     1.5129270835318335E-008
  -2.3250000000000000E-002     1.5562708378538076E-008
  -2.3199999999999998E-002     1.6001875933413784E-008
  -2.3150000000000000E-002     1.6447682122757567E-008
  -2.3099999999999999E-002     1.6901564794456006E-008
  -2.3050000000000001E-002     1.7365532539361770E-008
  -2.3000000000000000E-002     1.7842050160137029E-008
  -2.2950000000000002E-002     1.8333760792040161E-008
  -2.2900000000000000E-002     1.8843099762797784E-008
  -2.2849999999999999E-002     1.9371986596134700E-008
  -2.2800000000000001E-002     1.9921674579934276E-008
  -2.2749999999999999E-002     2.0492816847764676E-008
  -2.2700000000000001E-002     2.1085656882139840E-008
  -2.2650000000000000E-002     2.1700205870091194E-008
  -2.2599999999999999E-002     2.2336286471833186E-008
  -2.2550000000000001E-002     2.2993392809507011E-008
  -2.2499999999999999E-002     2.3670482417974464E-008
  -2.2450000000000001E-002     2.4365847499834985E-008
  -2.2400000000000000E-002     2.5077243017421471E-008
  -2.2349999999999998E-002     2.5802302687318577E-008
  -2.2300000000000000E-002     2.6539149306665772E-008
  -2.2249999999999999E-002     2.7286973256766199E-008
  -2.2200000000000001E-002     2.8046340389441371E-008
  -2.2150000000000000E-002     2.8819118092362140E-008
  -2.2100000000000002E-002     2.9608047980217147E-008
  -2.2050000000000000E-002     3.0416159683808759E-008
  -2.1999999999999999E-002     3.1246255337009369E-008
  -2.1950000000000001E-002     3.2100673188447145E-008
  -2.1899999999999999E-002     3.2981278822514492E-008
  -2.1850000000000001E-002     3.3889597178689252E-008
  -2.1800000000000000E-002     3.4826856306839901E-008
  -2.1749999999999999E-002     3.5793862971287941E-008
  -2.1700000000000001E-002     3.6790695300300543E-008
  -2.1649999999999999E-002     3.7816442944482501E-008
  -2.1600000000000001E-002     3.8869207943314784E-008
  -2.1550000000000000E-002     3.9946476778584028E-008
  -2.1499999999999998E-002     4.1045877572582480E-008
  -2.1450000000000000E-002     4.2165979113970717E-008
  -2.1399999999999999E-002     4.3306845957802978E-008
  -2.1350000000000001E-002     4.4470080206309604E-008
  -2.1299999999999999E-002     4.5658330294375836E-008
  -2.1250000000000002E-002     4.6874515987833939E-008
  -2.1200000000000000E-002     4.8121148651621539E-008
  -2.1149999999999999E-002     4.9400065525531788E-008
  -2.1100000000000001E-002     5.0712702558446721E-008
  -2.1049999999999999E-002     5.2060712351365141E-008
  -2.1000000000000001E-002     5.3446531405377086E-008
  -2.0950000000000000E-002     5.4873547734743288E-008
  -2.0899999999999998E-002     5.6345645015199348E-008
  -2.0850000000000000E-002     5.7866306249739004E-008
  -2.0799999999999999E-002     5.9437681566069167E-008
  -2.0750000000000001E-002     6.1060017307631422E-008
  -2.0700000000000000E-002     6.2731811427544325E-008
  -2.0649999999999998E-002     6.4450526470394877E-008
  -2.0600000000000000E-002     6.6213577006166983E-008
  -2.0549999999999999E-002     6.8019129517006147E-008
  -2.0500000000000001E-002     6.9866294090463985E-008
  -2.0449999999999999E-002     7.1754764732356929E-008
  -2.0400000000000001E-002     7.3684157564519005E-008
  -2.0350000000000000E-002     7.5653584533048683E-008
  -2.0299999999999999E-002     7.7661736559513377E-008
  -2.0250000000000001E-002     7.9707528284234846E-008
  -2.0199999999999999E-002     8.1791026388175913E-008
  -2.0150000000000001E-002     8.3914108746661807E-008
  -2.0100000000000000E-002     8.6080447523964993E-008
  -2.0049999999999998E-002     8.8294658647467843E-008
  -2.0000000000000000E-002     9.0561033552579572E-008
  -1.9949999999999999E-002     9.2882342208582757E-008
  -1.9900000000000001E-002     9.5259312717980264E-008
  -1.9850000000000000E-002     9.7691007616806292E-008
  -1.9799999999999998E-002     1.0017595898612131E-007
  -1.9750000000000000E-002     1.0271345820913648E-007
  -1.9699999999999999E-002     1.0530441758924335E-007
  -1.9650000000000001E-002     1.0795144590930174E-007
  -1.9599999999999999E-002     1.1065811940080791E-007
  -1.9550000000000001E-002     1.1342795481034953E-007
  -1.9500000000000000E-002     1.1626368003815382E-007
  -1.9449999999999999E-002     1.1916714230751066E-007
  -1.9400000000000001E-002     1.2213998350152897E-007
  -1.9349999999999999E-002     1.2518467046635208E-007
  -1.9300000000000001E-002     1.2830519151856370E-007
  -1.9250000000000000E-002     1.3150718788399871E-007
  -1.9199999999999998E-002     1.3479716184796438E-007
  -1.9150000000000000E-002     1.3818138785804105E-007
  -1.9099999999999999E-002     1.4166483092841030E-007
  -1.9050000000000001E-002     1.4525073400595472E-007
  -1.9000000000000000E-002     1.4894090494507860E-007
  -1.8949999999999998E-002     1.5273651026136660E-007
  -1.8900000000000000E-002     1.5663883591186338E-007
  -1.8849999999999999E-002     1.6064954940996326E-007
  -1.8800000000000001E-002     1.6477032156822746E-007
  -1.8749999999999999E-002     1.6900191263791173E-007
  -1.8700000000000001E-002     1.7334345110843177E-007
  -1.8650000000000000E-002     1.7779216640163812E-007
  -1.8599999999999998E-002     1.8234390310158805E-007
  -1.8550000000000001E-002     1.8699408725280425E-007
  -1.8499999999999999E-002     1.9173869615478741E-007
  -1.8450000000000001E-002     1.9657485137659354E-007
  -1.8400000000000000E-002     2.0150074562419271E-007
  -1.8349999999999998E-002     2.0651497705512492E-007
  -1.8300000000000000E-002     2.1161610034567613E-007
  -1.8249999999999999E-002     2.1680231303457171E-007
  -1.8200000000000001E-002     2.2207190742061497E-007
  -1.8149999999999999E-002     2.2742387601050478E-007
  -1.8100000000000002E-002     2.3285847185635094E-007
  -1.8050000000000000E-002     2.3837709643915529E-007
  -1.7999999999999999E-002     2.4398146574656072E-007
  -1.7950000000000001E-002     2.4967263643698405E-007
  -1.7899999999999999E-002     2.5545025454680656E-007
  -1.7850000000000001E-002     2.6131276586049704E-007
  -1.7800000000000000E-002     2.6725858763208371E-007
  -1.7749999999999998E-002     2.7328804030531283E-007
  -1.7700000000000000E-002     2.7940458809820918E-007
  -1.7649999999999999E-002     2.8561533058749039E-007
  -1.7600000000000001E-002     2.9192987380880128E-007
  -1.7550000000000000E-002     2.9835808928012257E-007
  -1.7499999999999998E-002     3.0490807900634000E-007
  -1.7450000000000000E-002     3.1158485539729553E-007
  -1.7399999999999999E-002     3.1839098372486020E-007
  -1.7350000000000001E-002     3.2532817657009692E-007
  -1.7299999999999999E-002     3.3239981100100875E-007
  -1.7250000000000001E-002     3.3961247126627309E-007
  -1.7200000000000000E-002     3.4697586011417773E-007
  -1.7149999999999999E-002     3.5450127978712859E-007
  -1.7100000000000001E-002     3.6219916991229329E-007
  -1.7049999999999999E-002     3.7007717462281354E-007
  -1.7000000000000001E-002     3.7813968248820754E-007
  -1.6950000000000000E-002     3.8638897741491597E-007
  -1.6899999999999998E-002     3.9482774410808380E-007
  -1.6850000000000000E-002     4.0346095704996146E-007
  -1.6799999999999999E-002     4.1229661401000849E-007
  -1.6750000000000001E-002     4.2134412946469486E-007
  -1.6700000000000000E-002     4.3061163494567450E-007
  -1.6649999999999998E-002     4.4010295621259601E-007
  -1.6600000000000000E-002     4.4981633483727934E-007
  -1.6549999999999999E-002     4.5974536121610164E-007
  -1.6500000000000001E-002     4.6988181348615004E-007
  -1.6449999999999999E-002     4.8021964031910671E-007
  -1.6400000000000001E-002     4.9075758701507191E-007
  -1.6350000000000000E-002     5.0150007779103173E-007
  -1.6299999999999999E-002     5.1245531767402295E-007
  -1.6250000000000001E-002     5.2363190053223394E-007
  -1.6199999999999999E-002     5.3503570224117588E-007
  -1.6150000000000001E-002     5.4666810131587267E-007
  -1.6100000000000000E-002     5.5852677776619442E-007
  -1.6049999999999998E-002     5.7060835143517218E-007
  -1.6000000000000000E-002     5.8291151562679995E-007
  -1.5949999999999999E-002     5.9543924232043955E-007
  -1.5900000000000001E-002     6.0819872107266587E-007
  -1.5850000000000000E-002     6.2119956153621863E-007
  -1.5799999999999998E-002     6.3445077929878069E-007
  -1.5750000000000000E-002     6.4795831921047528E-007
  -1.5699999999999999E-002     6.6172399284067295E-007
  -1.5650000000000001E-002     6.7574624052259177E-007
  -1.5599999999999999E-002     6.9002282563329229E-007
  -1.5550000000000001E-002     7.0455314903325640E-007
  -1.5500000000000000E-002     7.1933981484496751E-007
  -1.5449999999999998E-002     7.3438882409332124E-007
  -1.5400000000000000E-002     7.4970798329964431E-007
  -1.5349999999999999E-002     7.6530490807423028E-007
  -1.5300000000000001E-002     7.8118515190450292E-007
  -1.5250000000000000E-002     7.9735159534507936E-007
  -1.5199999999999998E-002     8.1380484469852535E-007
  -1.5150000000000000E-002     8.3054478332959435E-007
  -1.5099999999999999E-002     8.4757218739942363E-007
  -1.5050000000000001E-002     8.6489029428752673E-007
  -1.4999999999999999E-002     8.8250512768059932E-007
  -1.4949999999999998E-002     9.0042555707626256E-007
  -1.4900000000000000E-002     9.1866176118385409E-007
  -1.4849999999999999E-002     9.3722376111648970E-007
  -1.4800000000000001E-002     9.5611945016145113E-007
  -1.4749999999999999E-002     9.7535266754199218E-007
  -1.4700000000000001E-002     9.9492276309174794E-007
  -1.4650000000000000E-002     1.0148248641442167E-006
  -1.4599999999999998E-002     1.0350519621185536E-006
  -1.4550000000000000E-002     1.0555976824169909E-006
  -1.4499999999999999E-002     1.0764591326695893E-006
  -1.4450000000000001E-002     1.0976395761367002E-006
  -1.4400000000000000E-002     1.1191481776920682E-006
  -1.4349999999999998E-002     1.1409980700250465E-006
  -1.4300000000000000E-002     1.1632027122962661E-006
  -1.4249999999999999E-002     1.1857723901567749E-006
  -1.4200000000000001E-002     1.2087123516746861E-006
  -1.4149999999999999E-002     1.2320230384638454E-006
  -1.4099999999999998E-002     1.2557034613876248E-006
  -1.4050000000000000E-002     1.2797552437851455E-006
  -1.3999999999999999E-002     1.3041858281557300E-006
  -1.3950000000000001E-002     1.3290088603277478E-006
  -1.3899999999999999E-002     1.3542412738117034E-006
  -1.3850000000000001E-002     1.3798991755768364E-006
  -1.3800000000000000E-002     1.4059920581610099E-006
  -1.3749999999999998E-002     1.4325201809121797E-006
  -1.3700000000000000E-002     1.4594762637699832E-006
  -1.3649999999999999E-002     1.4868491310955673E-006
  -1.3600000000000001E-002     1.5146307302404368E-006
  -1.3550000000000000E-002     1.5428202560172469E-006
  -1.3499999999999998E-002     1.5714260714480005E-006
  -1.3450000000000000E-002     1.6004630754497526E-006
  -1.3399999999999999E-002     1.6299466353568687E-006
  -1.3350000000000001E-002     1.6598870787368093E-006
  -1.3299999999999999E-002     1.6902857640922577E-006
  -1.3249999999999998E-002     1.7211358600104426E-006
  -1.3200000000000000E-002     1.7524270825510082E-006
  -1.3149999999999998E-002     1.7841517137421845E-006
  -1.3100000000000001E-002     1.8163094525203936E-006
  -1.3049999999999999E-002     1.8489097575247322E-006
  -1.3000000000000001E-002     1.8819688055920063E-006
  -1.2950000000000000E-002     1.9155044528587768E-006
  -1.2899999999999998E-002     1.9495295985684533E-006
  -1.2850000000000000E-002     1.9840484997702691E-006
  -1.2799999999999999E-002     2.0190566694578511E-006