  -4.0000000000000001E-002     0.0000000000000000     
  -3.9949999999999999E-002     0.0000000000000000     
  -3.9899999999999998E-002    -1.1893685173500098E-011
  -3.9850000000000003E-002    -1.5351428496290597E-011
  -3.9800000000000002E-002     6.8527775229806099E-011
  -3.9750000000000001E-002     3.3131685913458836E-010
  -3.9699999999999999E-002     7.8140093640858884E-010
  -3.9649999999999998E-002     1.2875593413523745E-009
  -3.9600000000000003E-002     1.6337481936814724E-009
  -3.9550000000000002E-002     1.6617543009214681E-009
  -3.9500000000000000E-002     1.3928826630549791E-009
  -3.9449999999999999E-002     1.0271658322902529E-009
  -3.9399999999999998E-002     8.1622101778249865E-010
  -3.9350000000000003E-002     9.0655874153430567E-010
  -3.9300000000000002E-002     1.2651767118635897E-009
  -3.9250000000000000E-002     1.7219865640919222E-009
  -3.9199999999999999E-002     2.0714273670770103E-009
  -3.9150000000000004E-002     2.1512817916422161E-009
  -3.9100000000000003E-002     1.8688973298654669E-009
  -3.9050000000000001E-002     1.2068359874104872E-009
  -3.9000000000000000E-002     2.4352697552653536E-010
  -3.8949999999999999E-002    -8.2739464786155015E-010
  -3.8900000000000004E-002    -1.7345103811309901E-009
  -3.8850000000000003E-002    -2.2468944069667178E-009
  -3.8800000000000001E-002    -2.3152297179721374E-009
  -3.8750000000000000E-002    -2.1276788618788003E-009
  -3.8699999999999998E-002    -2.0170594764438445E-009
  -3.8650000000000004E-002    -2.2686962181796682E-009
  -3.8600000000000002E-002    -2.9618100998515610E-009
  -3.8550000000000001E-002    -3.9536643319085656E-009
  -3.8500000000000000E-002    -5.0027300926060296E-009
  -3.8449999999999998E-002    -5.9236303430694518E-009
  -3.8400000000000004E-002    -6.6604439435548906E-009
  -3.8350000000000002E-002    -7.2522140743562130E-009
  -3.8300000000000001E-002    -7.7575607749337057E-009
  -3.8249999999999999E-002    -8.2197336787900415E-009
  -3.8199999999999998E-002    -8.6874643246280035E-009
  -3.8150000000000003E-002    -9.2370772148758259E-009
  -3.8100000000000002E-002    -9.9413088605509033E-009
  -3.8050000000000000E-002    -1.0797288475415747E-008
  -3.7999999999999999E-002    -1.1685872355655668E-008
  -3.7949999999999998E-002    -1.2419974115992275E-008
  -3.7900000000000003E-002    -1.2859954423193929E-008
  -3.7850000000000002E-002    -1.3007070384698804E-008
  -3.7800000000000000E-002    -1.2999126175513717E-008
  -3.7749999999999999E-002    -1.3015508494328907E-008
  -3.7699999999999997E-002    -1.3173588772689597E-008
  -3.7650000000000003E-002    -1.3495857300581058E-008
  -3.7600000000000001E-002    -1.3954081687699103E-008
  -3.7550000000000000E-002    -1.4527313251889366E-008
  -3.7499999999999999E-002    -1.5210837361285258E-008
  -3.7449999999999997E-002    -1.5976818536803652E-008
  -3.7400000000000003E-002    -1.6745102311758084E-008
  -3.7350000000000001E-002    -1.7413730805449492E-008
  -3.7300000000000000E-002    -1.7933058964522496E-008
  -3.7249999999999998E-002    -1.8353740024921109E-008
  -3.7200000000000004E-002    -1.8795013025288345E-008
  -3.7150000000000002E-002    -1.9352825189229366E-008
  -3.7100000000000001E-002    -2.0026355997703612E-008
  -3.7050000000000000E-002    -2.0727812073160457E-008
  -3.6999999999999998E-002    -2.1365355650192844E-008
  -3.6950000000000004E-002    -2.1923652695944047E-008
  -3.6900000000000002E-002    -2.2471644451773079E-008
  -3.6850000000000001E-002    -2.3095940978311438E-008
  -3.6799999999999999E-002    -2.3824525111622184E-008
  -3.6749999999999998E-002    -2.4608645564377697E-008
  -3.6700000000000003E-002    -2.5372767900812829E-008
  -3.6650000000000002E-002    -2.6081273351705621E-008
  -3.6600000000000001E-002    -2.6762541196004071E-008
  -3.6549999999999999E-002    -2.7477572555763243E-008
  -3.6499999999999998E-002    -2.8271705483675856E-008
  -3.6450000000000003E-002    -2.9155522104971860E-008
  -3.6400000000000002E-002    -3.0123676396591951E-008
  -3.6350000000000000E-002    -3.1180567155677559E-008
  -3.6299999999999999E-002    -3.2339648540105064E-008
  -3.6249999999999998E-002    -3.3596773729134236E-008
  -3.6200000000000003E-002    -3.4909056163036865E-008
  -3.6150000000000002E-002    -3.6206567584695573E-008
  -3.6100000000000000E-002    -3.7430602406898850E-008
  -3.6049999999999999E-002    -3.8565363046090432E-008
  -3.6000000000000004E-002    -3.9636958666268552E-008
  -3.5950000000000003E-002    -4.0686133900363469E-008
  -3.5900000000000001E-002    -4.1744267537477956E-008
  -3.5850000000000000E-002    -4.2833646592637909E-008
  -3.5799999999999998E-002    -4.3983568660414992E-008
  -3.5750000000000004E-002    -4.5235919504053709E-008
  -3.5700000000000003E-002    -4.6626058467858234E-008
  -3.5650000000000001E-002    -4.8153903848442014E-008
  -3.5600000000000000E-002    -4.9774660407668227E-008
  -3.5549999999999998E-002    -5.1423485858113629E-008
  -3.5500000000000004E-002    -5.3057683394121439E-008
  -3.5450000000000002E-002    -5.4684017850924121E-008
  -3.5400000000000001E-002    -5.6351637472770917E-008
  -3.5349999999999999E-002    -5.8119057979060119E-008
  -3.5299999999999998E-002    -6.0020922761666492E-008
  -3.5250000000000004E-002    -6.2054014888247935E-008
  -3.5200000000000002E-002    -6.4183235201505265E-008
  -3.5150000000000001E-002    -6.6356744859801679E-008
  -3.5099999999999999E-002    -6.8521934398662735E-008
  -3.5049999999999998E-002    -7.0641122236165435E-008
  -3.5000000000000003E-002    -7.2705463409010704E-008
  -3.4950000000000002E-002    -7.4739481259383607E-008
  -3.4900000000000000E-002    -7.6788540805525460E-008
  -3.4849999999999999E-002    -7.8893780508445914E-008
  -3.4799999999999998E-002    -8.1072881673824337E-008
  -3.4750000000000003E-002    -8.3323833224788319E-008
  -3.4700000000000002E-002    -8.5648789105946197E-008
  -3.4650000000000000E-002    -8.8073849406979777E-008
  -3.4599999999999999E-002    -9.0641548989489741E-008
  -3.4549999999999997E-002    -9.3378087647536785E-008
  -3.4500000000000003E-002    -9.6264557513234577E-008
  -3.4450000000000001E-002    -9.9241917126771344E-008
  -3.4400000000000000E-002    -1.0225057612212728E-007
  -3.4349999999999999E-002    -1.0527241142616880E-007
  -3.4299999999999997E-002    -1.0833941528637378E-007
  -3.4250000000000003E-002    -1.1150274007504640E-007
  -3.4200000000000001E-002    -1.1479146932390036E-007
  -3.4150000000000000E-002    -1.1819752118567229E-007
  -3.4099999999999998E-002    -1.2169558351623683E-007
  -3.4049999999999997E-002    -1.2527282865670591E-007
  -3.4000000000000002E-002    -1.2893715618615735E-007
  -3.3950000000000001E-002    -1.3269825649877333E-007
  -3.3900000000000000E-002    -1.3654691652518237E-007
  -3.3849999999999998E-002    -1.4045954483735204E-007
  -3.3799999999999997E-002    -1.4442635129401202E-007
  -3.3750000000000002E-002    -1.4847351854980356E-007
  -3.3700000000000001E-002    -1.5265288168408890E-007
  -3.3649999999999999E-002    -1.5700570640148622E-007
  -3.3599999999999998E-002    -1.6153576379925159E-007
  -3.3550000000000003E-002    -1.6621960652827419E-007
  -3.3500000000000002E-002    -1.7104370747673722E-007
  -3.3450000000000001E-002    -1.7602815023483732E-007
  -3.3399999999999999E-002    -1.8120808923005031E-007
  -3.3349999999999998E-002    -1.8658774913454707E-007
  -3.3300000000000003E-002    -1.9211422941780152E-007
  -3.3250000000000002E-002    -1.9770498444786629E-007
  -3.3200000000000000E-002    -2.0331124039443925E-007
  -3.3149999999999999E-002    -2.0896230644066454E-007
  -3.3099999999999997E-002    -2.1474793524128762E-007
  -3.3050000000000003E-002    -2.2075176097718985E-007
  -3.3000000000000002E-002    -2.2699295112820517E-007
  -3.2950000000000000E-002    -2.3342634633321654E-007
  -3.2899999999999999E-002    -2.3999632541624447E-007
  -3.2850000000000004E-002    -2.4669137647574348E-007
  -3.2800000000000003E-002    -2.5354967172166563E-007
  -3.2750000000000001E-002    -2.6061529009927213E-007
  -3.2700000000000000E-002    -2.6789214153757781E-007
  -3.2649999999999998E-002    -2.7534168782714584E-007
  -3.2600000000000004E-002    -2.8292445591634402E-007
  -3.2550000000000003E-002    -2.9064227478842928E-007
  -3.2500000000000001E-002    -2.9853947454335641E-007
  -3.2450000000000000E-002    -3.0666486865071199E-007
  -3.2399999999999998E-002    -3.1503538587947842E-007
  -3.2350000000000004E-002    -3.2363771111639108E-007
  -3.2300000000000002E-002    -3.3246224620673400E-007
  -3.2250000000000001E-002    -3.4152906949424036E-007
  -3.2199999999999999E-002    -3.5087469903590754E-007
  -3.2149999999999998E-002    -3.6051187087653844E-007
  -3.2100000000000004E-002    -3.7040672382158449E-007
  -3.2050000000000002E-002    -3.8050288006645828E-007
  -3.2000000000000001E-002    -3.9077423921149737E-007
  -3.1949999999999999E-002    -4.0125645011139285E-007
  -3.1899999999999998E-002    -4.1202458165374114E-007
  -3.1850000000000003E-002    -4.2313490763363847E-007
  -3.1800000000000002E-002    -4.3458502005781340E-007
  -3.1750000000000000E-002    -4.4632856807593877E-007
  -3.1699999999999999E-002    -4.5832896427391452E-007
  -3.1649999999999998E-002    -4.7059843964998761E-007
  -3.1600000000000003E-002    -4.8318530430554610E-007
  -3.1550000000000002E-002    -4.9612380842014398E-007
  -3.1500000000000000E-002    -5.0939782137155204E-007
  -3.1449999999999999E-002    -5.2295586149513913E-007
  -3.1399999999999997E-002    -5.3676505871366663E-007
  -3.1350000000000003E-002    -5.5085230621719437E-007
  -3.1300000000000001E-002    -5.6529493057513774E-007
  -3.1250000000000000E-002    -5.8016932029980822E-007
  -3.1199999999999999E-002    -5.9550396362216479E-007
  -3.1150000000000001E-002    -6.1127494629084416E-007
  -3.1100000000000003E-002    -6.2744005877970819E-007
  -3.1050000000000001E-002    -6.4397378808415854E-007
  -3.1000000000000000E-002    -6.6087410840363024E-007
  -3.0949999999999998E-002    -6.7814506930088572E-007
  -3.0900000000000000E-002    -6.9578447283638169E-007
  -3.0850000000000002E-002    -7.1379461640140659E-007
  -3.0800000000000001E-002    -7.3220182861302847E-007
  -3.0750000000000000E-002    -7.5105756448025138E-007
  -3.0699999999999998E-002    -7.7040983804292718E-007
  -3.0650000000000000E-002    -7.9026915513336290E-007
  -3.0600000000000002E-002    -8.1060287263161135E-007
  -3.0550000000000001E-002    -8.3136839986152020E-007
  -3.0499999999999999E-002    -8.5255640601035142E-007
  -3.0449999999999998E-002    -8.7420548355439039E-007
  -3.0400000000000000E-002    -8.9637354846369567E-007
  -3.0350000000000002E-002    -9.1909572578505456E-007
  -3.0300000000000001E-002    -9.4236744124667423E-007
  -3.0249999999999999E-002    -9.6616807699719959E-007
  -3.0200000000000001E-002    -9.9049896170939541E-007
  -3.0150000000000000E-002    -1.0153974571403720E-006
  -3.0100000000000002E-002    -1.0409138155208345E-006
  -3.0050000000000000E-002    -1.0670742729096344E-006
  -2.9999999999999999E-002    -1.0938682116310228E-006
  -2.9950000000000001E-002    -1.1212686226060754E-006
  -2.9899999999999999E-002    -1.1492654515577359E-006
  -2.9850000000000002E-002    -1.1778778790028063E-006
  -2.9800000000000000E-002    -1.2071382464963832E-006
  -2.9749999999999999E-002    -1.2370669960129066E-006
  -2.9700000000000001E-002    -1.2676674757476167E-006
  -2.9650000000000003E-002    -1.2989423091183750E-006
  -2.9600000000000001E-002    -1.3309104622880135E-006
  -2.9550000000000000E-002    -1.3636042439215922E-006
  -2.9499999999999998E-002    -1.3970482113475772E-006
  -2.9450000000000000E-002    -1.4312464340936505E-006
  -2.9400000000000003E-002    -1.4661951042324428E-006
  -2.9350000000000001E-002    -1.5019086017375227E-006
  -2.9300000000000000E-002    -1.5384315166131230E-006
  -2.9249999999999998E-002    -1.5758164963373185E-006
  -2.9200000000000000E-002    -1.6140876271736435E-006
  -2.9150000000000002E-002    -1.6532256336516549E-006
  -2.9100000000000001E-002    -1.6931949081607456E-006
  -2.9049999999999999E-002    -1.7339899202607162E-006
  -2.8999999999999998E-002    -1.7756569732612109E-006
  -2.8950000000000000E-002    -1.8182694739460529E-006
  -2.8900000000000002E-002    -1.8618745354075592E-006
  -2.8850000000000001E-002    -1.9064625408945332E-006
  -2.8799999999999999E-002    -1.9519852741700811E-006
  -2.8749999999999998E-002    -1.9984061584751634E-006
  -2.8700000000000000E-002    -2.0457368092610629E-006
  -2.8650000000000002E-002    -2.0940300043228070E-006
  -2.8600000000000000E-002    -2.1433408677001515E-006
  -2.8549999999999999E-002    -2.1936997877438550E-006
  -2.8500000000000001E-002    -2.2451200108044126E-006
  -2.8450000000000000E-002    -2.2976256211426356E-006
  -2.8400000000000002E-002    -2.3512654234624943E-006
  -2.8350000000000000E-002    -2.4060916252317949E-006
  -2.8299999999999999E-002    -2.4621269410860127E-006
  -2.8250000000000001E-002    -2.5193551234289078E-006
  -2.8200000000000003E-002    -2.5777514185414979E-006
  -2.8150000000000001E-002    -2.6373238201913695E-006
  -2.8100000000000000E-002    -2.6981254222052269E-006
  -2.8049999999999999E-002    -2.7602223110691539E-006
  -2.8000000000000001E-002    -2.8236499187949400E-006
  -2.7950000000000003E-002    -2.8883979328032548E-006
  -2.7900000000000001E-002    -2.9544433811468858E-006
  -2.7850000000000000E-002    -3.0217977621198782E-006
  -2.7799999999999998E-002    -3.0905184405237834E-006
  -2.7750000000000000E-002    -3.1606704226426030E-006
  -2.7700000000000002E-002    -3.2322801583822869E-006
  -2.7650000000000001E-002    -3.3053233334073146E-006
  -2.7600000000000000E-002    -3.3797675220490415E-006
  -2.7549999999999998E-002    -3.4556295651480427E-006
  -2.7500000000000000E-002    -3.5329917900649759E-006
  -2.7450000000000002E-002    -3.6119621710433651E-006
  -2.7400000000000001E-002    -3.6926101937522441E-006
  -2.7349999999999999E-002    -3.7749407968917447E-006
  -2.7299999999999998E-002    -3.8589227779227276E-006
  -2.7250000000000000E-002    -3.9445457404452746E-006
  -2.7200000000000002E-002    -4.0318471505975032E-006
  -2.7150000000000001E-002    -4.1208919588997443E-006
  -2.7099999999999999E-002    -4.2117264359978778E-006
  -2.7049999999999998E-002    -4.3043572691492266E-006
  -2.7000000000000000E-002    -4.3987718119549700E-006
  -2.6950000000000002E-002    -4.4949777919190093E-006
  -2.6900000000000000E-002    -4.5930201787840637E-006
  -2.6849999999999999E-002    -4.6929553747551128E-006
  -2.6800000000000001E-002    -4.7948178063128921E-006
  -2.6749999999999999E-002    -4.8986117955703112E-006
  -2.6700000000000002E-002    -5.0043421329596109E-006
  -2.6650000000000000E-002    -5.1120472683361233E-006
  -2.6599999999999999E-002    -5.2218013298548593E-006
  -2.6550000000000001E-002    -5.3336794925167570E-006
  -2.6500000000000003E-002    -5.4477126552123988E-006
  -2.6450000000000001E-002    -5.5638880852743829E-006
  -2.6400000000000000E-002    -5.6821882797850911E-006
  -2.6349999999999998E-002    -5.8026382895204285E-006
  -2.6300000000000000E-002    -5.9253138684186331E-006
  -2.6250000000000002E-002    -6.0503056165403566E-006
  -2.6200000000000001E-002    -6.1776712600368219E-006
  -2.6150000000000000E-002    -6.3074204899006375E-006
  -2.6099999999999998E-002    -6.4395458438796830E-006
  -2.6050000000000000E-002    -6.5740645379279177E-006
  -2.6000000000000002E-002    -6.7110327667167324E-006
  -2.5950000000000001E-002    -6.8505174642460721E-006
  -2.5899999999999999E-002    -6.9925581639883059E-006
  -2.5849999999999998E-002    -7.1371583019550096E-006
  -2.5800000000000000E-002    -7.2843110507465968E-006
  -2.5750000000000002E-002    -7.4340367141880137E-006
  -2.5700000000000001E-002    -7.5863972258362980E-006
  -2.5649999999999999E-002    -7.7414750894067419E-006
  -2.5599999999999998E-002    -7.8993400004870170E-006
  -2.5550000000000000E-002    -8.0600359244287344E-006
  -2.5500000000000002E-002    -8.2235954660324742E-006
  -2.5450000000000000E-002    -8.3900535664093133E-006
  -2.5399999999999999E-002    -8.5594540731360052E-006
  -2.5349999999999998E-002    -8.7318332659633126E-006
  -2.5300000000000000E-002    -8.9072097063871308E-006
  -2.5250000000000002E-002    -9.0855983223756044E-006
  -2.5200000000000000E-002    -9.2670334047559134E-006
  -2.5149999999999999E-002    -9.4515790730185721E-006
  -2.5100000000000001E-002    -9.6393151422849286E-006
  -2.5049999999999999E-002    -9.8303065488801784E-006
  -2.5000000000000001E-002    -1.0024583624527589E-005
  -2.4950000000000000E-002    -1.0222151651618698E-005
  -2.4899999999999999E-002    -1.0423024316410317E-005
  -2.4850000000000001E-002    -1.0627246907486798E-005
  -2.4800000000000003E-002    -1.0834881286044979E-005
  -2.4750000000000001E-002    -1.1045986255243117E-005
  -2.4700000000000000E-002    -1.1260597099599911E-005
  -2.4649999999999998E-002    -1.1478733868316052E-005
  -2.4600000000000000E-002    -1.1700426970699441E-005
  -2.4550000000000002E-002    -1.1925728961996055E-005
  -2.4500000000000001E-002    -1.2154713602551600E-005
  -2.4450000000000000E-002    -1.2387447377792159E-005
  -2.4399999999999998E-002    -1.2623977690349969E-005
  -2.4350000000000000E-002    -1.2864346692654959E-005
  -2.4299999999999999E-002    -1.3108596171521112E-005
  -2.4250000000000001E-002    -1.3356773050923070E-005
  -2.4199999999999999E-002    -1.3608919052925095E-005
  -2.4150000000000001E-002    -1.3865060801707131E-005
  -2.4100000000000000E-002    -1.4125219741624518E-005
  -2.4049999999999998E-002    -1.4389436574694829E-005
  -2.4000000000000000E-002    -1.4657776085789945E-005
  -2.3949999999999999E-002    -1.4930319924515995E-005
  -2.3900000000000001E-002    -1.5207137637552338E-005
  -2.3850000000000000E-002    -1.5488265920996972E-005
  -2.3800000000000002E-002    -1.5773721500740222E-005
  -2.3750000000000000E-002    -1.6063532655254273E-005
  -2.3699999999999999E-002    -1.6357755313579408E-005
  -2.3650000000000001E-002    -1.6656465757167908E-005
  -2.3599999999999999E-002    -1.6959727839590133E-005
  -2.3550000000000001E-002    -1.7267572575258995E-005
  -2.3500000000000000E-002    -1.7580013945362908E-005
  -2.3449999999999999E-002    -1.7897082924217269E-005
  -2.3400000000000001E-002    -1.8218852143212548E-005
  -2.3349999999999999E-002    -1.8545415849761035E-005
  -2.3300000000000001E-002    -1.8876857798682278E-005
  -2.3250000000000000E-002    -1.9213213907478875E-005
  -2.3199999999999998E-002    -1.9554498189437209E-005
  -2.3150000000000000E-002    -1.9900725882795555E-005
  -2.3099999999999999E-002    -2.0251941828103374E-005
  -2.3050000000000001E-002    -2.0608216386564611E-005
  -2.3000000000000000E-002    -2.0969612070427330E-005
  -2.2950000000000002E-002    -2.1336160692292528E-005
  -2.2900000000000000E-002    -2.1707893100963292E-005
  -2.2849999999999999E-002    -2.2084855581510446E-005
  -2.2800000000000001E-002    -2.2467123584102025E-005
  -2.2749999999999999E-002    -2.2854781044842512E-005
  -2.2700000000000001E-002    -2.3247873302561718E-005
  -2.2650000000000000E-002    -2.3646410324873678E-005
  -2.2599999999999999E-002    -2.4050388422092899E-005
  -2.2550000000000001E-002    -2.4459842198127817E-005
  -2.2499999999999999E-002    -2.4874852969192537E-005
  -2.2450000000000001E-002    -2.5295520703857410E-005
  -2.2400000000000000E-002    -2.5721908078813692E-005
  -2.2349999999999998E-002    -2.6154021624338175E-005
  -2.2300000000000000E-002    -2.6591854551464896E-005
  -2.2249999999999999E-002    -2.7035433701281005E-005
  -2.2200000000000001E-002    -2.7484840737125267E-005
  -2.2150000000000000E-002    -2.7940172814080388E-005
  -2.2100000000000002E-002    -2.8401498352357348E-005
  -2.2050000000000000E-002    -2.8868835983887674E-005
  -2.1999999999999999E-002    -2.9342178576800623E-005
  -2.1950000000000001E-002    -2.9821543383544836E-005
  -2.1899999999999999E-002    -3.0306995062032667E-005
  -2.1850000000000001E-002    -3.0798622015214359E-005
  -2.1800000000000000E-002    -3.1296479519151057E-005
  -2.1749999999999999E-002    -3.1800577991565945E-005
  -2.1700000000000001E-002    -3.2310919512076338E-005
  -2.1649999999999999E-002    -3.2827531259549891E-005
  -2.1600000000000001E-002    -3.3350484068124151E-005
  -2.1550000000000000E-002    -3.3879868917632228E-005
  -2.1499999999999998E-002    -3.4415731942662765E-005
  -2.1450000000000000E-002    -3.4958073472404416E-005
  -2.1399999999999999E-002    -3.5506886604946864E-005
  -2.1350000000000001E-002    -3.6062194616289753E-005
  -2.1299999999999999E-002    -3.6624058467977598E-005
  -2.1250000000000002E-002    -3.7192544770351516E-005
  -2.1200000000000000E-002    -3.7767692788878205E-005
  -2.1149999999999999E-002    -3.8349511928695352E-005
  -2.1100000000000001E-002    -3.8938006614358054E-005
  -2.1049999999999999E-002    -3.9533218137380801E-005
  -2.1000000000000001E-002    -4.0135235408054982E-005
  -2.0950000000000000E-002    -4.0744141019639273E-005
  -2.0899999999999998E-002    -4.1359964365280850E-005
  -2.0850000000000000E-002    -4.1982675604110869E-005
  -2.0799999999999999E-002    -4.2612223023372967E-005
  -2.0750000000000001E-002    -4.3248606193190591E-005
  -2.0700000000000000E-002    -4.3891880234410165E-005
  -2.0649999999999998E-002    -4.4542123386371515E-005
  -2.0600000000000000E-002    -4.5199391740328326E-005
  -2.0549999999999999E-002    -4.5863687288054774E-005
  -2.0500000000000001E-002    -4.6534989350839574E-005
  -2.0449999999999999E-002    -4.7213297599393144E-005
  -2.0400000000000001E-002    -4.7898646248855490E-005
  -2.0350000000000000E-002    -4.8591079387612176E-005
  -2.0299999999999999E-002    -4.9290622108818667E-005
  -2.0250000000000001E-002    -4.9997250170783655E-005
  -2.0199999999999999E-002    -5.0710943005232421E-005
  -2.0150000000000001E-002    -5.1431719977914618E-005
  -2.0100000000000000E-002    -5.2159628435360431E-005
  -2.0049999999999998E-002    -5.2894729441845948E-005
  -2.0000000000000000E-002    -5.3637033360803162E-005
  -1.9949999999999999E-002    -5.4386517225496208E-005
  -1.9900000000000001E-002    -5.5143144969845153E-005
  -1.9850000000000000E-002    -5.5906916759930288E-005
  -1.9799999999999998E-002    -5.6677858963339868E-005
  -1.9750000000000000E-002    -5.7455998062914336E-005
  -1.9699999999999999E-002    -5.8241325784423351E-005
  -1.9650000000000001E-002    -5.9033778958381632E-005
  -1.9599999999999999E-002    -5.9833329236537699E-005
  -1.9550000000000001E-002    -6.0639969420570768E-005
  -1.9500000000000000E-002    -6.1453749360114497E-005
  -1.9449999999999999E-002    -6.2274690633551670E-005
  -1.9400000000000001E-002    -6.3102778055734986E-005
  -1.9349999999999999E-002    -6.3937934163697414E-005
  -1.9300000000000001E-002    -6.4780102995024401E-005
  -1.9250000000000000E-002    -6.5629287341396409E-005
  -1.9199999999999998E-002    -6.6485535490453708E-005
  -1.9150000000000000E-002    -6.7348882876178313E-005
  -1.9099999999999999E-002    -6.8219313910088927E-005
  -1.9050000000000001E-002    -6.9096766154539866E-005
  -1.9000000000000000E-002    -6.9981159395435564E-005
  -1.8949999999999998E-002    -7.0872439096223745E-005
  -1.8900000000000000E-002    -7.1770591928069574E-005
  -1.8849999999999999E-002    -7.2675599547424583E-005
  -1.8800000000000001E-002    -7.3587415392254663E-005
  -1.8749999999999999E-002    -7.4505985154558278E-005
  -1.8700000000000001E-002    -7.5431268675559872E-005
  -1.8650000000000000E-002    -7.6363243745414722E-005
  -1.8599999999999998E-002    -7.7301900743520201E-005
  -1.8550000000000001E-002    -7.8247212112565534E-005
  -1.8499999999999999E-002    -7.9199092544447324E-005
  -1.8450000000000001E-002    -8.0157437035373113E-005
  -1.8400000000000000E-002    -8.1122164646034613E-005
  -1.8349999999999998E-002    -8.2093236356068630E-005
  -1.8300000000000000E-002    -8.3070634666424696E-005
  -1.8249999999999999E-002    -8.4054318146577732E-005
  -1.8200000000000001E-002    -8.5044207410266690E-005
  -1.8149999999999999E-002    -8.6040216076295267E-005
  -1.8100000000000002E-002    -8.7042279604720031E-005
  -1.8050000000000000E-002    -8.8050369169601355E-005
  -1.7999999999999999E-002    -8.9064450918384256E-005
  -1.7950000000000001E-002    -9.0084447777012775E-005
  -1.7899999999999999E-002    -9.1110233749402687E-005
  -1.7850000000000001E-002    -9.2141655617912686E-005
  -1.7800000000000000E-002    -9.3178598293748523E-005
  -1.7749999999999998E-002    -9.4220989912070598E-005
  -1.7700000000000000E-002    -9.5268796299262311E-005
  -1.7649999999999999E-002    -9.6321962587046667E-005
  -1.7600000000000001E-002    -9.7380391617926828E-005
  -1.7550000000000000E-002    -9.8443967729234684E-005
  -1.7499999999999998E-002    -9.9512565766285822E-005
  -1.7450000000000000E-002    -1.0058607373846156E-004
  -1.7399999999999999E-002    -1.0166437251415014E-004
  -1.7350000000000001E-002    -1.0274732642546661E-004
  -1.7299999999999999E-002    -1.0383480784758534E-004
  -1.7250000000000001E-002    -1.0492671583452153E-004
  -1.7200000000000000E-002    -1.0602296676655073E-004
  -1.7149999999999999E-002    -1.0712351542018357E-004
  -1.7100000000000001E-002    -1.0822826314049993E-004
  -1.7049999999999999E-002    -1.0933706705784467E-004
  -1.7000000000000001E-002    -1.1044971989395476E-004
  -1.6950000000000000E-002    -1.1156605755355774E-004
  -1.6899999999999998E-002    -1.1268592735616851E-004
  -1.6850000000000000E-002    -1.1380921516943027E-004
  -1.6799999999999999E-002    -1.1493580366711597E-004
  -1.6750000000000001E-002    -1.1606554899828479E-004
  -1.6700000000000000E-002    -1.1719828037193050E-004
  -1.6649999999999998E-002    -1.1833381627387261E-004
  -1.6600000000000000E-002    -1.1947204488240074E-004
  -1.6549999999999999E-002    -1.2061281675172886E-004
  -1.6500000000000001E-002    -1.2175599070755210E-004
  -1.6449999999999999E-002    -1.2290140181087154E-004
  -1.6400000000000001E-002    -1.2404882526541766E-004
  -1.6350000000000000E-002    -1.2519808099353033E-004
  -1.6299999999999999E-002    -1.2634897053151356E-004
  -1.6250000000000001E-002    -1.2750137582084685E-004
  -1.6199999999999999E-002    -1.2865511587394090E-004
  -1.6150000000000001E-002    -1.2980998712172999E-004
  -1.6100000000000000E-002    -1.3096581583354151E-004
  -1.6049999999999998E-002    -1.3212243171370033E-004
  -1.6000000000000000E-002    -1.3327964977929415E-004
  -1.5949999999999999E-002    -1.3443728348325730E-004
  -1.5900000000000001E-002    -1.3559514387582951E-004
  -1.5850000000000000E-002    -1.3675299828521642E-004
  -1.5799999999999998E-002    -1.3791057724378249E-004
  -1.5750000000000000E-002    -1.3906768337581605E-004
  -1.5699999999999999E-002    -1.4022415894493002E-004
  -1.5650000000000001E-002    -1.4137978438699412E-004
  -1.5599999999999999E-002    -1.4253434382439228E-004
  -1.5550000000000001E-002    -1.4368755986089260E-004
  -1.5500000000000000E-002    -1.4483916043358394E-004
  -1.5449999999999998E-002    -1.4598891024362391E-004
  -1.5400000000000000E-002    -1.4713660921928225E-004
  -1.5349999999999999E-002    -1.4828211945701699E-004
  -1.5300000000000001E-002    -1.4942526200650990E-004
  -1.5250000000000000E-002    -1.5056575689758678E-004
  -1.5199999999999998E-002    -1.5170330776559672E-004
  -1.5150000000000000E-002    -1.5283763533966240E-004
  -1.5099999999999999E-002    -1.5396850291796670E-004
  -1.5050000000000001E-002    -1.5509565113945491E-004
  -1.4999999999999999E-002    -1.5621884564530450E-004
  -1.4949999999999998E-002    -1.5733780670225671E-004
  -1.4900000000000000E-002    -1.5845227135120188E-004
  -1.4849999999999999E-002    -1.5956199671033659E-004
  -1.4800000000000001E-002    -1.6066676544960649E-004
  -1.4749999999999999E-002    -1.6176632403993495E-004
  -1.4700000000000001E-002    -1.6286039164609234E-004
  -1.4650000000000000E-002    -1.6394863237954223E-004
  -1.4599999999999998E-002    -1.6503071262903297E-004
  -1.4550000000000000E-002    -1.6610634591728666E-004
  -1.4499999999999999E-002    -1.6717531082303976E-004
  -1.4450000000000001E-002    -1.6823734198332410E-004
  -1.4400000000000000E-002    -1.6929216995374078E-004
  -1.4349999999999998E-002    -1.7033944354781332E-004
  -1.4300000000000000E-002    -1.7137886901005334E-004
  -1.4249999999999999E-002    -1.7241019941312155E-004
  -1.4200000000000001E-002    -1.7343320001839810E-004
  -1.4149999999999999E-002    -1.7444758184783621E-004
  -1.4099999999999998E-002    -1.7545302046595451E-004
  -1.4050000000000000E-002    -1.7644911671237530E-004
  -1.3999999999999999E-002    -1.7743549560129108E-004
  -1.3950000000000001E-002    -1.7841185652306646E-004
  -1.3899999999999999E-002    -1.7937797733396112E-004
  -1.3850000000000001E-002    -1.8033363574678708E-004
  -1.3800000000000000E-002    -1.8127851142034186E-004
  -1.3749999999999998E-002    -1.8221225616817680E-004
  -1.3700000000000000E-002    -1.8313448834875493E-004
  -1.3649999999999999E-002    -1.8404486376794954E-004
  -1.3600000000000001E-002    -1.8494307646015897E-004
  -1.3550000000000000E-002    -1.8582883269557528E-004
  -1.3499999999999998E-002    -1.8670180137940628E-004
  -1.3450000000000000E-002    -1.8756163918490614E-004
  -1.3399999999999999E-002    -1.8840801777737022E-004
  -1.3350000000000001E-002    -1.8924063900218588E-004
  -1.3299999999999999E-002    -1.9005925924599375E-004
  -1.3249999999999998E-002    -1.9086352996260217E-004
  -1.3200000000000000E-002    -1.9165306838575384E-004
  -1.3149999999999998E-002    -1.9242739398982336E-004
  -1.3100000000000001E-002    -1.9318615158271671E-004
  -1.3049999999999999E-002    -1.9392906552689228E-004
  -1.3000000000000001E-002    -1.9465590874629454E-004
  -1.2950000000000000E-002    -1.9536648756355944E-004
  -1.2899999999999998E-002    -1.9606044269625727E-004
  -1.2850000000000000E-002    -1.9673733980418799E-004
  -1.2799999999999999E-002    -1.9739676188549108E-004