  -4.0000000000000001E-002     0.0000000000000000     
  -3.9949999999999999E-002     0.0000000000000000     
  -3.9899999999999998E-002     0.0000000000000000     
  -3.9850000000000003E-002     0.0000000000000000     
  -3.9800000000000002E-002    -1.7241966232632932E-017
  -3.9750000000000001E-002     4.2847957850003206E-017
  -3.9699999999999999E-002     6.5132603292069005E-016
  -3.9649999999999998E-002     2.1537049862932145E-015
  -3.9600000000000003E-002     2.2701101080274554E-015
  -3.9550000000000002E-002    -7.3560567236601423E-015
  -3.9500000000000000E-002    -4.0228451856302016E-014
  -3.9449999999999999E-002    -1.0312617824689842E-013
  -3.9399999999999998E-002    -1.7417418942612931E-013
  -3.9350000000000003E-002    -1.8623278097829949E-013
  -3.9300000000000002E-002    -4.0292112799866445E-014
  -3.9250000000000000E-002     3.3722698130211222E-013
  -3.9199999999999999E-002     9.1228388861962455E-013
  -3.9150000000000004E-002     1.4902643197887466E-012
  -3.9100000000000003E-002     1.7515998518906415E-012
  -3.9050000000000001E-002     1.3922915919234651E-012
  -3.9000000000000000E-002     3.1182653783118710E-013
  -3.8949999999999999E-002    -1.2642677613313244E-012
  -3.8900000000000004E-002    -2.8278105950925000E-012
  -3.8850000000000003E-002    -3.8098599125862849E-012
  -3.8800000000000001E-002    -3.8768367242196108E-012
  -3.8750000000000000E-002    -3.1277992211959991E-012
  -3.8699999999999998E-002    -2.0540557856461015E-012
  -3.8650000000000004E-002    -1.2517219773878159E-012
  -3.8600000000000002E-002    -1.0306640339291290E-012
  -3.8550000000000001E-002    -1.1463592971973574E-012
  -3.8500000000000000E-002    -8.3739912707435607E-013
  -3.8449999999999998E-002     8.0418998976042937E-013
  -3.8400000000000004E-002     4.2892267652590145E-012
  -3.8350000000000002E-002     9.2892828960793600E-012
  -3.8300000000000001E-002     1.4548265914937546E-011
  -3.8249999999999999E-002     1.8242085548748208E-011
  -3.8199999999999998E-002     1.8663714756350916E-011
  -3.8150000000000003E-002     1.4942948558505097E-011
  -3.8100000000000002E-002     7.4768405997122541E-012
  -3.8050000000000000E-002    -2.1345197028893305E-012
  -3.7999999999999999E-002    -1.1640649690162641E-011
  -3.7949999999999998E-002    -1.8971932494769389E-011
  -3.7900000000000003E-002    -2.3029844311390737E-011
  -3.7850000000000002E-002    -2.4130374988272513E-011
  -3.7800000000000000E-002    -2.3906928130411623E-011
  -3.7749999999999999E-002    -2.4643356893042591E-011
  -3.7699999999999997E-002    -2.8190992423213957E-011
  -3.7650000000000003E-002    -3.4804000934434286E-011
  -3.7600000000000001E-002    -4.2361571379693484E-011
  -3.7550000000000000E-002    -4.6449800372709108E-011
  -3.7499999999999999E-002    -4.1561189432215264E-011
  -3.7449999999999997E-002    -2.3228046350603672E-011
  -3.7400000000000003E-002     9.6178544317911039E-012
  -3.7350000000000001E-002     5.3099666224760447E-011
  -3.7300000000000000E-002     9.8585626731469626E-011
  -3.7249999999999998E-002     1.3490235329883939E-010
  -3.7200000000000004E-002     1.5193884568636133E-010
  -3.7150000000000002E-002     1.4424913332058484E-010
  -3.7100000000000001E-002     1.1309159904945048E-010
  -3.7050000000000000E-002     6.5923142851900435E-011
  -3.6999999999999998E-002     1.3473608616541417E-011
  -3.6950000000000004E-002    -3.4356611214867337E-011
  -3.6900000000000002E-002    -7.1952882045946501E-011
  -3.6850000000000001E-002    -9.9238830467046693E-011
  -3.6799999999999999E-002    -1.2017923389074847E-010
  -3.6749999999999998E-002    -1.3928191005240899E-010
  -3.6700000000000003E-002    -1.5780478859276782E-010
  -3.6650000000000002E-002    -1.7151745939864791E-010
  -3.6600000000000001E-002    -1.7110744382959985E-010
  -3.6549999999999999E-002    -1.4503085094183785E-010
  -3.6499999999999998E-002    -8.3445520975637010E-011
  -3.6450000000000003E-002     1.8561646670874540E-011
  -3.6400000000000002E-002     1.5973302729303023E-010
  -3.6350000000000000E-002     3.3355231729290601E-010
  -3.6299999999999999E-002     5.3043552539563366E-010
  -3.6249999999999998E-002     7.3993986578392687E-010
  -3.6200000000000003E-002     9.5213068704730133E-010
  -3.6150000000000002E-002     1.1580512199662856E-009
  -3.6100000000000000E-002     1.3498406772557492E-009
  -3.6049999999999999E-002     1.5210651840302421E-009
  -3.6000000000000004E-002     1.6673621281788429E-009
  -3.5950000000000003E-002     1.7870156551905581E-009
  -3.5900000000000001E-002     1.8809929251058880E-009
  -3.5850000000000000E-002     1.9523391912233379E-009
  -3.5799999999999998E-002     2.0053158062717150E-009
  -3.5750000000000004E-002     2.0448204983721902E-009
  -3.5700000000000003E-002     2.0763381744056642E-009
  -3.5650000000000001E-002     2.1061249920124323E-009
  -3.5600000000000000E-002     2.1410169909780846E-009
  -3.5549999999999998E-002     2.1874309876564718E-009
  -3.5500000000000004E-002     2.2497126898835862E-009
  -3.5450000000000002E-002     2.3286024161563291E-009
  -3.5400000000000001E-002     2.4207864438092901E-009
  -3.5349999999999999E-002     2.5200984617295674E-009
  -3.5299999999999998E-002     2.6200796448715354E-009
  -3.5250000000000004E-002     2.7167412887418806E-009
  -3.5200000000000002E-002     2.8099719060961054E-009
  -3.5150000000000001E-002     2.9024871664723104E-009
  -3.5099999999999999E-002     2.9964426643900290E-009
  -3.5049999999999998E-002     3.0893482867702997E-009
  -3.5000000000000003E-002     3.1718589159684528E-009
  -3.4950000000000002E-002     3.2295824715569735E-009
  -3.4900000000000000E-002     3.2491506688316185E-009
  -3.4849999999999999E-002     3.2262244765251823E-009
  -3.4799999999999998E-002     3.1713557764066144E-009
  -3.4750000000000003E-002     3.1099821113264802E-009
  -3.4700000000000002E-002     3.0754385567621554E-009
  -3.4650000000000000E-002     3.0975114576851345E-009
  -3.4599999999999999E-002     3.1916413297441273E-009
  -3.4549999999999997E-002     3.3538732108344513E-009
  -3.4500000000000003E-002     3.5639144833240965E-009
  -3.4450000000000001E-002     3.7946973605227140E-009
  -3.4400000000000000E-002     4.0237757851152139E-009
  -3.4349999999999999E-002     4.2412442631512063E-009
  -3.4299999999999997E-002     4.4507573207896850E-009
  -3.4250000000000003E-002     4.6635511998668211E-009
  -3.4200000000000001E-002     4.8884743426205542E-009
  -3.4150000000000000E-002     5.1226866318358458E-009
  -3.4099999999999998E-002     5.3474016009438533E-009
  -3.4049999999999997E-002     5.5310131958310421E-009
  -3.4000000000000002E-002     5.6389264179136845E-009
  -3.3950000000000001E-002     5.6464775556808330E-009
  -3.3900000000000000E-002     5.5496693521791541E-009
  -3.3849999999999998E-002     5.3689110466292048E-009
  -3.3799999999999997E-002     5.1436332998648711E-009
  -3.3750000000000002E-002     4.9194461242689771E-009
  -3.3700000000000001E-002     4.7327507156536834E-009
  -3.3649999999999999E-002     4.5988457514037652E-009
  -3.3599999999999998E-002     4.5080697084869447E-009
  -3.3550000000000003E-002     4.4312299090097329E-009
  -3.3500000000000002E-002     4.3319546238552957E-009
  -3.3450000000000001E-002     4.1810816494182479E-009
  -3.3399999999999999E-002     3.9675574782071773E-009
  -3.3349999999999998E-002     3.7015455504766237E-009
  -3.3300000000000003E-002     3.4082485956929306E-009
  -3.3250000000000002E-002     3.1145797511488076E-009
  -3.3200000000000000E-002     2.8341369873798458E-009
  -3.3149999999999999E-002     2.5574436129318672E-009
  -3.3099999999999997E-002     2.2528908022174151E-009
  -3.3050000000000003E-002     1.8792887820118699E-009
  -3.3000000000000002E-002     1.4052267391930825E-009
  -3.2950000000000000E-002     8.2651375681055459E-010
  -3.2899999999999999E-002     1.7321510716810073E-010
  -3.2850000000000004E-002    -4.9756008552501355E-010
  -3.2800000000000003E-002    -1.1202714433534871E-009
  -3.2750000000000001E-002    -1.6428929141191401E-009
  -3.2700000000000000E-002    -2.0429823928953836E-009
  -3.2649999999999998E-002    -2.3318140476527411E-009
  -3.2600000000000004E-002    -2.5459397871012358E-009
  -3.2550000000000003E-002    -2.7305183815525903E-009
  -3.2500000000000001E-002    -2.9213343558810590E-009
  -3.2450000000000000E-002    -3.1322198919861453E-009
  -3.2399999999999998E-002    -3.3521974251065488E-009
  -3.2350000000000004E-002    -3.5530950144035133E-009
  -3.2300000000000002E-002    -3.7046179288796029E-009
  -3.2250000000000001E-002    -3.7909652391721333E-009
  -3.2199999999999999E-002    -3.8221630007561259E-009
  -3.2149999999999998E-002    -3.8350284655526938E-009
  -3.2100000000000004E-002    -3.8827017823863866E-009
  -3.2050000000000002E-002    -4.0163352130622030E-009
  -3.2000000000000001E-002    -4.2658061156432760E-009
  -3.1949999999999999E-002    -4.6267519648549257E-009
  -3.1899999999999998E-002    -5.0589023654064468E-009
  -3.1850000000000003E-002    -5.4967624169053465E-009
  -3.1800000000000002E-002    -5.8696221620716556E-009
  -3.1750000000000000E-002    -6.1246964313107907E-009
  -3.1699999999999999E-002    -6.2456185504460010E-009
  -3.1649999999999998E-002    -6.2591369821742072E-009
  -3.1600000000000003E-002    -6.2262302013275624E-009
  -3.1550000000000002E-002    -6.2196592434278062E-009
  -3.1500000000000000E-002    -6.2961920198269301E-009
  -3.1449999999999999E-002    -6.4752781136872776E-009
  -3.1399999999999997E-002    -6.7341176753703097E-009
  -3.1350000000000003E-002    -7.0219053001212146E-009
  -3.1300000000000001E-002    -7.2867864668340973E-009
  -3.1250000000000000E-002    -7.5027169146904334E-009
  -3.1199999999999999E-002    -7.6835299570154340E-009
  -3.1150000000000001E-002    -7.8780186577271404E-009
  -3.1100000000000003E-002    -8.1490574782554061E-009
  -3.1050000000000001E-002    -8.5467867469108189E-009
  -3.1000000000000000E-002    -9.0875782264853368E-009
  -3.0949999999999998E-002    -9.7468699381251095E-009
  -3.0900000000000000E-002    -1.0467529648638879E-008
  -3.0850000000000002E-002    -1.1179403895134830E-008
  -3.0800000000000001E-002    -1.1822108609273278E-008
  -3.0750000000000000E-002    -1.2362810838229117E-008
  -3.0699999999999998E-002    -1.2803189625988203E-008
  -3.0650000000000000E-002    -1.3174132095793168E-008
  -3.0600000000000002E-002    -1.3521428761698007E-008
  -3.0550000000000001E-002    -1.3888937831313815E-008
  -3.0499999999999999E-002    -1.4306009322075496E-008
  -3.0449999999999998E-002    -1.4783253272284654E-008
  -3.0400000000000000E-002    -1.5316406639508122E-008
  -3.0350000000000002E-002    -1.5894697805192730E-008
  -3.0300000000000001E-002    -1.6509134284826567E-008
  -3.0249999999999999E-002    -1.7157646290272520E-008
  -3.0200000000000001E-002    -1.7846213313068335E-008
  -3.0150000000000000E-002    -1.8586631891562235E-008
  -3.0100000000000002E-002    -1.9391907536975309E-008
  -3.0050000000000000E-002    -2.0270396415357246E-008
  -2.9999999999999999E-002    -2.1220328959336578E-008
  -2.9950000000000001E-002    -2.2227187398106456E-008
  -2.9899999999999999E-002    -2.3265993380873635E-008
  -2.9850000000000002E-002    -2.4308526478787627E-008
  -2.9800000000000000E-002    -2.5332408680541702E-008
  -2.9749999999999999E-002    -2.6327358183341535E-008
  -2.9700000000000001E-002    -2.7295182851189152E-008
  -2.9650000000000003E-002    -2.8244045745460375E-008
  -2.9600000000000001E-002    -2.9181307108992964E-008
  -2.9550000000000000E-002    -3.0110199746205305E-008
  -2.9499999999999998E-002    -3.1032848835433356E-008
  -2.9450000000000000E-002    -3.1957472280341262E-008
  -2.9400000000000003E-002    -3.2904425848768598E-008
  -2.9350000000000001E-002    -3.3906079337755501E-008
  -2.9300000000000000E-002    -3.4999209286352430E-008
  -2.9249999999999998E-002    -3.6212934078618323E-008
  -2.9200000000000000E-002    -3.7557803975344897E-008
  -2.9150000000000002E-002    -3.9021229832938378E-008
  -2.9100000000000001E-002    -4.0571579868089659E-008
  -2.9049999999999999E-002    -4.2169530753791708E-008
  -2.8999999999999998E-002    -4.3782256643068846E-008
  -2.8950000000000000E-002    -4.5394734721199888E-008
  -2.8900000000000002E-002    -4.7013413047688499E-008
  -2.8850000000000001E-002    -4.8660508911928684E-008
  -2.8799999999999999E-002    -5.0361524406371645E-008
  -2.8749999999999998E-002    -5.2131776736958330E-008
  -2.8700000000000000E-002    -5.3968589374836957E-008
  -2.8650000000000002E-002    -5.5852944071219714E-008
  -2.8600000000000000E-002    -5.7759704174288478E-008
  -2.8549999999999999E-002    -5.9671223674805652E-008
  -2.8500000000000001E-002    -6.1588008977722426E-008
  -2.8450000000000000E-002    -6.3532111174732939E-008
  -2.8400000000000002E-002    -6.5542779843674408E-008
  -2.8350000000000000E-002    -6.7666725873989481E-008
  -2.8299999999999999E-002    -6.9946240164736612E-008
  -2.8250000000000001E-002    -7.2408194317201965E-008
  -2.8200000000000003E-002    -7.5056226242564686E-008
  -2.8150000000000001E-002    -7.7868500657037151E-008
  -2.8100000000000000E-002    -8.0802886272082966E-008
  -2.8049999999999999E-002    -8.3809474878175376E-008
  -2.8000000000000001E-002    -8.6847183286281796E-008
  -2.7950000000000003E-002    -8.9898024435414729E-008
  -2.7900000000000001E-002    -9.2972456457873222E-008
  -2.7850000000000000E-002    -9.6102667955703549E-008
  -2.7799999999999998E-002    -9.9326338940010597E-008
  -2.7750000000000000E-002    -1.0266824110821513E-007
  -2.7700000000000002E-002    -1.0612836322776352E-007
  -2.7650000000000001E-002    -1.0968202681863642E-007
  -2.7600000000000000E-002    -1.1329195602834428E-007
  -2.7549999999999998E-002    -1.1692665437444850E-007
  -2.7500000000000000E-002    -1.2057702029952599E-007
  -2.7450000000000002E-002    -1.2426389975183196E-007
  -2.7400000000000001E-002    -1.2803362007740729E-007
  -2.7349999999999999E-002    -1.3194360833081540E-007
  -2.7299999999999998E-002    -1.3604436940021392E-007
  -2.7250000000000000E-002    -1.4036550694948003E-007
  -2.7200000000000002E-002    -1.4491099963246882E-007
  -2.7150000000000001E-002    -1.4966433992422560E-007
  -2.7099999999999999E-002    -1.5459941582789404E-007
  -2.7049999999999998E-002    -1.5969112601136004E-007
  -2.7000000000000000E-002    -1.6492093057823499E-007
  -2.6950000000000002E-002    -1.7027689563047518E-007
  -2.6900000000000000E-002    -1.7575130682235850E-007
  -2.6849999999999999E-002    -1.8133933701928862E-007
  -2.6800000000000001E-002    -1.8704054250621566E-007
  -2.6749999999999999E-002    -1.9286161702775736E-007
  -2.6700000000000002E-002    -1.9881736265503346E-007
  -2.6650000000000000E-002    -2.0492808301174732E-007
  -2.6599999999999999E-002    -2.1121427327938869E-007
  -2.6550000000000001E-002    -2.1769164881256404E-007
  -2.6500000000000003E-002    -2.2436942329280160E-007
  -2.6450000000000001E-002    -2.3125216510511110E-007
  -2.6400000000000000E-002    -2.3834393157611250E-007
  -2.6349999999999998E-002    -2.4565182916843409E-007
  -2.6300000000000000E-002    -2.5318725710376594E-007
  -2.6250000000000002E-002    -2.6096479316861461E-007
  -2.6200000000000001E-002    -2.6899974207381321E-007
  -2.6150000000000000E-002    -2.7730574401457199E-007
  -2.6099999999999998E-002    -2.8589263591797095E-007
  -2.6050000000000000E-002    -2.9476524837941756E-007
  -2.6000000000000002E-002    -3.0392197564948057E-007
  -2.5950000000000001E-002    -3.1335344322440394E-007
  -2.5899999999999999E-002    -3.2304201814444111E-007
  -2.5849999999999998E-002    -3.3296274950176284E-007
  -2.5800000000000000E-002    -3.4308801694627708E-007
  -2.5750000000000002E-002    -3.5339548284995606E-007
  -2.5700000000000001E-002    -3.6387821838899215E-007
  -2.5649999999999999E-002    -3.7455234361850992E-007
  -2.5599999999999998E-002    -3.8545785572945393E-007
  -2.5550000000000000E-002    -3.9664974681100432E-007
  -2.5500000000000002E-002    -4.0818189311774195E-007
  -2.5450000000000000E-002    -4.2009053032597170E-007
  -2.5399999999999999E-002    -4.3238499664057658E-007
  -2.5349999999999998E-002    -4.4505078967274150E-007
  -2.5300000000000000E-002    -4.5806334926415192E-007
  -2.5250000000000002E-002    -4.7140497849861754E-007
  -2.5200000000000000E-002    -4.8507697506235373E-007
  -2.5149999999999999E-002    -4.9910105851125896E-007
  -2.5100000000000001E-002    -5.1351143184964255E-007
  -2.5049999999999999E-002    -5.2834185343311249E-007
  -2.5000000000000001E-002    -5.4361442565232325E-007
  -2.4950000000000000E-002    -5.5933374925534921E-007
  -2.4899999999999999E-002    -5.7548783619952958E-007
  -2.4850000000000001E-002    -5.9205382815198527E-007
  -2.4800000000000003E-002    -6.0900668691986097E-007
  -2.4750000000000001E-002    -6.2632825157519332E-007
  -2.4700000000000000E-002    -6.4401440437527725E-007
  -2.4649999999999998E-002    -6.6207835816327845E-007
  -2.4600000000000000E-002    -6.8054991989516836E-007
  -2.4550000000000002E-002    -6.9947065946391530E-007
  -2.4500000000000001E-002    -7.1888715803345972E-007
  -2.4450000000000000E-002    -7.3884314603931000E-007
  -2.4399999999999998E-002    -7.5937314502089776E-007
  -2.4350000000000000E-002    -7.8049780416071366E-007
  -2.4299999999999999E-002    -8.0222240109291429E-007
  -2.4250000000000001E-002    -8.2453991310224063E-007
  -2.4199999999999999E-002    -8.4743797360284153E-007
  -2.4150000000000001E-002    -8.7090840862413200E-007
  -2.4100000000000000E-002    -8.9495417132465872E-007
  -2.4049999999999998E-002    -9.1959064491128802E-007
  -2.4000000000000000E-002    -9.4484030749422926E-007
  -2.3949999999999999E-002    -9.7072409316701322E-007
  -2.3900000000000001E-002    -9.9725531645831245E-007
  -2.3850000000000000E-002    -1.0244385102175420E-006
  -2.3800000000000002E-002    -1.0522746747894539E-006
  -2.3750000000000000E-002    -1.0807672803695808E-006
  -2.3699999999999999E-002    -1.1099242233988975E-006
  -2.3650000000000001E-002    -1.1397561513360105E-006
  -2.3599999999999999E-002    -1.1702734173528507E-006
  -2.3550000000000001E-002    -1.2014859753632856E-006
  -2.3500000000000000E-002    -1.2334079592350200E-006
  -2.3449999999999999E-002    -1.2660644968676709E-006
  -2.3400000000000001E-002    -1.2994943582804116E-006
  -2.3349999999999999E-002    -1.3337458340139050E-006
  -2.3300000000000001E-002    -1.3688667877002396E-006
  -2.3250000000000000E-002    -1.4048928986233326E-006
  -2.3199999999999998E-002    -1.4418409023510738E-006
  -2.3150000000000000E-002    -1.4797083790381366E-006
  -2.3099999999999999E-002    -1.5184814596361814E-006
  -2.3050000000000001E-002    -1.5581443250159119E-006
  -2.3000000000000000E-002    -1.5986907105079667E-006
  -2.2950000000000002E-002    -1.6401303301213560E-006
  -2.2900000000000000E-002    -1.6824899960403619E-006
  -2.2849999999999999E-002    -1.7258079472789171E-006
  -2.2800000000000001E-002    -1.7701236917979722E-006
  -2.2749999999999999E-002    -1.8154679481750923E-006
  -2.2700000000000001E-002    -1.8618581227130252E-006
  -2.2650000000000000E-002    -1.9093014479031264E-006
  -2.2599999999999999E-002    -1.9578026231004598E-006
  -2.2550000000000001E-002    -2.0073744261390267E-006
  -2.2499999999999999E-002    -2.0580417203217711E-006
  -2.2450000000000001E-002    -2.1098390254198549E-006
  -2.2400000000000000E-002    -2.1628061211681931E-006
  -2.2349999999999998E-002    -2.2169829994874031E-006
  -2.2300000000000000E-002    -2.2724097396974701E-006
  -2.2249999999999999E-002    -2.3291267409224556E-006
  -2.2200000000000001E-002    -2.3871714864512550E-006
  -2.2150000000000000E-002    -2.4465721409351889E-006
  -2.2100000000000002E-002    -2.5073425840682548E-006
  -2.2050000000000000E-002    -2.5694822048576331E-006
  -2.1999999999999999E-002    -2.6329833508398450E-006
  -2.1950000000000001E-002    -2.6978430049157925E-006
  -2.1899999999999999E-002    -2.7640733812135567E-006
  -2.1850000000000001E-002    -2.8317024070777054E-006
  -2.1800000000000000E-002    -2.9007682553078473E-006
  -2.1749999999999999E-002    -2.9713097030963944E-006
  -2.1700000000000001E-002    -3.0433605842592807E-006
  -2.1649999999999999E-002    -3.1169483184783330E-006
  -2.1600000000000001E-002    -3.1920991861114921E-006
  -2.1550000000000000E-002    -3.2688417317714643E-006
  -2.1499999999999998E-002    -3.3472093690694189E-006
  -2.1450000000000000E-002    -3.4272388825129155E-006
  -2.1399999999999999E-002    -3.5089698065638725E-006
  -2.1350000000000001E-002    -3.5924400833270080E-006
  -2.1299999999999999E-002    -3.6776859773750207E-006
  -2.1250000000000002E-002    -3.7647380163698849E-006
  -2.1200000000000000E-002    -3.8536236603190304E-006
  -2.1149999999999999E-002    -3.9443676749885215E-006
  -2.1100000000000001E-002    -4.0369994962075158E-006
  -2.1049999999999999E-002    -4.1315547318005848E-006
  -2.1000000000000001E-002    -4.2280730111463392E-006
  -2.0950000000000000E-002    -4.3265918238878725E-006
  -2.0899999999999998E-002    -4.4271366949472597E-006
  -2.0850000000000000E-002    -4.5297191142279269E-006
  -2.0799999999999999E-002    -4.6343437571243987E-006
  -2.0750000000000001E-002    -4.7410223386897444E-006
  -2.0700000000000000E-002    -4.8497835718781957E-006
  -2.0649999999999998E-002    -4.9606739532097801E-006
  -2.0600000000000000E-002    -5.0737533455667278E-006
  -2.0549999999999999E-002    -5.1890829294727869E-006
  -2.0500000000000001E-002    -5.3067193251355389E-006
  -2.0449999999999999E-002    -5.4267120386752571E-006
  -2.0400000000000001E-002    -5.5491054569409734E-006
  -2.0350000000000000E-002    -5.6739422687272807E-006
  -2.0299999999999999E-002    -5.8012612829223492E-006
  -2.0250000000000001E-002    -5.9310952534659201E-006
  -2.0199999999999999E-002    -6.0634749852716806E-006
  -2.0150000000000001E-002    -6.1984345246084705E-006
  -2.0100000000000000E-002    -6.3360150518020856E-006
  -2.0049999999999998E-002    -6.4762666500916719E-006
  -2.0000000000000000E-002    -6.6192405479413178E-006
  -1.9949999999999999E-002    -6.7649807662249367E-006
  -1.9900000000000001E-002    -6.9135172973809288E-006
  -1.9850000000000000E-002    -7.0648680332835268E-006
  -1.9799999999999998E-002    -7.2190462441377024E-006
  -1.9750000000000000E-002    -7.3760713785729057E-006
  -1.9699999999999999E-002    -7.5359751339306722E-006
  -1.9650000000000001E-002    -7.6988027150365170E-006
  -1.9599999999999999E-002    -7.8646164550898873E-006
  -1.9550000000000001E-002    -8.0334907745865814E-006
  -1.9500000000000000E-002    -8.2055030719859500E-006
  -1.9449999999999999E-002    -8.3807277705106099E-006
  -1.9400000000000001E-002    -8.5592204659635603E-006
  -1.9349999999999999E-002    -8.7410202054570176E-006
  -1.9300000000000001E-002    -8.9261504957151557E-006
  -1.9250000000000000E-002    -9.1146349804871560E-006
  -1.9199999999999998E-002    -9.3065128937532323E-006
  -1.9150000000000000E-002    -9.5018374271531763E-006
  -1.9099999999999999E-002    -9.7006718158848886E-006
  -1.9050000000000001E-002    -9.9030778835049786E-006
  -1.9000000000000000E-002    -1.0109103899114492E-005
  -1.8949999999999998E-002    -1.0318788235256651E-005
  -1.8900000000000000E-002    -1.0532164920843163E-005
  -1.8849999999999999E-002    -1.0749270170723296E-005
  -1.8800000000000001E-002    -1.0970142962897283E-005
  -1.8749999999999999E-002    -1.1194821484951364E-005
  -1.8700000000000001E-002    -1.1423345721126568E-005
  -1.8650000000000000E-002    -1.1655759737434743E-005
  -1.8599999999999998E-002    -1.1892119050601412E-005
  -1.8550000000000001E-002    -1.2132490498941002E-005
  -1.8499999999999999E-002    -1.2376951601963872E-005
  -1.8450000000000001E-002    -1.2625578610477577E-005
  -1.8400000000000000E-002    -1.2878436697005605E-005
  -1.8349999999999998E-002    -1.3135584988412707E-005
  -1.8300000000000000E-002    -1.3397074543787534E-005
  -1.8249999999999999E-002    -1.3662956687088338E-005
  -1.8200000000000001E-002    -1.3933285956407998E-005
  -1.8149999999999999E-002    -1.4208113692428646E-005
  -1.8100000000000002E-002    -1.4487487290871955E-005
  -1.8050000000000000E-002    -1.4771450742315140E-005
  -1.7999999999999999E-002    -1.5060047169495403E-005
  -1.7950000000000001E-002    -1.5353321311667560E-005
  -1.7899999999999999E-002    -1.5651321733397892E-005
  -1.7850000000000001E-002    -1.5954098592534053E-005
  -1.7800000000000000E-002    -1.6261702116437278E-005
  -1.7749999999999998E-002    -1.6574183054118891E-005
  -1.7700000000000000E-002    -1.6891604202728751E-005
  -1.7649999999999999E-002    -1.7214029576964418E-005
  -1.7600000000000001E-002    -1.7541527954184836E-005
  -1.7550000000000000E-002    -1.7874151824345815E-005
  -1.7499999999999998E-002    -1.8211947062751924E-005
  -1.7450000000000000E-002    -1.8554952364510529E-005
  -1.7399999999999999E-002    -1.8903221602503063E-005
  -1.7350000000000001E-002    -1.9256826376627226E-005
  -1.7299999999999999E-002    -1.9615860936696704E-005
  -1.7250000000000001E-002    -1.9980414457635551E-005
  -1.7200000000000000E-002    -2.0350561125981515E-005
  -1.7149999999999999E-002    -2.0726349469279471E-005
  -1.7100000000000001E-002    -2.1107808101046352E-005
  -1.7049999999999999E-002    -2.1494958456021395E-005
  -1.7000000000000001E-002    -2.1887824118230282E-005
  -1.6950000000000000E-002    -2.2286438605415235E-005
  -1.6899999999999998E-002    -2.2690842145340226E-005
  -1.6850000000000000E-002    -2.3101089911885189E-005
  -1.6799999999999999E-002    -2.3517244261569523E-005
  -1.6750000000000001E-002    -2.3939381568091457E-005
  -1.6700000000000000E-002    -2.4367580055051567E-005
  -1.6649999999999998E-002    -2.4801908467727645E-005
  -1.6600000000000000E-002    -2.5242420533515335E-005
  -1.6549999999999999E-002    -2.5689157718462816E-005
  -1.6500000000000001E-002    -2.6142160432751459E-005
  -1.6449999999999999E-002    -2.6601474017139280E-005
  -1.6400000000000001E-002    -2.7067161204118281E-005
  -1.6350000000000000E-002    -2.7539286664970897E-005
  -1.6299999999999999E-002    -2.8017911565342544E-005
  -1.6250000000000001E-002    -2.8503093642111746E-005
  -1.6199999999999999E-002    -2.8994892458978918E-005
  -1.6150000000000001E-002    -2.9493366946177054E-005
  -1.6100000000000000E-002    -2.9998571460383693E-005
  -1.6049999999999998E-002    -3.0510553062313629E-005
  -1.6000000000000000E-002    -3.1029335057783646E-005
  -1.5949999999999999E-002    -3.1554938041837684E-005
  -1.5900000000000001E-002    -3.2087382954236376E-005
  -1.5850000000000000E-002    -3.2626707497218887E-005
  -1.5799999999999998E-002    -3.3172968336011954E-005
  -1.5750000000000000E-002    -3.3726230843811733E-005
  -1.5699999999999999E-002    -3.4286554564061539E-005
  -1.5650000000000001E-002    -3.4853986171619721E-005
  -1.5599999999999999E-002    -3.5428572306810985E-005
  -1.5550000000000001E-002    -3.6010361623456687E-005
  -1.5500000000000000E-002    -3.6599406169095827E-005
  -1.5449999999999998E-002    -3.7195760684855084E-005
  -1.5400000000000000E-002    -3.7799474778042078E-005
  -1.5349999999999999E-002    -3.8410593749363572E-005
  -1.5300000000000001E-002    -3.9029146830967349E-005
  -1.5250000000000000E-002    -3.9655166750610206E-005
  -1.5199999999999998E-002    -4.0288680091679754E-005
  -1.5150000000000000E-002    -4.0929725803754446E-005
  -1.5099999999999999E-002    -4.1578331782413345E-005
  -1.5050000000000001E-002    -4.2234535805947559E-005
  -1.4999999999999999E-002    -4.2898371950239599E-005
  -1.4949999999999998E-002    -4.3569867132234156E-005
  -1.4900000000000000E-002    -4.4249060785066673E-005
  -1.4849999999999999E-002    -4.4935977532551151E-005
  -1.4800000000000001E-002    -4.5630636014320530E-005
  -1.4749999999999999E-002    -4.6333049516083411E-005
  -1.4700000000000001E-002    -4.7043228107117779E-005
  -1.4650000000000000E-002    -4.7761191921616260E-005
  -1.4599999999999998E-002    -4.8486968453370595E-005
  -1.4550000000000000E-002    -4.9220599832105569E-005
  -1.4499999999999999E-002    -4.9962124094226154E-005
  -1.4450000000000001E-002    -5.0711577095117918E-005
  -1.4400000000000000E-002    -5.1468986444561359E-005
  -1.4349999999999998E-002    -5.2234370371292583E-005
  -1.4300000000000000E-002    -5.3007759228355982E-005
  -1.4249999999999999E-002    -5.3789167878398042E-005
  -1.4200000000000001E-002    -5.4578596655123710E-005
  -1.4149999999999999E-002    -5.5376037230398092E-005
  -1.4099999999999998E-002    -5.6181461837864877E-005
  -1.4050000000000000E-002    -5.6994859607585352E-005
  -1.3999999999999999E-002    -5.7816226986025072E-005
  -1.3950000000000001E-002    -5.8645591171676667E-005
  -1.3899999999999999E-002    -5.9482981847588243E-005
  -1.3850000000000001E-002    -6.0328411595432551E-005
  -1.3800000000000000E-002    -6.1181889999044131E-005
  -1.3749999999999998E-002    -6.2043408112491002E-005
  -1.3700000000000000E-002    -6.2912946387727703E-005
  -1.3649999999999999E-002    -6.3790479031531995E-005
  -1.3600000000000001E-002    -6.4675979813271588E-005
  -1.3550000000000000E-002    -6.5569416208010163E-005
  -1.3499999999999998E-002    -6.6470790051767381E-005
  -1.3450000000000000E-002    -6.7380099862914821E-005
  -1.3399999999999999E-002    -6.8297352025848006E-005
  -1.3350000000000001E-002    -6.9222563777540205E-005
  -1.3299999999999999E-002    -7.0155726229458983E-005
  -1.3249999999999998E-002    -7.1096817373130468E-005
  -1.3200000000000000E-002    -7.2045771404723619E-005
  -1.3149999999999998E-002    -7.3002541683608020E-005
  -1.3100000000000001E-002    -7.3967076126544906E-005
  -1.3049999999999999E-002    -7.4939349170769157E-005
  -1.3000000000000001E-002    -7.5919334173699118E-005
  -1.2950000000000000E-002    -7.6906988296458260E-005
  -1.2899999999999998E-002    -7.7902287319035968E-005
  -1.2850000000000000E-002    -7.8905169736385352E-005
  -1.2799999999999999E-002    -7.9915581687917800E-005