  -4.0000000000000001E-002     0.0000000000000000     
  -3.9949999999999999E-002     0.0000000000000000     
  -3.9899999999999998E-002     0.0000000000000000     
  -3.9850000000000003E-002     0.0000000000000000     
  -3.9800000000000002E-002     0.0000000000000000     
  -3.9750000000000001E-002     0.0000000000000000     
  -3.9699999999999999E-002     0.0000000000000000     
  -3.9649999999999998E-002     0.0000000000000000     
  -3.9600000000000003E-002     0.0000000000000000     
  -3.9550000000000002E-002     0.0000000000000000     
  -3.9500000000000000E-002     0.0000000000000000     
  -3.9449999999999999E-002     0.0000000000000000     
  -3.9399999999999998E-002     0.0000000000000000     
  -3.9350000000000003E-002     0.0000000000000000     
  -3.9300000000000002E-002     2.9741379062022557E-038
  -3.9250000000000000E-002     8.9799897618355758E-037
  -3.9199999999999999E-002     1.1380253417783133E-035
  -3.9150000000000004E-002     8.4796422039579458E-035
  -3.9100000000000003E-002     4.1533335711935135E-034
  -3.9050000000000001E-002     1.3325970269046647E-033
  -3.9000000000000000E-002     2.1373663767063288E-033
  -3.8949999999999999E-002    -4.0745763950408581E-033
  -3.8900000000000004E-002    -4.2076953433000487E-032
  -3.8850000000000003E-002    -1.6129533898885554E-031
  -3.8800000000000001E-002    -3.8178494400425720E-031
  -3.8750000000000000E-002    -4.5650499381687039E-031
  -3.8699999999999998E-002     6.5439962904512941E-031
  -3.8650000000000004E-002     5.3303884575775433E-030
  -3.8600000000000002E-002     1.6588204483707699E-029
  -3.8550000000000001E-002     3.3523449690905019E-029
  -3.8500000000000000E-002     4.0419583991652366E-029
  -3.8449999999999998E-002    -7.8197196711863070E-030
  -3.8400000000000004E-002    -1.8826588562446676E-028
  -3.8350000000000002E-002    -5.6817228153263915E-028
  -3.8300000000000001E-002    -1.0840538881224077E-027
  -3.8249999999999999E-002    -1.3499191090493299E-027
  -3.8199999999999998E-002    -5.1235275894339061E-028
  -3.8150000000000003E-002     2.5875309002329595E-027
  -3.8100000000000002E-002     8.6371330194105264E-027
  -3.8050000000000000E-002     1.6393008656421597E-026
  -3.7999999999999999E-002     2.1118511875577542E-026
  -3.7949999999999998E-002     1.4354797754310906E-026
  -3.7900000000000003E-002    -1.3135914550901231E-026
  -3.7850000000000002E-002    -6.4402925915507943E-026
  -3.7800000000000000E-002    -1.2733601184173746E-025
  -3.7749999999999999E-002    -1.6955070209029245E-025
  -3.7699999999999997E-002    -1.4500944970729939E-025
  -3.7650000000000003E-002    -1.6850144302291983E-026
  -3.7600000000000001E-002     2.0954781180137574E-025
  -3.7550000000000000E-002     4.6298675813544746E-025
  -3.7499999999999999E-002     6.1920600214954277E-025
  -3.7449999999999997E-002     5.6540497350808248E-025
  -3.7400000000000003E-002     2.9778603579318818E-025
  -3.7350000000000001E-002    -1.0561117991852126E-026
  -3.7300000000000000E-002    -5.6226007135696851E-026
  -3.7249999999999998E-002     3.8385617814193928E-025
  -3.7200000000000004E-002     1.1321318999441252E-024
  -3.7150000000000002E-002     1.3706062347476625E-024
  -3.7100000000000001E-002    -2.4913748870505959E-025
  -3.7050000000000000E-002    -4.9520973559007259E-024
  -3.6999999999999998E-002    -1.2718857385872238E-023
  -3.6950000000000004E-002    -2.1161479052014738E-023
  -3.6900000000000002E-002    -2.5163342463064190E-023
  -3.6850000000000001E-002    -1.8025642079336703E-023
  -3.6799999999999999E-002     5.6329201684378178E-024
  -3.6749999999999998E-002     4.5865330331554798E-023
  -3.6700000000000003E-002     9.3868571889904661E-023
  -3.6650000000000002E-002     1.3107794567482274E-022
  -3.6600000000000001E-002     1.3274834703902308E-022
  -3.6549999999999999E-002     7.6628036621293334E-023
  -3.6499999999999998E-002    -4.4746602830395121E-023
  -3.6450000000000003E-002    -2.1201651363097617E-022
  -3.6400000000000002E-002    -3.7308988124195199E-022
  -3.6350000000000000E-002    -4.4978622964573331E-022
  -3.6299999999999999E-002    -3.6146356055971366E-022
  -3.6249999999999998E-002    -6.4560739452603653E-023
  -3.6200000000000003E-002     4.0190802458991526E-022
  -3.6150000000000002E-002     8.8499706280577641E-022
  -3.6100000000000000E-002     1.1271990423437245E-021
  -3.6049999999999999E-002     8.3928435376430335E-022
  -3.6000000000000004E-002    -1.6035484058564174E-022
  -3.5950000000000003E-002    -1.7721987886666456E-021
  -3.5900000000000001E-002    -3.4811892907433772E-021
  -3.5850000000000000E-002    -4.3608243409219423E-021
  -3.5799999999999998E-002    -3.3019266052894631E-021
  -3.5750000000000004E-002     5.1687172296578450E-022
  -3.5700000000000003E-002     7.0190475095978837E-021
  -3.5650000000000001E-002     1.4714229078000609E-020
  -3.5600000000000000E-002     2.0590140064530699E-020
  -3.5549999999999998E-002     2.0685563422468607E-020
  -3.5500000000000004E-002     1.1418384481058259E-020
  -3.5450000000000002E-002    -8.5874942468013995E-021
  -3.5400000000000001E-002    -3.6786792012622171E-020
  -3.5349999999999999E-002    -6.5932327749722904E-020
  -3.5299999999999998E-002    -8.4963332737592728E-020
  -3.5250000000000004E-002    -8.1832760140919403E-020
  -3.5200000000000002E-002    -4.7791449030922023E-020
  -3.5150000000000001E-002     1.8134772578691493E-020
  -3.5099999999999999E-002     1.0619310639071780E-019
  -3.5049999999999998E-002     1.9601270564191627E-019
  -3.5000000000000003E-002     2.6041095287029716E-019
  -3.4950000000000002E-002     2.7217098229095551E-019
  -3.4900000000000000E-002     2.1179922333895998E-019
  -3.4849999999999999E-002     7.3750905392977023E-020
  -3.4799999999999998E-002    -1.3076510527092377E-019
  -3.4750000000000003E-002    -3.7466562975847450E-019
  -3.4700000000000002E-002    -6.1799325006034702E-019
  -3.4650000000000000E-002    -8.1060838017311610E-019
  -3.4599999999999999E-002    -8.9320059511314764E-019
  -3.4549999999999997E-002    -7.9825691327057501E-019
  -3.4500000000000003E-002    -4.5627449352450127E-019
  -3.4450000000000001E-002     1.8569713316403568E-019
  -3.4400000000000000E-002     1.1287857500794166E-018
  -3.4349999999999999E-002     2.2743470851161924E-018
  -3.4299999999999997E-002     3.3799581826739493E-018
  -3.4250000000000003E-002     4.0476724489917323E-018
  -3.4200000000000001E-002     3.7763158651759672E-018
  -3.4150000000000000E-002     2.0980260936331568E-018
  -3.4099999999999998E-002    -1.2097736031747196E-018
  -3.4049999999999997E-002    -5.8870422301146802E-018
  -3.4000000000000002E-002    -1.1018202500134619E-017
  -3.3950000000000001E-002    -1.5032226595157440E-017
  -3.3900000000000000E-002    -1.5964059231960531E-017
  -3.3849999999999998E-002    -1.1998022670166173E-017
  -3.3799999999999997E-002    -2.2080043149229435E-018
  -3.3750000000000002E-002     1.2705906852301426E-017
  -3.3700000000000001E-002     2.9965265390453274E-017
  -3.3649999999999999E-002     4.4827821901494057E-017
  -3.3599999999999998E-002     5.1444581612862241E-017
  -3.3550000000000003E-002     4.4425824065937518E-017
  -3.3500000000000002E-002     2.0816201167116368E-017
  -3.3450000000000001E-002    -1.8063791241003589E-017
  -3.3399999999999999E-002    -6.5576858648366276E-017
  -3.3349999999999998E-002    -1.1012461760300062E-016
  -3.3300000000000003E-002    -1.3720281949397549E-016
  -3.3250000000000002E-002    -1.3298739296695733E-016
  -3.3200000000000000E-002    -8.8747307457697116E-017
  -3.3149999999999999E-002    -4.9419023626649642E-018
  -3.3099999999999997E-002     1.0632085786761541E-016
  -3.3050000000000003E-002     2.2160265140557077E-016
  -3.3000000000000002E-002     3.0980193291837620E-016
  -3.2950000000000000E-002     3.3889688146712673E-016
  -3.2899999999999999E-002     2.8456511911323726E-016
  -3.2850000000000004E-002     1.3872249740604041E-016
  -3.2800000000000003E-002    -8.4334274255500541E-017
  -3.2750000000000001E-002    -3.4630148815065253E-016
  -3.2700000000000000E-002    -5.8910939140330697E-016
  -3.2649999999999998E-002    -7.4515386872134323E-016
  -3.2600000000000004E-002    -7.5219571724932353E-016
  -3.2550000000000003E-002    -5.7024178191395725E-016
  -3.2500000000000001E-002    -1.9675247892564717E-016
  -3.2450000000000000E-002     3.2379798421743314E-016
  -3.2399999999999998E-002     8.9949492104857211E-016
  -3.2350000000000004E-002     1.4018444412339557E-015
  -3.2300000000000002E-002     1.6880084547361519E-015
  -3.2250000000000001E-002     1.6319392181910429E-015
  -3.2199999999999999E-002     1.1592958975680512E-015
  -3.2149999999999998E-002     2.7881605588764994E-016
  -3.2100000000000004E-002    -8.9832112179082328E-016
  -3.2050000000000002E-002    -2.1590849195938915E-015
  -3.2000000000000001E-002    -3.2144642907804617E-015
  -3.1949999999999999E-002    -3.7511917872535324E-015
  -3.1899999999999998E-002    -3.5035110317987668E-015
  -3.1850000000000003E-002    -2.3323075380124928E-015
  -3.1800000000000002E-002    -2.9330531477635525E-016
  -3.1750000000000000E-002     2.3263697264966119E-015
  -3.1699999999999999E-002     5.0214560447533406E-015
  -3.1649999999999998E-002     7.1415881099717269E-015
  -3.1600000000000003E-002     8.0206627191851737E-015
  -3.1550000000000002E-002     7.1429640710789658E-015
  -3.1500000000000000E-002     4.3113597488464068E-015
  -3.1449999999999999E-002    -2.2650495050991173E-016
  -3.1399999999999997E-002    -5.7376468927655478E-015
  -3.1350000000000003E-002    -1.1079744274159978E-014
  -3.1300000000000001E-002    -1.4900322831456157E-014
  -3.1250000000000000E-002    -1.5934052906801584E-014
  -3.1199999999999999E-002    -1.3341202761841146E-014
  -3.1150000000000001E-002    -7.0072874807141376E-015
  -3.1100000000000003E-002     2.2820795522317911E-015
  -3.1050000000000001E-002     1.2860961612415947E-014
  -3.1000000000000000E-002     2.2429339294969072E-014
  -3.0949999999999998E-002     2.8504185771848813E-014
  -3.0900000000000000E-002     2.8996781604980674E-014
  -3.0850000000000002E-002     2.2791768787857001E-014
  -3.0800000000000001E-002     1.0182906368934158E-014
  -3.0750000000000000E-002    -6.9657189238233076E-015
  -3.0699999999999998E-002    -2.5414677020075554E-014
  -3.0650000000000000E-002    -4.1104945122543315E-014
  -3.0600000000000002E-002    -4.9990567101673375E-014
  -3.0550000000000001E-002    -4.8985802311922695E-014
  -3.0499999999999999E-002    -3.6816595110306612E-014
  -3.0449999999999998E-002    -1.4563950704260356E-014
  -3.0400000000000000E-002     1.4264537674766969E-014
  -3.0350000000000002E-002     4.4206709236569605E-014
  -3.0300000000000001E-002     6.8815611098917016E-014
  -3.0249999999999999E-002     8.1963812949513735E-014
  -3.0200000000000001E-002     7.9228578810950939E-014
  -3.0150000000000000E-002     5.9062649153667289E-014
  -3.0100000000000002E-002     2.3475166539876651E-014
  -3.0050000000000000E-002    -2.1972842111715486E-014
  -2.9999999999999999E-002    -6.8926834166622145E-014
  -2.9950000000000001E-002    -1.0766887933961885E-013
  -2.9899999999999999E-002    -1.2899234505634553E-013
  -2.9850000000000002E-002    -1.2618245307972332E-013
  -2.9800000000000000E-002    -9.6710319430148722E-014
  -2.9749999999999999E-002    -4.3265376652347624E-014
  -2.9700000000000001E-002     2.6157738528784764E-014
  -2.9650000000000003E-002     9.9246206889203604E-014
  -2.9600000000000001E-002     1.6136123051928908E-013
  -2.9550000000000000E-002     1.9825808310008426E-013
  -2.9499999999999998E-002     1.9907508378253026E-013
  -2.9450000000000000E-002     1.5901603650739344E-013
  -2.9400000000000003E-002     8.1132428334058115E-014
  -2.9350000000000001E-002    -2.3288087515753358E-014
  -2.9300000000000000E-002    -1.3600181631791595E-013
  -2.9249999999999998E-002    -2.3472115337291522E-013
  -2.9200000000000000E-002    -2.9726846821604803E-013
  -2.9150000000000002E-002    -3.0625590477162313E-013
  -2.9100000000000001E-002    -2.5335708491062053E-013
  -2.9049999999999999E-002    -1.4219097785105686E-013
  -2.8999999999999998E-002     1.0990987145176873E-014
  -2.8950000000000000E-002     1.7924750109556744E-013
  -2.8900000000000002E-002     3.2942234193909986E-013
  -2.8850000000000001E-002     4.2847694736935276E-013
  -2.8799999999999999E-002     4.5050717847484333E-013
  -2.8749999999999998E-002     3.8298260690878003E-013
  -2.8700000000000000E-002     2.3075864817827717E-013
  -2.8650000000000002E-002     1.6760502090411986E-014
  -2.8600000000000000E-002    -2.2113016166502012E-013
  -2.8549999999999999E-002    -4.3665304103102189E-013
  -2.8500000000000001E-002    -5.8408620622807913E-013
  -2.8450000000000000E-002    -6.2777264744790615E-013
  -2.8400000000000002E-002    -5.5026853568890824E-013
  -2.8350000000000000E-002    -3.5728976088314332E-013
  -2.8299999999999999E-002    -7.8210710890608930E-014
  -2.8250000000000001E-002     2.3825516094177709E-013
  -2.8200000000000003E-002     5.3256705586647197E-013
  -2.8150000000000001E-002     7.4553731631445255E-013
  -2.8100000000000000E-002     8.3004901822572826E-013
  -2.8049999999999999E-002     7.6099710112198218E-013
  -2.8000000000000001E-002     5.4141929658565746E-013
  -2.7950000000000003E-002     2.0347632234484839E-013
  -2.7900000000000001E-002    -1.9610459858270258E-013
  -2.7850000000000000E-002    -5.8546662490408269E-013
  -2.7799999999999998E-002    -8.9036004928107411E-013
  -2.7750000000000000E-002    -1.0479525145475584E-012
  -2.7700000000000002E-002    -1.0192282194380485E-012
  -2.7650000000000001E-002    -7.9765711185346465E-013
  -2.7600000000000000E-002    -4.1238298763778991E-013
  -2.7549999999999998E-002     7.4945940990064155E-014
  -2.7500000000000000E-002     5.7951887954462388E-013
  -2.7450000000000002E-002     1.0076002205399556E-012
  -2.7400000000000001E-002     1.2734329416460314E-012
  -2.7349999999999999E-002     1.3159217394341855E-012
  -2.7299999999999998E-002     1.1119954309742925E-012
  -2.7250000000000000E-002     6.8386317027536759E-013
  -2.7200000000000002E-002     9.8244884708426070E-014
  -2.7150000000000001E-002    -5.4301151492209327E-013
  -2.7099999999999999E-002    -1.1199075024327592E-012
  -2.7049999999999998E-002    -1.5162403189599510E-012
  -2.7000000000000000E-002    -1.6426302925356865E-012
  -2.6950000000000002E-002    -1.4561230837956195E-012
  -2.6900000000000000E-002    -9.7212354639008842E-013
  -2.6849999999999999E-002    -2.6559973225065190E-013
  -2.6800000000000001E-002     5.3954972966865968E-013
  -2.6749999999999999E-002     1.2916943892535900E-012
  -2.6700000000000002E-002     1.8396596943440428E-012
  -2.6650000000000000E-002     2.0626111985098552E-012
  -2.6599999999999999E-002     1.8956436512939680E-012
  -2.6550000000000001E-002     1.3456381115567880E-012
  -2.6500000000000003E-002     4.9369117933959999E-013
  -2.6450000000000001E-002    -5.1696084611560098E-013
  -2.6400000000000000E-002    -1.5056616987407074E-012
  -2.6349999999999998E-002    -2.2871991048178509E-012
  -2.6300000000000000E-002    -2.7065572140598847E-012
  -2.6250000000000002E-002    -2.6688136489454920E-012
  -2.6200000000000001E-002    -2.1583143107154067E-012
  -2.6150000000000000E-002    -1.2433258305856814E-012
  -2.6099999999999998E-002    -6.5162963615353486E-014
  -2.6050000000000000E-002     1.1862391193432857E-012
  -2.6000000000000002E-002     2.3057908626935701E-012
  -2.5950000000000001E-002     3.1095850587440881E-012
  -2.5899999999999999E-002     3.4674504194327534E-012
  -2.5849999999999998E-002     3.3257992010812306E-012
  -2.5800000000000000E-002     2.7166137356247236E-012
  -2.5750000000000002E-002     1.7508990260851194E-012
  -2.5700000000000001E-002     5.9768479569524292E-013
  -2.5649999999999999E-002    -5.4774700875553154E-013
  -2.5599999999999998E-002    -1.5007225603895742E-012
  -2.5550000000000000E-002    -2.1223437525796437E-012
  -2.5500000000000002E-002    -2.3462179211644819E-012
  -2.5450000000000000E-002    -2.1912351914676440E-012
  -2.5399999999999999E-002    -1.7571973326733433E-012
  -2.5349999999999998E-002    -1.2031869211164529E-012
  -2.5300000000000000E-002    -7.1195293316899287E-013
  -2.5250000000000002E-002    -4.4664584925203682E-013
  -2.5200000000000000E-002    -5.0833363012171756E-013
  -2.5149999999999999E-002    -9.0333334416973970E-013
  -2.5100000000000001E-002    -1.5282043363147418E-012
  -2.5049999999999999E-002    -2.1773384225780216E-012
  -2.5000000000000001E-002    -2.5738977391830295E-012
  -2.4950000000000000E-002    -2.4201806462850001E-012
  -2.4899999999999999E-002    -1.4593204708220854E-012
  -2.4850000000000001E-002     4.6252360868611334E-013
  -2.4800000000000003E-002     3.3449797430780840E-012
  -2.4750000000000001E-002     7.0030598810494091E-012
  -2.4700000000000000E-002     1.1063598137370052E-011
  -2.4649999999999998E-002     1.4989564023472735E-011
  -2.4600000000000000E-002     1.8128063899515263E-011
  -2.4550000000000002E-002     1.9773516209834871E-011
  -2.4500000000000001E-002     1.9234974787203678E-011
  -2.4450000000000000E-002     1.5896312658037605E-011
  -2.4399999999999998E-002     9.2599452509877971E-012
  -2.4350000000000000E-002    -1.0315757330166915E-012
  -2.4299999999999999E-002    -1.5197249070458913E-011
  -2.4250000000000001E-002    -3.3339363909716467E-011
  -2.4199999999999999E-002    -5.5478682629285665E-011
  -2.4150000000000001E-002    -8.1594478820565455E-011
  -2.4100000000000000E-002    -1.1166077080123027E-010
  -2.4049999999999998E-002    -1.4567141959617393E-010
  -2.4000000000000000E-002    -1.8364945144742091E-010
  -2.3949999999999999E-002    -2.2563914524906757E-010
  -2.3900000000000001E-002    -2.7168289199256858E-010
  -2.3850000000000000E-002    -3.2178775956313871E-010
  -2.3800000000000002E-002    -3.7588875253023485E-010
  -2.3750000000000000E-002    -4.3381677253662673E-010
  -2.3699999999999999E-002    -4.9527920855851533E-010
  -2.3650000000000001E-002    -5.5985879471076614E-010
  -2.3599999999999999E-002    -6.2703430181579843E-010
  -2.3550000000000001E-002    -6.9622166468173065E-010
  -2.3500000000000000E-002    -7.6683220016838027E-010
  -2.3449999999999999E-002    -8.3833821376075278E-010
  -2.3400000000000001E-002    -9.1033638164300754E-010
  -2.3349999999999999E-002    -9.8259763131554090E-010
  -2.3300000000000001E-002    -1.0550932876657119E-009
  -2.3250000000000000E-002    -1.1279919042841021E-009
  -2.3199999999999998E-002    -1.2016250418803837E-009
  -2.3150000000000000E-002    -1.2764272766578214E-009
  -2.3099999999999999E-002    -1.3528595432440033E-009
  -2.3050000000000001E-002    -1.4313288509671074E-009
  -2.3000000000000000E-002    -1.5121191848436769E-009
  -2.2950000000000002E-002    -1.5953455933217872E-009
  -2.2900000000000000E-002    -1.6809411463610726E-009
  -2.2849999999999999E-002    -1.7686787546374605E-009
  -2.2800000000000001E-002    -1.8582241427660813E-009
  -2.2749999999999999E-002    -1.9492103277061113E-009
  -2.2700000000000001E-002    -2.0413201633701092E-009
  -2.2650000000000000E-002    -2.1343600257690932E-009
  -2.2599999999999999E-002    -2.2283130930746014E-009
  -2.2550000000000001E-002    -2.3233583928794478E-009
  -2.2499999999999999E-002    -2.4198539532624807E-009
  -2.2450000000000001E-002    -2.5182887979266636E-009
  -2.2400000000000000E-002    -2.6192090283390347E-009
  -2.2349999999999998E-002    -2.7231358359663541E-009
  -2.2300000000000000E-002    -2.8304910806438171E-009
  -2.2249999999999999E-002    -2.9415426758953595E-009
  -2.2200000000000001E-002    -3.0563813732401523E-009
  -2.2150000000000000E-002    -3.1749333208185260E-009
  -2.2100000000000002E-002    -3.2970013296614635E-009
  -2.2050000000000000E-002    -3.4223268266503675E-009
  -2.1999999999999999E-002    -3.5506587190034876E-009
  -2.1950000000000001E-002    -3.6818129155413963E-009
  -2.1899999999999999E-002    -3.8157116331171833E-009
  -2.1850000000000001E-002    -3.9523967745615396E-009
  -2.1800000000000000E-002    -4.0920170698527326E-009
  -2.1749999999999999E-002    -4.2347946503535133E-009
  -2.1700000000000001E-002    -4.3809842310835991E-009
  -2.1649999999999999E-002    -4.5308305955870898E-009
  -2.1600000000000001E-002    -4.6845418400556394E-009
  -2.1550000000000000E-002    -4.8422769416406081E-009
  -2.1499999999999998E-002    -5.0041513699322047E-009
  -2.1450000000000000E-002    -5.1702574950044184E-009
  -2.1399999999999999E-002    -5.3406893841005645E-009
  -2.1350000000000001E-002    -5.5155692910422771E-009
  -2.1299999999999999E-002    -5.6950661165153345E-009
  -2.1250000000000002E-002    -5.8794019123236478E-009
  -2.1200000000000000E-002    -6.0688519341696395E-009
  -2.1149999999999999E-002    -6.2637309327431109E-009
  -2.1100000000000001E-002    -6.4643763561827979E-009
  -2.1049999999999999E-002    -6.6711279802282237E-009
  -2.1000000000000001E-002    -6.8843058337508786E-009
  -2.0950000000000000E-002    -7.1041863522153925E-009
  -2.0899999999999998E-002    -7.3309826174889894E-009
  -2.0850000000000000E-002    -7.5648222047543213E-009
  -2.0799999999999999E-002    -7.8057344437688876E-009
  -2.0750000000000001E-002    -8.0536437599047354E-009
  -2.0700000000000000E-002    -8.3083805554128040E-009
  -2.0649999999999998E-002    -8.5697112365390646E-009
  -2.0600000000000000E-002    -8.8373824368731618E-009
  -2.0549999999999999E-002    -9.1111897014844539E-009
  -2.0500000000000001E-002    -9.3910431482999627E-009
  -2.0449999999999999E-002    -9.6770372903771100E-009
  -2.0400000000000001E-002    -9.9694922656677177E-009
  -2.0350000000000000E-002    -1.0268964695348718E-008
  -2.0299999999999999E-002    -1.0576218603202269E-008
  -2.0250000000000001E-002    -1.0892156520436610E-008
  -2.0199999999999999E-002    -1.1217719981679787E-008
  -2.0150000000000001E-002    -1.1553773361179321E-008
  -2.0100000000000000E-002    -1.1901005063876665E-008
  -2.0049999999999998E-002    -1.2259854940183215E-008
  -2.0000000000000000E-002    -1.2630490049791241E-008
  -1.9949999999999999E-002    -1.3012831416554665E-008
  -1.9900000000000001E-002    -1.3406628996801304E-008
  -1.9850000000000000E-002    -1.3811564837121963E-008
  -1.9799999999999998E-002    -1.4227361143000456E-008
  -1.9750000000000000E-002    -1.4653872553055431E-008
  -1.9699999999999999E-002    -1.5091137853940706E-008
  -1.9650000000000001E-002    -1.5539384679300516E-008
  -1.9599999999999999E-002    -1.5998990418236361E-008
  -1.9550000000000001E-002    -1.6470423763711859E-008
  -1.9500000000000000E-002    -1.6954163367254414E-008
  -1.9449999999999999E-002    -1.7450649260523981E-008
  -1.9400000000000001E-002    -1.7960261264550823E-008
  -1.9349999999999999E-002    -1.8483338189025040E-008
  -1.9300000000000001E-002    -1.9020220569802880E-008
  -1.9250000000000000E-002    -1.9571315863699420E-008
  -1.9199999999999998E-002    -2.0137145417954819E-008
  -1.9150000000000000E-002    -2.0718366253709395E-008
  -1.9099999999999999E-002    -2.1315745926124988E-008
  -1.9050000000000001E-002    -2.1930109591442102E-008
  -1.9000000000000000E-002    -2.2562256595954067E-008
  -1.8949999999999998E-002    -2.3212864491705912E-008
  -1.8900000000000000E-002    -2.3882432725770553E-008
  -1.8849999999999999E-002    -2.4571260563120277E-008
  -1.8800000000000001E-002    -2.5279465490391171E-008
  -1.8749999999999999E-002    -2.6007052774153213E-008
  -1.8700000000000001E-002    -2.6754000146310975E-008
  -1.8650000000000000E-002    -2.7520353815546480E-008
  -1.8599999999999998E-002    -2.8306299172208563E-008
  -1.8550000000000001E-002    -2.9112183707385330E-008
  -1.8499999999999999E-002    -2.9938522161604695E-008
  -1.8450000000000001E-002    -3.0785956320388301E-008
  -1.8400000000000000E-002    -3.1655200148230540E-008
  -1.8349999999999998E-002    -3.2547006733844016E-008
  -1.8300000000000000E-002    -3.3462123569399881E-008
  -1.8249999999999999E-002    -3.4401300746131796E-008
  -1.8200000000000001E-002    -3.5365312415365495E-008
  -1.8149999999999999E-002    -3.6354964828442293E-008
  -1.8100000000000002E-002    -3.7371108611308197E-008
  -1.8050000000000000E-002    -3.8414632229200953E-008
  -1.7999999999999999E-002    -3.9486424699375348E-008
  -1.7950000000000001E-002    -4.0587304353952333E-008
  -1.7899999999999999E-002    -4.1717965836447479E-008
  -1.7850000000000001E-002    -4.2878932308534902E-008
  -1.7800000000000000E-002    -4.4070550619223225E-008
  -1.7749999999999998E-002    -4.5293015809221696E-008
  -1.7700000000000000E-002    -4.6546469663943810E-008
  -1.7649999999999999E-002    -4.7831098021619283E-008
  -1.7600000000000001E-002    -4.9147259918021597E-008
  -1.7550000000000000E-002    -5.0495571217005219E-008
  -1.7499999999999998E-002    -5.1876946589632272E-008
  -1.7450000000000000E-002    -5.3292568436299439E-008
  -1.7399999999999999E-002    -5.4743820812893469E-008
  -1.7350000000000001E-002    -5.6232164553467318E-008
  -1.7299999999999999E-002    -5.7759001697009355E-008
  -1.7250000000000001E-002    -5.9325597978507077E-008
  -1.7200000000000000E-002    -6.0933011776009679E-008
  -1.7149999999999999E-002    -6.2582099277463680E-008
  -1.7100000000000001E-002    -6.4273596049066422E-008
  -1.7049999999999999E-002    -6.6008205813272775E-008
  -1.7000000000000001E-002    -6.7786670159082334E-008
  -1.6950000000000000E-002    -6.9609889112085270E-008
  -1.6899999999999998E-002    -7.1478894337697253E-008
  -1.6850000000000000E-002    -7.3394838540720420E-008
  -1.6799999999999999E-002    -7.5358889945887689E-008
  -1.6750000000000001E-002    -7.7372168788706722E-008
  -1.6700000000000000E-002    -7.9435647740807989E-008
  -1.6649999999999998E-002    -8.1550167068778542E-008
  -1.6600000000000000E-002    -8.3716424318802723E-008
  -1.6549999999999999E-002    -8.5935119740949790E-008
  -1.6500000000000001E-002    -8.8207070759774240E-008
  -1.6449999999999999E-002    -9.0533315115899755E-008
  -1.6400000000000001E-002    -9.2915224101670080E-008
  -1.6350000000000000E-002    -9.5354454421762150E-008
  -1.6299999999999999E-002    -9.7852929690038835E-008
  -1.6250000000000001E-002    -1.0041266836423593E-007
  -1.6199999999999999E-002    -1.0303564487991495E-007
  -1.6150000000000001E-002    -1.0572362317476715E-007
  -1.6100000000000000E-002    -1.0847811511336287E-007
  -1.6049999999999998E-002    -1.1130031530490723E-007
  -1.6000000000000000E-002    -1.1419118838362268E-007
  -1.5949999999999999E-002    -1.1715158432836846E-007
  -1.5900000000000001E-002    -1.2018234783051040E-007
  -1.5850000000000000E-002    -1.2328447889370459E-007
  -1.5799999999999998E-002    -1.2645916392976071E-007
  -1.5750000000000000E-002    -1.2970780359380063E-007
  -1.5699999999999999E-002    -1.3303201554029757E-007
  -1.5650000000000001E-002    -1.3643352995634168E-007
  -1.5599999999999999E-002    -1.3991416713195954E-007
  -1.5550000000000001E-002    -1.4347577996096992E-007
  -1.5500000000000000E-002    -1.4712024670683698E-007
  -1.5449999999999998E-002    -1.5084950924790693E-007
  -1.5400000000000000E-002    -1.5466563375468659E-007
  -1.5349999999999999E-002    -1.5857078792179072E-007
  -1.5300000000000001E-002    -1.6256723472656067E-007
  -1.5250000000000000E-002    -1.6665734331832460E-007
  -1.5199999999999998E-002    -1.7084349667896514E-007
  -1.5150000000000000E-002    -1.7512796026019851E-007
  -1.5099999999999999E-002    -1.7951285423478223E-007
  -1.5050000000000001E-002    -1.8400008743966498E-007
  -1.4999999999999999E-002    -1.8859139106361859E-007
  -1.4949999999999998E-002    -1.9328838954440998E-007
  -1.4900000000000000E-002    -1.9809266718603166E-007
  -1.4849999999999999E-002    -2.0300590392122589E-007
  -1.4800000000000001E-002    -2.0802991743816247E-007
  -1.4749999999999999E-002    -2.1316676446312102E-007
  -1.4700000000000001E-002    -2.1841873981007023E-007
  -1.4650000000000000E-002    -2.2378831368949143E-007
  -1.4599999999999998E-002    -2.2927808601604491E-007
  -1.4550000000000000E-002    -2.3489072973847297E-007
  -1.4499999999999999E-002    -2.4062886538558111E-007
  -1.4450000000000001E-002    -2.4649506512343492E-007
  -1.4400000000000000E-002    -2.5249182009927649E-007
  -1.4349999999999998E-002    -2.5862163208056073E-007
  -1.4300000000000000E-002    -2.6488694059679946E-007
  -1.4249999999999999E-002    -2.7129020305401708E-007
  -1.4200000000000001E-002    -2.7783396044053999E-007
  -1.4149999999999999E-002    -2.8452078275005264E-007
  -1.4099999999999998E-002    -2.9135325933442993E-007
  -1.4050000000000000E-002    -2.9833404198170673E-007
  -1.3999999999999999E-002    -3.0546572341353180E-007
  -1.3950000000000001E-002    -3.1275099613358377E-007
  -1.3899999999999999E-002    -3.2019250148605665E-007
  -1.3850000000000001E-002    -3.2779299979598351E-007
  -1.3800000000000000E-002    -3.3555530681117634E-007
  -1.3749999999999998E-002    -3.4348238567434371E-007
  -1.3700000000000000E-002    -3.5157724439731577E-007
  -1.3649999999999999E-002    -3.5984310541478792E-007
  -1.3600000000000001E-002    -3.6828331299231081E-007
  -1.3550000000000000E-002    -3.7690134196529785E-007
  -1.3499999999999998E-002    -3.8570081246331405E-007
  -1.3450000000000000E-002    -3.9468545783688902E-007
  -1.3399999999999999E-002    -4.0385921056760023E-007
  -1.3350000000000001E-002    -4.1322608082932035E-007
  -1.3299999999999999E-002    -4.2279021435529144E-007
  -1.3249999999999998E-002    -4.3255574025243033E-007
  -1.3200000000000000E-002    -4.4252680380024388E-007
  -1.3149999999999998E-002    -4.5270739911978017E-007
  -1.3100000000000001E-002    -4.6310138938616795E-007
  -1.3049999999999999E-002    -4.7371240116210760E-007
  -1.3000000000000001E-002    -4.8454401276614254E-007
  -1.2950000000000000E-002    -4.9559962754397746E-007
  -1.2899999999999998E-002    -5.0688274734363805E-007
  -1.2850000000000000E-002    -5.1839692214783651E-007
  -1.2799999999999999E-002    -5.3014609748561632E-007