  -4.0000000000000001E-002     0.0000000000000000     
  -3.9949999999999999E-002     0.0000000000000000     
  -3.9899999999999998E-002     0.0000000000000000     
  -3.9850000000000003E-002     0.0000000000000000     
  -3.9800000000000002E-002     0.0000000000000000     
  -3.9750000000000001E-002     0.0000000000000000     
  -3.9699999999999999E-002     0.0000000000000000     
  -3.9649999999999998E-002     0.0000000000000000     
  -3.9600000000000003E-002     0.0000000000000000     
  -3.9550000000000002E-002     0.0000000000000000     
  -3.9500000000000000E-002     0.0000000000000000     
  -3.9449999999999999E-002    -2.0411647570659863E-032
  -3.9399999999999998E-002     8.5789703893901347E-031
  -3.9350000000000003E-002     1.5277844444835566E-029
  -3.9300000000000002E-002     1.1685314745605976E-028
  -3.9250000000000000E-002     5.4901396552384081E-028
  -3.9199999999999999E-002     1.7416678140500151E-027
  -3.9150000000000004E-002     3.6406584558588413E-027
  -3.9100000000000003E-002     3.4585645435169425E-027
  -3.9050000000000001E-002    -7.9680352042660063E-027
  -3.9000000000000000E-002    -4.7879874358823677E-026
  -3.8949999999999999E-002    -1.3552113959345713E-025
  -3.8900000000000004E-002    -2.7618699496726049E-025
  -3.8850000000000003E-002    -4.4086359352639639E-025
  -3.8800000000000001E-002    -5.3448662810635390E-025
  -3.8750000000000000E-002    -2.8671857139811453E-025
  -3.8699999999999998E-002     1.0539539257381465E-024
  -3.8650000000000004E-002     5.1719791125961652E-024
  -3.8600000000000002E-002     1.4573643014902323E-023
  -3.8550000000000001E-002     3.0246209354477894E-023
  -3.8500000000000000E-002     4.5424631210355655E-023
  -3.8449999999999998E-002     3.6882758561005142E-023
  -3.8400000000000004E-002    -3.7851886790929218E-023
  -3.8350000000000002E-002    -2.2205565134980248E-022
  -3.8300000000000001E-002    -5.0817772188075849E-022
  -3.8249999999999999E-002    -7.6525078666485843E-022
  -3.8199999999999998E-002    -6.9977568225736151E-022
  -3.8150000000000003E-002     6.4323981320647017E-023
  -3.8100000000000002E-002     1.7300056869376085E-021
  -3.8050000000000000E-002     3.9598797504382170E-021
  -3.7999999999999999E-002     5.6356420120373970E-021
  -3.7949999999999998E-002     5.0775936562341543E-021
  -3.7900000000000003E-002     9.1045524036222336E-022
  -3.7850000000000002E-002    -6.6787938347763889E-021
  -3.7800000000000000E-002    -1.5079203556746683E-020
  -3.7749999999999999E-002    -1.9772557490818876E-020
  -3.7699999999999997E-002    -1.6657668110954798E-020
  -3.7650000000000003E-002    -5.3278733886404519E-021
  -3.7600000000000001E-002     8.8843614377870425E-021
  -3.7550000000000000E-002     1.6541777600573801E-020
  -3.7499999999999999E-002     1.0222718325908502E-020
  -3.7449999999999997E-002    -7.2964770112427487E-021
  -3.7400000000000003E-002    -1.8314787708821134E-020
  -3.7350000000000001E-002     5.0352616189535003E-021
  -3.7300000000000000E-002     8.4226834034231111E-020
  -3.7249999999999998E-002     2.1096074016375806E-019
  -3.7200000000000004E-002     3.2955012336573293E-019
  -3.7150000000000002E-002     3.4074686821854431E-019
  -3.7100000000000001E-002     1.3737597707159823E-019
  -3.7050000000000000E-002    -3.3214520657812696E-019
  -3.6999999999999998E-002    -9.9534435743321638E-019
  -3.6950000000000004E-002    -1.6202912359005956E-018
  -3.6900000000000002E-002    -1.8518527469280891E-018
  -3.6850000000000001E-002    -1.3367730519905734E-018
  -3.6799999999999999E-002     8.7453872502682560E-020
  -3.6749999999999998E-002     2.2135682770695794E-018
  -3.6700000000000003E-002     4.3982006229610828E-018
  -3.6650000000000002E-002     5.6935712163193287E-018
  -3.6600000000000001E-002     5.1874860791013897E-018
  -3.6549999999999999E-002     2.4496783985770107E-018
  -3.6499999999999998E-002    -2.1132164023578702E-018
  -3.6450000000000003E-002    -7.2062102210220338E-018
  -3.6400000000000002E-002    -1.1005985305295334E-017
  -3.6350000000000000E-002    -1.1843218143077954E-017
  -3.6299999999999999E-002    -8.9218446560838943E-018
  -3.6249999999999998E-002    -2.7162715635331864E-018
  -3.6200000000000003E-002     5.1863215662833406E-018
  -3.6150000000000002E-002     1.2737967708512301E-017
  -3.6100000000000000E-002     1.8206444010952627E-017
  -3.6049999999999999E-002     2.0585879396143822E-017
  -3.6000000000000004E-002     1.9352687510809089E-017
  -3.5950000000000003E-002     1.3754410127145577E-017
  -3.5900000000000001E-002     2.3143909075030270E-018
  -3.5850000000000000E-002    -1.6610915013701228E-017
  -3.5799999999999998E-002    -4.2834009345972547E-017
  -3.5750000000000004E-002    -7.1511903840102908E-017
  -3.5700000000000003E-002    -9.1217384327606527E-017
  -3.5650000000000001E-002    -8.5127920647054697E-017
  -3.5600000000000000E-002    -3.6810839525541110E-017
  -3.5549999999999998E-002     6.0028853565962863E-017
  -3.5500000000000004E-002     1.9128686494796158E-016
  -3.5450000000000002E-002     3.1728127508758059E-016
  -3.5400000000000001E-002     3.7819418154263680E-016
  -3.5349999999999999E-002     3.1251497972037279E-016
  -3.5299999999999998E-002     8.5114728883917474E-017
  -3.5250000000000004E-002    -2.8468227299982356E-016
  -3.5200000000000002E-002    -7.0839367723513698E-016
  -3.5150000000000001E-002    -1.0388860018958834E-015
  -3.5099999999999999E-002    -1.1102817660529905E-015
  -3.5049999999999998E-002    -7.9952445906851621E-016
  -3.5000000000000003E-002    -9.0020242339715482E-017
  -3.4950000000000002E-002     8.8858890332289701E-016
  -3.4900000000000000E-002     1.8672443402607926E-015
  -3.4849999999999999E-002     2.5000797397024766E-015
  -3.4799999999999998E-002     2.4717718530783238E-015
  -3.4750000000000003E-002     1.6187180195848753E-015
  -3.4700000000000002E-002     2.1750841438225816E-017
  -3.4650000000000000E-002    -1.9688997301713329E-015
  -3.4599999999999999E-002    -3.7973591094886201E-015
  -3.4549999999999997E-002    -4.8468891273433527E-015
  -3.4500000000000003E-002    -4.6285930770590942E-015
  -3.4450000000000001E-002    -2.9575147255746971E-015
  -3.4400000000000000E-002    -5.8003378802056279E-017
  -3.4349999999999999E-002     3.4419519298051004E-015
  -3.4299999999999997E-002     6.6358559080877890E-015
  -3.4250000000000003E-002     8.5564160069441645E-015
  -3.4200000000000001E-002     8.4317466839662566E-015
  -3.4150000000000000E-002     5.9151420197901209E-015
  -3.4099999999999998E-002     1.2308496837923131E-015
  -3.4049999999999997E-002    -4.8009049268850678E-015
  -3.4000000000000002E-002    -1.0870474397059838E-014
  -3.3950000000000001E-002    -1.5404685543854022E-014
  -3.3900000000000000E-002    -1.6882995513642882E-014
  -3.3849999999999998E-002    -1.4202375026773056E-014
  -3.3799999999999997E-002    -7.0361376014442265E-015
  -3.3750000000000002E-002     3.8852310869694946E-015
  -3.3700000000000001E-002     1.6660222986111292E-014
  -3.3649999999999999E-002     2.8362624115894774E-014
  -3.3599999999999998E-002     3.5514675414787042E-014
  -3.3550000000000003E-002     3.4883402215942764E-014
  -3.3500000000000002E-002     2.4485292322036189E-014
  -3.3450000000000001E-002     4.5591969819729452E-015
  -3.3399999999999999E-002    -2.1823671460690329E-014
  -3.3349999999999998E-002    -4.8845023899614737E-014
  -3.3300000000000003E-002    -6.8925858779319264E-014
  -3.3250000000000002E-002    -7.4568321293445273E-014
  -3.3200000000000000E-002    -6.0688867156605197E-014
  -3.3149999999999999E-002    -2.6796904906878610E-014
  -3.3099999999999997E-002     2.1750891292574884E-014
  -3.3050000000000003E-002     7.4067010666321905E-014
  -3.3000000000000002E-002     1.1587970451847297E-013
  -3.2950000000000000E-002     1.3320111390604529E-013
  -3.2899999999999999E-002     1.1662885838600680E-013
  -3.2850000000000004E-002     6.5010423965661798E-014
  -3.2800000000000003E-002    -1.2814245566364830E-014
  -3.2750000000000001E-002    -9.9053070798500692E-014
  -3.2700000000000000E-002    -1.7086980714923307E-013
  -3.2649999999999998E-002    -2.0633408722186166E-013
  -3.2600000000000004E-002    -1.9084043762148425E-013
  -3.2550000000000003E-002    -1.2210867784782040E-013
  -3.2500000000000001E-002    -1.2142755089850931E-014
  -3.2450000000000000E-002     1.1467557627702004E-013
  -3.2399999999999998E-002     2.2707592808049628E-013
  -3.2350000000000004E-002     2.9462244265645714E-013
  -3.2300000000000002E-002     2.9563810928985589E-013
  -3.2250000000000001E-002     2.2321555631417535E-013
  -3.2199999999999999E-002     8.7735696227258109E-014
  -3.2149999999999998E-002    -8.4719365520510492E-014
  -3.2100000000000004E-002    -2.5760272338325887E-013
  -3.2050000000000002E-002    -3.9148988953751661E-013
  -3.2000000000000001E-002    -4.5232119206080280E-013
  -3.1949999999999999E-002    -4.1868128976091537E-013
  -3.1899999999999998E-002    -2.8689997927313982E-013
  -3.1850000000000003E-002    -7.3252481240515074E-014
  -3.1800000000000002E-002     1.8707468592202798E-013
  -3.1750000000000000E-002     4.4435261744191233E-013
  -3.1699999999999999E-002     6.4192192032464740E-013
  -3.1649999999999998E-002     7.2659743740451263E-013
  -3.1600000000000003E-002     6.6074352971878295E-013
  -3.1550000000000002E-002     4.3395604963941473E-013
  -3.1500000000000000E-002     7.1399757614093874E-014
  -3.1449999999999999E-002    -3.6448903317824347E-013
  -3.1399999999999997E-002    -7.8151392613868097E-013
  -3.1350000000000003E-002    -1.0750635414866439E-012
  -3.1300000000000001E-002    -1.1529732371509822E-012
  -3.1250000000000000E-002    -9.6248694526308573E-013
  -3.1199999999999999E-002    -5.1176483180777398E-013
  -3.1150000000000001E-002     1.2171001517243305E-013
  -3.1100000000000003E-002     8.0098324426490311E-013
  -3.1050000000000001E-002     1.3581260763265890E-012
  -3.1000000000000000E-002     1.6359464405430828E-012
  -3.0949999999999998E-002     1.5324537202489780E-012
  -3.0900000000000000E-002     1.0352411854436688E-012
  -3.0850000000000002E-002     2.3440609662887164E-013
  -3.0800000000000001E-002    -6.9207427778148805E-013
  -3.0750000000000000E-002    -1.5188084907465781E-012
  -3.0699999999999998E-002    -2.0296608244015354E-012
  -3.0650000000000000E-002    -2.0754847076513046E-012
  -3.0600000000000002E-002    -1.6166569506559388E-012
  -3.0550000000000001E-002    -7.3798406878003657E-013
  -3.0499999999999999E-002     3.6874294739388346E-013
  -3.0449999999999998E-002     1.4500696048809006E-012
  -3.0400000000000000E-002     2.2518251372951518E-012
  -3.0350000000000002E-002     2.5795187405837677E-012
  -3.0300000000000001E-002     2.3429788661625961E-012
  -3.0249999999999999E-002     1.5752882726628263E-012
  -3.0200000000000001E-002     4.2359984608369062E-013
  -3.0150000000000000E-002    -8.8340620511391529E-013
  -3.0100000000000002E-002    -2.0820152763390210E-012
  -3.0050000000000000E-002    -2.9233609154118267E-012
  -2.9999999999999999E-002    -3.2179880169320727E-012
  -2.9950000000000001E-002    -2.8696209250756973E-012
  -2.9899999999999999E-002    -1.8954719841095031E-012
  -2.9850000000000002E-002    -4.3163718910038018E-013
  -2.9800000000000000E-002     1.2781113409826178E-012
  -2.9749999999999999E-002     2.9122576790902529E-012
  -2.9700000000000001E-002     4.1211494668793294E-012
  -2.9650000000000003E-002     4.5933175265546030E-012
  -2.9600000000000001E-002     4.1292121916444972E-012
  -2.9550000000000000E-002     2.7063362715569595E-012
  -2.9499999999999998E-002     5.1592302913477944E-013
  -2.9450000000000000E-002    -2.0466870638470672E-012
  -2.9400000000000003E-002    -4.4465636309125845E-012
  -2.9350000000000001E-002    -6.1221487110754986E-012
  -2.9300000000000000E-002    -6.6235343920233231E-012
  -2.9249999999999998E-002    -5.7404206835817911E-012
  -2.9200000000000000E-002    -3.5811193731460560E-012
  -2.9150000000000002E-002    -5.7323519859074873E-013
  -2.9100000000000001E-002     2.6231411057315202E-012
  -2.9049999999999999E-002     5.2732240637932011E-012
  -2.8999999999999998E-002     6.7566746155632877E-012
  -2.8950000000000000E-002     6.7358222661033522E-012
  -2.8900000000000002E-002     5.2535567372678173E-012
  -2.8850000000000001E-002     2.7298986431949591E-012
  -2.8799999999999999E-002    -1.4498229877008519E-013
  -2.8749999999999998E-002    -2.5932597269415945E-012
  -2.8700000000000000E-002    -3.9572552259797111E-012
  -2.8650000000000002E-002    -3.8752783924942119E-012
  -2.8600000000000000E-002    -2.3782575321445607E-012
  -2.8549999999999999E-002     1.1655643607581958E-013
  -2.8500000000000001E-002     2.9093895569253735E-012
  -2.8450000000000000E-002     5.1882860730410461E-012
  -2.8400000000000002E-002     6.2204676619551791E-012
  -2.8350000000000000E-002     5.5188244668389018E-012
  -2.8299999999999999E-002     2.9495539390527973E-012
  -2.8250000000000001E-002    -1.2343661301766234E-012
  -2.8200000000000003E-002    -6.4306624815608406E-012
  -2.8150000000000001E-002    -1.1780002175394884E-011
  -2.8100000000000000E-002    -1.6291674386190207E-011
  -2.8049999999999999E-002    -1.8982469185360078E-011
  -2.8000000000000001E-002    -1.9012468332039239E-011
  -2.7950000000000003E-002    -1.5804219664265503E-011
  -2.7900000000000001E-002    -9.1317931246709489E-012
  -2.7850000000000000E-002     8.3548767995053458E-013
  -2.7799999999999998E-002     1.3549912492497930E-011
  -2.7750000000000000E-002     2.8172564552485277E-011
  -2.7700000000000002E-002     4.3727807039909488E-011
  -2.7650000000000001E-002     5.9303433872069277E-011
  -2.7600000000000000E-002     7.4256191453430209E-011
  -2.7549999999999998E-002     8.8370858612982237E-011
  -2.7500000000000000E-002     1.0192303126671776E-010
  -2.7450000000000002E-002     1.1561481948484095E-010
  -2.7400000000000001E-002     1.3038482402429746E-010
  -2.7349999999999999E-002     1.4713115233342506E-010
  -2.7299999999999998E-002     1.6641734911442366E-010
  -2.7250000000000000E-002     1.8824401338284067E-010
  -2.7200000000000002E-002     2.1195808962257872E-010
  -2.7150000000000001E-002     2.3633790020769987E-010
  -2.7099999999999999E-002     2.5984416680314656E-010
  -2.7049999999999998E-002     2.8097814166194490E-010
  -2.7000000000000000E-002     2.9865546277741113E-010
  -2.6950000000000002E-002     3.1249539998806729E-010
  -2.6900000000000000E-002     3.2294618054128636E-010
  -2.6849999999999999E-002     3.3121053295749714E-010
  -2.6800000000000001E-002     3.3898857606891241E-010
  -2.6749999999999999E-002     3.4810352848492914E-010
  -2.6700000000000002E-002     3.6010361716906650E-010
  -2.6650000000000000E-002     3.7593552379363304E-010
  -2.6599999999999999E-002     3.9576234635260128E-010
  -2.6550000000000001E-002     4.1895920020885910E-010
  -2.6500000000000003E-002     4.4427534446266087E-010
  -2.6450000000000001E-002     4.7011656072012029E-010
  -2.6400000000000000E-002     4.9488019935842084E-010
  -2.6349999999999998E-002     5.1727066166224369E-010
  -2.6300000000000000E-002     5.3653715005416525E-010
  -2.6250000000000002E-002     5.5259543638716696E-010
  -2.6200000000000001E-002     5.6601984763940585E-010
  -2.6150000000000000E-002     5.7791494866011987E-010
  -2.6099999999999998E-002     5.8969489019751390E-010
  -2.6050000000000000E-002     6.0281157080279106E-010
  -2.6000000000000002E-002     6.1847929327719535E-010
  -2.5950000000000001E-002     6.3744569143422731E-010
  -2.5899999999999999E-002     6.5985190971972348E-010
  -2.5849999999999998E-002     6.8521241868112295E-010
  -2.5800000000000000E-002     7.1252213254543607E-010
  -2.5750000000000002E-002     7.4047617918836672E-010
  -2.5700000000000001E-002     7.6776036625959043E-010
  -2.5649999999999999E-002     7.9335408925185027E-010
  -2.5599999999999998E-002     8.1678077661141213E-010
  -2.5550000000000000E-002     8.3824535869588492E-010
  -2.5500000000000002E-002     8.5862285567521562E-010
  -2.5450000000000000E-002     8.7928937233137511E-010
  -2.5399999999999999E-002     9.0182458821473855E-010
  -2.5349999999999998E-002     9.2764606704601464E-010
  -2.5300000000000000E-002     9.5765821103462248E-010
  -2.5250000000000002E-002     9.9200185364569687E-010
  -2.5200000000000000E-002     1.0299749466156739E-009
  -2.5149999999999999E-002     1.0701569356150651E-009
  -2.5100000000000001E-002     1.1107229656869279E-009
  -2.5049999999999999E-002     1.1498792909742534E-009
  -2.5000000000000001E-002     1.1863150192551047E-009
  -2.4950000000000000E-002     1.2195540653628322E-009
  -2.4899999999999999E-002     1.2501097114327216E-009
  -2.4850000000000001E-002     1.2793955770594847E-009
  -2.4800000000000003E-002     1.3094088992282215E-009
  -2.4750000000000001E-002     1.3422664121434467E-009
  -2.4700000000000000E-002     1.3797144137732741E-009
  -2.4649999999999998E-002     1.4227405433036964E-009
  -2.4600000000000000E-002     1.4713786549749268E-009
  -2.4550000000000002E-002     1.5247433588966746E-009
  -2.4500000000000001E-002     1.5812675182312711E-009
  -2.4450000000000000E-002     1.6390649167867060E-009
  -2.4399999999999998E-002     1.6963235637586181E-009
  -2.4350000000000000E-002     1.7516463537147857E-009
  -2.4299999999999999E-002     1.8042811764674613E-009
  -2.4250000000000001E-002     1.8542230684662525E-009
  -2.4199999999999999E-002     1.9021948293631427E-009
  -2.4150000000000001E-002     1.9495194128754971E-009
  -2.4100000000000000E-002     1.9979069606994001E-009
  -2.4049999999999998E-002     2.0491779479961007E-009
  -2.4000000000000000E-002     2.1049488182396616E-009
  -2.3949999999999999E-002     2.1663312445995709E-009
  -2.3900000000000001E-002     2.2337102162660954E-009
  -2.3850000000000000E-002     2.3066647290059776E-009
  -2.3800000000000002E-002     2.3840824219892084E-009
  -2.3750000000000000E-002     2.4644539486490508E-009
  -2.3699999999999999E-002     2.5462893300846131E-009
  -2.3650000000000001E-002     2.6285299553964360E-009
  -2.3599999999999999E-002     2.7108381128308368E-009
  -2.3550000000000001E-002     2.7936682504137568E-009
  -2.3500000000000000E-002     2.8780960783591083E-009
  -2.3449999999999999E-002     2.9654663207471375E-009
  -2.3400000000000001E-002     3.0569762805438033E-009
  -2.3349999999999999E-002     3.1533304580174105E-009
  -2.3300000000000001E-002     3.2545654442549019E-009
  -2.3250000000000000E-002     3.3600780061823727E-009
  -2.3199999999999998E-002     3.4688178156282882E-009
  -2.3150000000000000E-002     3.5795617740206853E-009
  -2.3099999999999999E-002     3.6911819601021110E-009
  -2.3050000000000001E-002     3.8028403239416044E-009
  -2.3000000000000000E-002     3.9141078643586064E-009
  -2.2950000000000002E-002     4.0250164339742813E-009
  -2.2900000000000000E-002     4.1360703699344091E-009
  -2.2849999999999999E-002     4.2482227709357726E-009
  -2.2800000000000001E-002     4.3627942172035631E-009
  -2.2749999999999999E-002     4.4813093296512319E-009
  -2.2700000000000001E-002     4.6052372147342821E-009
  -2.2650000000000000E-002     4.7356959350849459E-009
  -2.2599999999999999E-002     4.8731893195836772E-009
  -2.2550000000000001E-002     5.0174902968599400E-009
  -2.2499999999999999E-002     5.1677312414914977E-009
  -2.2450000000000001E-002     5.3226987561253914E-009
  -2.2400000000000000E-002     5.4812537621400933E-009
  -2.2349999999999998E-002     5.6427357330041323E-009
  -2.2300000000000000E-002     5.8072081585970532E-009
  -2.2249999999999999E-002     5.9754749984141506E-009
  -2.2200000000000001E-002     6.1488527643469758E-009
  -2.2150000000000000E-002     6.3288150920637204E-009
  -2.2100000000000002E-002     6.5166317803249167E-009
  -2.2050000000000000E-002     6.7131390635927587E-009
  -2.1999999999999999E-002     6.9186789896252303E-009
  -2.1950000000000001E-002     7.1331849888773104E-009
  -2.1899999999999999E-002     7.3563335443820981E-009
  -2.1850000000000001E-002     7.5876686509296196E-009
  -2.1800000000000000E-002     7.8266563995814673E-009
  -2.1749999999999999E-002     8.0726852029086792E-009
  -2.1700000000000001E-002     8.3250629263933997E-009
  -2.1649999999999999E-002     8.5830719302186279E-009
  -2.1600000000000001E-002     8.8460757936392884E-009
  -2.1550000000000000E-002     9.1136492533393906E-009
  -2.1499999999999998E-002     9.3856363776359301E-009
  -2.1450000000000000E-002     9.6620962393823452E-009
  -2.1399999999999999E-002     9.9431299194099802E-009
  -2.1350000000000001E-002     1.0228655639478566E-008
  -2.1299999999999999E-002     1.0518248578115933E-008
  -2.1250000000000002E-002     1.0811161278805366E-008
  -2.1200000000000000E-002     1.1106539804216034E-008
  -2.1149999999999999E-002     1.1403785731095771E-008
  -2.1100000000000001E-002     1.1702927792004425E-008
  -2.1049999999999999E-002     1.2004838791776017E-008
  -2.1000000000000001E-002     1.2311190397112261E-008
  -2.0950000000000000E-002     1.2624169548232879E-008
  -2.0899999999999998E-002     1.2946068166941192E-008
  -2.0850000000000000E-002     1.3278904706202201E-008
  -2.0799999999999999E-002     1.3624225689005679E-008
  -2.0750000000000001E-002     1.3983136503850363E-008
  -2.0700000000000000E-002     1.4356494343261625E-008
  -2.0649999999999998E-002     1.4745133930652162E-008
  -2.0600000000000000E-002     1.5150014450079653E-008
  -2.0549999999999999E-002     1.5572209390211008E-008
  -2.0500000000000001E-002     1.6012788596400938E-008
  -2.0449999999999999E-002     1.6472697012351776E-008
  -2.0400000000000001E-002     1.6952689416186545E-008
  -2.0350000000000000E-002     1.7453374518135379E-008
  -2.0299999999999999E-002     1.7975301724556318E-008
  -2.0250000000000001E-002     1.8519020281644644E-008
  -2.0199999999999999E-002     1.9085001611669311E-008
  -2.0150000000000001E-002     1.9673407741352174E-008
  -2.0100000000000000E-002     2.0283825130203733E-008
  -2.0049999999999998E-002     2.0915061135446903E-008
  -2.0000000000000000E-002     2.1565130455260473E-008
  -1.9949999999999999E-002     2.2231504737874803E-008
  -1.9900000000000001E-002     2.2911525649354805E-008
  -1.9850000000000000E-002     2.3602830999782596E-008
  -1.9799999999999998E-002     2.4303601262104365E-008
  -1.9750000000000000E-002     2.5012545979059150E-008
  -1.9699999999999999E-002     2.5728663099986721E-008
  -1.9650000000000001E-002     2.6450931134479905E-008
  -1.9599999999999999E-002     2.7178108784894149E-008
  -1.9550000000000001E-002     2.7908773314968790E-008
  -1.9500000000000000E-002     2.8641594432854055E-008
  -1.9449999999999999E-002     2.9375717571441345E-008
  -1.9400000000000001E-002     3.0111069299437155E-008
  -1.9349999999999999E-002     3.0848497427816134E-008
  -1.9300000000000001E-002     3.1589680486203884E-008
  -1.9250000000000000E-002     3.2336940167147024E-008
  -1.9199999999999998E-002     3.3093116308054489E-008
  -1.9150000000000000E-002     3.3861594628710217E-008
  -1.9099999999999999E-002     3.4646475216353901E-008
  -1.9050000000000001E-002     3.5452779374300735E-008
  -1.9000000000000000E-002     3.6286444633055293E-008
  -1.8949999999999998E-002     3.7154025914231765E-008
  -1.8900000000000000E-002     3.8062134846044337E-008
  -1.8849999999999999E-002     3.9016720242446242E-008
  -1.8800000000000001E-002     4.0022557541002135E-008
  -1.8749999999999999E-002     4.1083108221930513E-008
  -1.8700000000000001E-002     4.2200886162365805E-008
  -1.8650000000000000E-002     4.3378102172902591E-008
  -1.8599999999999998E-002     4.4617393325987874E-008
  -1.8550000000000001E-002     4.5922194507693120E-008
  -1.8499999999999999E-002     4.7296593142501537E-008
  -1.8450000000000001E-002     4.8744750402983982E-008
  -1.8400000000000000E-002     5.0270087957285797E-008
  -1.8349999999999998E-002     5.1874601894113237E-008
  -1.8300000000000000E-002     5.3558538712521218E-008
  -1.8249999999999999E-002     5.5320501069165533E-008
  -1.8200000000000001E-002     5.7157898163684288E-008
  -1.8149999999999999E-002     5.9067341379936339E-008
  -1.8100000000000002E-002     6.1044892098220174E-008
  -1.8050000000000000E-002     6.3085996968252929E-008
  -1.7999999999999999E-002     6.5185282565463024E-008
  -1.7950000000000001E-002     6.7336407832580218E-008
  -1.7899999999999999E-002     6.9532188024048520E-008
  -1.7850000000000001E-002     7.1765058661169043E-008
  -1.7800000000000000E-002     7.4027823153459447E-008
  -1.7749999999999998E-002     7.6314253715060154E-008
  -1.7700000000000000E-002     7.8619504463449153E-008
  -1.7649999999999999E-002     8.0939888277320678E-008
  -1.7600000000000001E-002     8.3272452824473473E-008
  -1.7550000000000000E-002     8.5614422950990344E-008
  -1.7499999999999998E-002     8.7962845025691408E-008
  -1.7450000000000000E-002     9.0314716956672257E-008
  -1.7399999999999999E-002     9.2667493239067645E-008
  -1.7350000000000001E-002     9.5019746026960892E-008
  -1.7299999999999999E-002     9.7371680486069470E-008
  -1.7250000000000001E-002     9.9725303446666032E-008
  -1.7200000000000000E-002     1.0208410649118958E-007
  -1.7149999999999999E-002     1.0445247129414088E-007
  -1.7100000000000001E-002     1.0683501069443173E-007
  -1.7049999999999999E-002     1.0923613125054714E-007
  -1.7000000000000001E-002     1.1165991855137388E-007
  -1.6950000000000000E-002     1.1411031154337870E-007
  -1.6899999999999998E-002     1.1659140538300281E-007
  -1.6850000000000000E-002     1.1910762270638137E-007
  -1.6799999999999999E-002     1.2166362387983475E-007
  -1.6750000000000001E-002     1.2426417952314218E-007
  -1.6700000000000000E-002     1.2691391225519122E-007
  -1.6649999999999998E-002     1.2961735265527387E-007
  -1.6600000000000000E-002     1.3237905317468671E-007
  -1.6549999999999999E-002     1.3520376446530954E-007
  -1.6500000000000001E-002     1.3809658007631008E-007
  -1.6449999999999999E-002     1.4106267961046056E-007
  -1.6400000000000001E-002     1.4410678377117555E-007
  -1.6350000000000000E-002     1.4723261594804871E-007
  -1.6299999999999999E-002     1.5044238245597851E-007
  -1.6250000000000001E-002     1.5373691743419733E-007
  -1.6199999999999999E-002     1.5711594866715103E-007
  -1.6150000000000001E-002     1.6057873901196985E-007
  -1.6100000000000000E-002     1.6412476692515145E-007
  -1.6049999999999998E-002     1.6775410559373973E-007
  -1.6000000000000000E-002     1.7146746899564786E-007
  -1.5949999999999999E-002     1.7526587020221419E-007
  -1.5900000000000001E-002     1.7915023434590688E-007
  -1.5850000000000000E-002     1.8312117923898580E-007
  -1.5799999999999998E-002     1.8717930821797270E-007
  -1.5750000000000000E-002     1.9132552913365872E-007
  -1.5699999999999999E-002     1.9556158976716323E-007
  -1.5650000000000001E-002     1.9989022579210990E-007
  -1.5599999999999999E-002     2.0431507655243557E-007
  -1.5550000000000001E-002     2.0884024234072370E-007
  -1.5500000000000000E-002     2.1346970069489835E-007
  -1.5449999999999998E-002     2.1820695701170146E-007
  -1.5400000000000000E-002     2.2305506354142380E-007
  -1.5349999999999999E-002     2.2801712150250816E-007
  -1.5300000000000001E-002     2.3309690582798523E-007
  -1.5250000000000000E-002     2.3829918635193692E-007
  -1.5199999999999998E-002     2.4362945080247518E-007
  -1.5150000000000000E-002     2.4909315249329326E-007
  -1.5099999999999999E-002     2.5469456558683629E-007
  -1.5050000000000001E-002     2.6043588492838529E-007
  -1.4999999999999999E-002     2.6631668269740405E-007
  -1.4949999999999998E-002     2.7233456385553884E-007
  -1.4900000000000000E-002     2.7848606786415474E-007
  -1.4849999999999999E-002     2.8476778513927523E-007
  -1.4800000000000001E-002     2.9117738068228564E-007
  -1.4749999999999999E-002     2.9771400328775001E-007
  -1.4700000000000001E-002     3.0437818526090707E-007
  -1.4650000000000000E-002     3.1117134738112016E-007
  -1.4599999999999998E-002     3.1809525734086217E-007
  -1.4550000000000000E-002     3.2515161734644506E-007
  -1.4499999999999999E-002     3.3234162133946886E-007
  -1.4450000000000001E-002     3.3966599571275493E-007
  -1.4400000000000000E-002     3.4712523187271856E-007
  -1.4349999999999998E-002     3.5471981101217784E-007
  -1.4300000000000000E-002     3.6245002852864376E-007
  -1.4249999999999999E-002     3.7031601727986599E-007
  -1.4200000000000001E-002     3.7831739196394893E-007
  -1.4149999999999999E-002     3.8645367539283272E-007
  -1.4099999999999998E-002     3.9472472585564041E-007
  -1.4050000000000000E-002     4.0313165731291087E-007
  -1.3999999999999999E-002     4.1167705010604014E-007
  -1.3950000000000001E-002     4.2036517386539070E-007
  -1.3899999999999999E-002     4.2920163802570318E-007
  -1.3850000000000001E-002     4.3819304288194040E-007
  -1.3800000000000000E-002     4.4734670400155309E-007
  -1.3749999999999998E-002     4.5667061576487078E-007
  -1.3700000000000000E-002     4.6617334782320354E-007
  -1.3649999999999999E-002     4.7586409942764774E-007
  -1.3600000000000001E-002     4.8575244629983775E-007
  -1.3550000000000000E-002     4.9584778171079149E-007
  -1.3499999999999998E-002     5.0615914324774913E-007
  -1.3450000000000000E-002     5.1669483375521813E-007
  -1.3399999999999999E-002     5.2746179972050333E-007
  -1.3350000000000001E-002     5.3846536488475889E-007
  -1.3299999999999999E-002     5.4970957824721760E-007
  -1.3249999999999998E-002     5.6119719244182869E-007
  -1.3200000000000000E-002     5.7293019852136626E-007
  -1.3149999999999998E-002     5.8490967140545830E-007
  -1.3100000000000001E-002     5.9713555857499793E-007
  -1.3049999999999999E-002     6.0960704361395816E-007
  -1.3000000000000001E-002     6.2232248337511668E-007
  -1.2950000000000000E-002     6.3527965566627514E-007
  -1.2899999999999998E-002     6.4847647580085855E-007
  -1.2850000000000000E-002     6.6191161353715595E-007
  -1.2799999999999999E-002     6.7558525998178079E-007