  -4.0000000000000001E-002     0.0000000000000000     
  -3.9949999999999999E-002     0.0000000000000000     
  -3.9899999999999998E-002     0.0000000000000000     
  -3.9850000000000003E-002     0.0000000000000000     
  -3.9800000000000002E-002     0.0000000000000000     
  -3.9750000000000001E-002     0.0000000000000000     
  -3.9699999999999999E-002     0.0000000000000000     
  -3.9649999999999998E-002     0.0000000000000000     
  -3.9600000000000003E-002     0.0000000000000000     
  -3.9550000000000002E-002     0.0000000000000000     
  -3.9500000000000000E-002     0.0000000000000000     
  -3.9449999999999999E-002     1.7594439229923541E-031
  -3.9399999999999998E-002     2.4211297046857337E-030
  -3.9350000000000003E-002     1.4785570615633657E-029
  -3.9300000000000002E-002     4.5290508319033710E-029
  -3.9250000000000000E-002     1.1361515738363234E-029
  -3.9199999999999999E-002    -5.7101271469834546E-028
  -3.9150000000000004E-002    -2.9594457927238807E-027
  -3.9100000000000003E-002    -8.0566780150876189E-027
  -3.9050000000000001E-002    -9.6988584355020308E-027
  -3.9000000000000000E-002     2.1458956279311897E-026
  -3.8949999999999999E-002     1.5384658471529985E-025
  -3.8900000000000004E-002     4.6453148099014417E-025
  -3.8850000000000003E-002     8.7317582124314752E-025
  -3.8800000000000001E-002     7.7904111671568906E-025
  -3.8750000000000000E-002    -1.3318952089484046E-024
  -3.8699999999999998E-002    -7.6613624417671842E-024
  -3.8650000000000004E-002    -1.9151088845024916E-023
  -3.8600000000000002E-002    -3.1066601681935019E-023
  -3.8550000000000001E-002    -2.7516283114263278E-023
  -3.8500000000000000E-002     1.9687399279500380E-023
  -3.8449999999999998E-002     1.3892093473813836E-022
  -3.8400000000000004E-002     3.2666263093210775E-022
  -3.8350000000000002E-002     5.0178375612761166E-022
  -3.8300000000000001E-002     4.7579449186028060E-022
  -3.8249999999999999E-002    -1.1081386151305852E-023
  -3.8199999999999998E-002    -1.1451498838807617E-021
  -3.8150000000000003E-002    -2.7988630028040961E-021
  -3.8100000000000002E-002    -4.3066011086985874E-021
  -3.8050000000000000E-002    -4.4572608002932689E-021
  -3.7999999999999999E-002    -1.8948902189405231E-021
  -3.7949999999999998E-002     4.0587903950569736E-021
  -3.7900000000000003E-002     1.2464998839915568E-020
  -3.7850000000000002E-002     2.0309783603256861E-020
  -3.7800000000000000E-002     2.3137329986523835E-020
  -3.7749999999999999E-002     1.6935908252008256E-020
  -3.7699999999999997E-002     6.2052303477069456E-022
  -3.7650000000000003E-002    -2.2288068161827830E-020
  -3.7600000000000001E-002    -4.4246984639283550E-020
  -3.7550000000000000E-002    -5.6994181452326245E-020
  -3.7499999999999999E-002    -5.6242333996886392E-020
  -3.7449999999999997E-002    -4.4878604663478246E-020
  -3.7400000000000003E-002    -3.1732835885175357E-020
  -3.7350000000000001E-002    -2.5094832375485318E-020
  -3.7300000000000000E-002    -2.3756398822930642E-020
  -3.7249999999999998E-002    -1.1380889355023829E-020
  -3.7200000000000004E-002     3.9912930453815038E-020
  -3.7150000000000002E-002     1.5482340791578170E-019
  -3.7100000000000001E-002     3.3371629283378183E-019
  -3.7050000000000000E-002     5.3556849716562319E-019
  -3.6999999999999998E-002     6.7655156778456551E-019
  -3.6950000000000004E-002     6.5032490279105076E-019
  -3.6900000000000002E-002     3.6610609277569822E-019
  -3.6850000000000001E-002    -2.0888569156850665E-019
  -3.6799999999999999E-002    -1.0196046971475727E-018
  -3.6749999999999998E-002    -1.9183287901194514E-018
  -3.6700000000000003E-002    -2.6866813700801682E-018
  -3.6650000000000002E-002    -3.0760390684176073E-018
  -3.6600000000000001E-002    -2.8534296911000112E-018
  -3.6549999999999999E-002    -1.8437670055525655E-018
  -3.6499999999999998E-002     3.1909293181148471E-020
  -3.6450000000000003E-002     2.7152117984400509E-018
  -3.6400000000000002E-002     5.9597989800164833E-018
  -3.6350000000000000E-002     9.2759038397909009E-018
  -3.6299999999999999E-002     1.1892800475382405E-017
  -3.6249999999999998E-002     1.2780143389889920E-017
  -3.6200000000000003E-002     1.0777515767574890E-017
  -3.6150000000000002E-002     4.8709899028747366E-018
  -3.6100000000000000E-002    -5.3803697207944711E-018
  -3.6049999999999999E-002    -1.9327369203974848E-017
  -3.6000000000000004E-002    -3.4762590364797089E-017
  -3.5950000000000003E-002    -4.7718225800314686E-017
  -3.5900000000000001E-002    -5.2785359935588423E-017
  -3.5850000000000000E-002    -4.4166591207817693E-017
  -3.5799999999999998E-002    -1.7510850759450058E-017
  -3.5750000000000004E-002     2.7710231322471536E-017
  -3.5700000000000003E-002     8.5894273408039258E-017
  -3.5650000000000001E-002     1.4401395016027664E-016
  -3.5600000000000000E-002     1.8241463488251188E-016
  -3.5549999999999998E-002     1.7853347857081530E-016
  -3.5500000000000004E-002     1.1363188447772077E-016
  -3.5450000000000002E-002    -1.8538168724052428E-017
  -3.5400000000000001E-002    -2.0353875318817447E-016
  -3.5349999999999999E-002    -4.0190802212619138E-016
  -3.5299999999999998E-002    -5.5211738067751877E-016
  -3.5250000000000004E-002    -5.8292883736041008E-016
  -3.5200000000000002E-002    -4.3449759781722523E-016
  -3.5150000000000001E-002    -8.3926514339713957E-017
  -3.5099999999999999E-002     4.3239291822411138E-016
  -3.5049999999999998E-002     1.0089643620319855E-015
  -3.5000000000000003E-002     1.4818757078517964E-015
  -3.4950000000000002E-002     1.6631950801953133E-015
  -3.4900000000000000E-002     1.3948185924059878E-015
  -3.4849999999999999E-002     6.0938606579500391E-016
  -3.4799999999999998E-002    -6.2011401610007659E-016
  -3.4750000000000003E-002    -2.0615940203537880E-015
  -3.4700000000000002E-002    -3.3502969911801625E-015
  -3.4650000000000000E-002    -4.0635101504647444E-015
  -3.4599999999999999E-002    -3.8319841731531564E-015
  -3.4549999999999997E-002    -2.4624764779327446E-015
  -3.4500000000000003E-002    -3.7132764951417379E-017
  -3.4450000000000001E-002     3.0444235252525081E-015
  -3.4400000000000000E-002     6.1040944141226188E-015
  -3.4349999999999999E-002     8.3103404096336135E-015
  -3.4299999999999997E-002     8.8710219575927452E-015
  -3.4250000000000003E-002     7.2543193722892121E-015
  -3.4200000000000001E-002     3.3840289251374070E-015
  -3.4150000000000000E-002    -2.2463985270816815E-015
  -3.4099999999999998E-002    -8.5848474099531317E-015
  -3.4049999999999997E-002    -1.4175969084670072E-014
  -3.4000000000000002E-002    -1.7447946539634105E-014
  -3.3950000000000001E-002    -1.7083271444833953E-014
  -3.3900000000000000E-002    -1.2397798831456493E-014
  -3.3849999999999998E-002    -3.6371292352277798E-015
  -3.3799999999999997E-002     7.8972238382271434E-015
  -3.3750000000000002E-002     1.9954770245481689E-014
  -3.3700000000000001E-002     2.9694905161129786E-014
  -3.3649999999999999E-002     3.4259676155559034E-014
  -3.3599999999999998E-002     3.1463705123201022E-014
  -3.3550000000000003E-002     2.0457623070573918E-014
  -3.3500000000000002E-002     2.2001348643847796E-015
  -3.3450000000000001E-002    -2.0411913124463332E-014
  -3.3399999999999999E-002    -4.2852830486797264E-014
  -3.3349999999999998E-002    -5.9727458309526709E-014
  -3.3300000000000003E-002    -6.5886053394376641E-014
  -3.3250000000000002E-002    -5.7697621100273222E-014
  -3.3200000000000000E-002    -3.4209950573406120E-014
  -3.3149999999999999E-002     2.1002222702178688E-015
  -3.3099999999999997E-002     4.5243261636807869E-014
  -3.3050000000000003E-002     8.6447423786120292E-014
  -3.3000000000000002E-002     1.1568948238137892E-013
  -3.2950000000000000E-002     1.2381833773456098E-013
  -3.2899999999999999E-002     1.0488317721390729E-013
  -3.2850000000000004E-002     5.8151589097706249E-014
  -3.2800000000000003E-002    -1.0725583880415485E-014
  -3.2750000000000001E-002    -8.9849398593430484E-014
  -3.2700000000000000E-002    -1.6272836891205931E-013
  -3.2649999999999998E-002    -2.1134721666900335E-013
  -3.2600000000000004E-002    -2.2017229249309565E-013
  -3.2550000000000003E-002    -1.8029164736347350E-013
  -3.2500000000000001E-002    -9.2699648871056184E-014
  -3.2450000000000000E-002     3.0237475178226410E-014
  -3.2399999999999998E-002     1.6582003927965043E-013
  -3.2350000000000004E-002     2.8473500932966532E-013
  -3.2300000000000002E-002     3.5699004165182629E-013
  -3.2250000000000001E-002     3.5895565544749206E-013
  -3.2199999999999999E-002     2.7994897755499683E-013
  -3.2149999999999998E-002     1.2666218244029890E-013
  -3.2100000000000004E-002    -7.5973786832671126E-014
  -3.2050000000000002E-002    -2.8820531185916697E-013
  -3.2000000000000001E-002    -4.6289009251238050E-013
  -3.1949999999999999E-002    -5.5564579484627438E-013
  -3.1899999999999998E-002    -5.3556876511791375E-013
  -3.1850000000000003E-002    -3.9398484087507115E-013
  -3.1800000000000002E-002    -1.4890112603664668E-013
  -3.1750000000000000E-002     1.5635268717161280E-013
  -3.1699999999999999E-002     4.6052492976019456E-013
  -3.1649999999999998E-002     6.9666386508762037E-013
  -3.1600000000000003E-002     8.0667695053859556E-013
  -3.1550000000000002E-002     7.5500501357207634E-013
  -3.1500000000000000E-002     5.3819558669708798E-013
  -3.1449999999999999E-002     1.8794946531848315E-013
  -3.1399999999999997E-002    -2.3337808944603677E-013
  -3.1350000000000003E-002    -6.4414877640247437E-013
  -3.1300000000000001E-002    -9.5944469639999515E-013
  -3.1250000000000000E-002    -1.1084009408231587E-012
  -3.1199999999999999E-002    -1.0492552209599329E-012
  -3.1150000000000001E-002    -7.7899576030920648E-013
  -3.1100000000000003E-002    -3.3563814705816296E-013
  -3.1050000000000001E-002     2.0733286349949987E-013
  -3.1000000000000000E-002     7.5331129792235181E-013
  -3.0949999999999998E-002     1.1994597728525980E-012
  -3.0900000000000000E-002     1.4551899422216701E-012
  -3.0850000000000002E-002     1.4591230716047056E-012
  -3.0800000000000001E-002     1.1917349149663529E-012
  -3.0750000000000000E-002     6.8153886915065086E-013
  -3.0699999999999998E-002     3.5273449529701861E-015
  -3.0650000000000000E-002    -7.3041842919245137E-013
  -3.0600000000000002E-002    -1.3883500523473809E-012
  -3.0550000000000001E-002    -1.8403479887541690E-012
  -3.0499999999999999E-002    -1.9827967308361669E-012
  -3.0449999999999998E-002    -1.7608041306029688E-012
  -3.0400000000000000E-002    -1.1842706913943511E-012
  -3.0350000000000002E-002    -3.3343713264293136E-013
  -3.0300000000000001E-002     6.4894356114610193E-013
  -3.0249999999999999E-002     1.5793468422043184E-012
  -3.0200000000000001E-002     2.2666722114227400E-012
  -3.0150000000000000E-002     2.5513654584355072E-012
  -3.0100000000000002E-002     2.3426074348955156E-012
  -3.0050000000000000E-002     1.6448893529963490E-012
  -2.9999999999999999E-002     5.6652297928527479E-013
  -2.9950000000000001E-002    -6.9408187798178707E-013
  -2.9899999999999999E-002    -1.8837219968864339E-012
  -2.9850000000000002E-002    -2.7453641986605405E-012
  -2.9800000000000000E-002    -3.0744416635460750E-012
  -2.9749999999999999E-002    -2.7678829859332660E-012
  -2.9700000000000001E-002    -1.8539329552449794E-012
  -2.9650000000000003E-002    -4.9450573256030583E-013
  -2.9600000000000001E-002     1.0422166868008099E-012
  -2.9550000000000000E-002     2.4343397588165185E-012
  -2.9499999999999998E-002     3.3732673533898757E-012
  -2.9450000000000000E-002     3.6307242639147032E-012
  -2.9400000000000003E-002     3.1109340740855295E-012
  -2.9350000000000001E-002     1.8761810739951783E-012
  -2.9300000000000000E-002     1.3979816445884691E-013
  -2.9249999999999998E-002    -1.7722361654374221E-012
  -2.9200000000000000E-002    -3.4831725835244071E-012
  -2.9150000000000002E-002    -4.6381151642860219E-012
  -2.9100000000000001E-002    -4.9728045390485942E-012
  -2.9049999999999999E-002    -4.3652475869896583E-012
  -2.8999999999999998E-002    -2.8607828627458809E-012
  -2.8950000000000000E-002    -6.6664611224125238E-013
  -2.8900000000000002E-002     1.8821263302334317E-012
  -2.8850000000000001E-002     4.3786709457677180E-012
  -2.8799999999999999E-002     6.4120240249310030E-012
  -2.8749999999999998E-002     7.6350751038482149E-012
  -2.8700000000000000E-002     7.8217027394524561E-012
  -2.8650000000000002E-002     6.9040947653624939E-012
  -2.8600000000000000E-002     4.9844528372366923E-012
  -2.8549999999999999E-002     2.3192162787139527E-012
  -2.8500000000000001E-002    -7.2184229749928013E-013
  -2.8450000000000000E-002    -3.7152172462557327E-012
  -2.8400000000000002E-002    -6.2521770411413828E-012
  -2.8350000000000000E-002    -8.0043168948369218E-012
  -2.8299999999999999E-002    -8.7741486355111397E-012
  -2.8250000000000001E-002    -8.5207894206824041E-012
  -2.8200000000000003E-002    -7.3551490237446028E-012
  -2.8150000000000001E-002    -5.5050000712487671E-012
  -2.8100000000000000E-002    -3.2568683455232924E-012
  -2.8049999999999999E-002    -8.8737499987744776E-013
  -2.8000000000000001E-002     1.3999618185872527E-012
  -2.7950000000000003E-002     3.5164755878285275E-012
  -2.7900000000000001E-002     5.4964156538482874E-012
  -2.7850000000000000E-002     7.4659867100035357E-012
  -2.7799999999999998E-002     9.5767856420107067E-012
  -2.7750000000000000E-002     1.1915481116850588E-011
  -2.7700000000000002E-002     1.4408145372864651E-011
  -2.7650000000000001E-002     1.6740057031570084E-011
  -2.7600000000000000E-002     1.8310353803993502E-011
  -2.7549999999999998E-002     1.8234685654073716E-011
  -2.7500000000000000E-002     1.5400258430179362E-011
  -2.7450000000000002E-002     8.5677816857439798E-012
  -2.7400000000000001E-002    -3.4943354815660774E-012
  -2.7349999999999999E-002    -2.1864758891938395E-011
  -2.7299999999999998E-002    -4.7336499120557067E-011
  -2.7250000000000000E-002    -8.0318952319026556E-011
  -2.7200000000000002E-002    -1.2079152157678451E-010
  -2.7150000000000001E-002    -1.6831708655227539E-010
  -2.7099999999999999E-002    -2.2211391462724051E-010
  -2.7049999999999998E-002    -2.8117461506376751E-010
  -2.7000000000000000E-002    -3.4441231585840723E-010
  -2.6950000000000002E-002    -4.1080973358279467E-010
  -2.6900000000000000E-002    -4.7954501876715162E-010
  -2.6849999999999999E-002    -5.5007332364428176E-010
  -2.6800000000000001E-002    -6.2215053445517498E-010
  -2.6749999999999999E-002    -6.9579703465656510E-010
  -2.6700000000000002E-002    -7.7121165251102005E-010
  -2.6650000000000000E-002    -8.4865698780650259E-010
  -2.6599999999999999E-002    -9.2834158096069431E-010
  -2.6550000000000001E-002    -1.0103267435631476E-009
  -2.6500000000000003E-002    -1.0944774109411967E-009
  -2.6450000000000001E-002    -1.1804681714531748E-009
  -2.6400000000000000E-002    -1.2678391959154431E-009
  -2.6349999999999998E-002    -1.3560885201884587E-009
  -2.6300000000000000E-002    -1.4447759092130305E-009
  -2.6250000000000002E-002    -1.5336150868770315E-009
  -2.6200000000000001E-002    -1.6225318689842231E-009
  -2.6150000000000000E-002    -1.7116775716336314E-009
  -2.6099999999999998E-002    -1.8013969033315533E-009
  -2.6050000000000000E-002    -1.8921565265119285E-009
  -2.6000000000000002E-002    -1.9844531688112885E-009
  -2.5950000000000001E-002    -2.0787183251256908E-009
  -2.5899999999999999E-002    -2.1752370435164640E-009
  -2.5849999999999998E-002    -2.2740952257806488E-009
  -2.5800000000000000E-002    -2.3751673736944292E-009
  -2.5750000000000002E-002    -2.4781448150665801E-009
  -2.5700000000000001E-002    -2.5826061663219659E-009
  -2.5649999999999999E-002    -2.6881184071343107E-009
  -2.5599999999999998E-002    -2.7943554085313299E-009
  -2.5550000000000000E-002    -2.9012116262330325E-009
  -2.5500000000000002E-002    -3.0088888484404940E-009
  -2.5450000000000000E-002    -3.1179328344280043E-009
  -2.5399999999999999E-002    -3.2292019941645793E-009
  -2.5349999999999998E-002    -3.3437678431686492E-009
  -2.5300000000000000E-002    -3.4627569555444647E-009
  -2.5250000000000002E-002    -3.5871621879654780E-009
  -2.5200000000000000E-002    -3.7176631461891937E-009
  -2.5149999999999999E-002    -3.8544930372970586E-009
  -2.5100000000000001E-002    -3.9973847428149094E-009
  -2.5049999999999999E-002    -4.1456134783506208E-009
  -2.5000000000000001E-002    -4.2981265409993349E-009
  -2.4950000000000000E-002    -4.4537308882870844E-009
  -2.4899999999999999E-002    -4.6113070860087141E-009
  -2.4850000000000001E-002    -4.7699972301287665E-009
  -2.4800000000000003E-002    -4.9293393349104940E-009
  -2.4750000000000001E-002    -5.0893255375658017E-009
  -2.4700000000000000E-002    -5.2503833290246415E-009
  -2.4649999999999998E-002    -5.4132991232748652E-009
  -2.4600000000000000E-002    -5.5791009637954021E-009
  -2.4550000000000002E-002    -5.7489353368028188E-009
  -2.4500000000000001E-002    -5.9239466093761056E-009
  -2.4450000000000000E-002    -6.1051801785496717E-009
  -2.4399999999999998E-002    -6.2935093079102263E-009
  -2.4350000000000000E-002    -6.4895804349826352E-009
  -2.4299999999999999E-002    -6.6937857007634362E-009
  -2.4250000000000001E-002    -6.9062523136350385E-009
  -2.4199999999999999E-002    -7.1268571568890214E-009
  -2.4150000000000001E-002    -7.3552697866103070E-009
  -2.4100000000000000E-002    -7.5910131434335591E-009
  -2.4049999999999998E-002    -7.8335476589772603E-009
  -2.4000000000000000E-002    -8.0823577018137514E-009
  -2.3949999999999999E-002    -8.3370308964612705E-009
  -2.3900000000000001E-002    -8.5973117464395798E-009
  -2.3850000000000000E-002    -8.8631206429932617E-009
  -2.3800000000000002E-002    -9.1345382682608835E-009
  -2.3750000000000000E-002    -9.4117670180926770E-009
  -2.3699999999999999E-002    -9.6950702648246401E-009
  -2.3650000000000001E-002    -9.9847267182237719E-009
  -2.3599999999999999E-002    -1.0281000285678158E-008
  -2.3550000000000001E-002    -1.0584148872005330E-008
  -2.3500000000000000E-002    -1.0894461286128500E-008
  -2.3449999999999999E-002    -1.1212324565992390E-008
  -2.3400000000000001E-002    -1.1538295690113382E-008
  -2.3349999999999999E-002    -1.1873153735310535E-008
  -2.3300000000000001E-002    -1.2217912485885477E-008
  -2.3250000000000000E-002    -1.2573770171180022E-008
  -2.3199999999999998E-002    -1.2941994424518609E-008
  -2.3150000000000000E-002    -1.3323750922257361E-008
  -2.3099999999999999E-002    -1.3719910968443713E-008
  -2.3050000000000001E-002    -1.4130877548285915E-008
  -2.3000000000000000E-002    -1.4556481969011703E-008
  -2.2950000000000002E-002    -1.4995983424022131E-008
  -2.2900000000000000E-002    -1.5448194155952946E-008
  -2.2849999999999999E-002    -1.5911717228360403E-008
  -2.2800000000000001E-002    -1.6385238353889717E-008
  -2.2749999999999999E-002    -1.6867824506431933E-008
  -2.2700000000000001E-002    -1.7359148237764383E-008
  -2.2650000000000000E-002    -1.7859598096267591E-008
  -2.2599999999999999E-002    -1.8370215954409386E-008
  -2.2550000000000001E-002    -1.8892526729759664E-008
  -2.2499999999999999E-002    -1.9428266754795214E-008
  -2.2450000000000001E-002    -1.9979107455248142E-008
  -2.2400000000000000E-002    -2.0546439140776342E-008
  -2.2349999999999998E-002    -2.1131267104099140E-008
  -2.2300000000000000E-002    -2.1734215516320104E-008
  -2.2249999999999999E-002    -2.2355635009133978E-008
  -2.2200000000000001E-002    -2.2995744545564247E-008
  -2.2150000000000000E-002    -2.3654761920380226E-008
  -2.2100000000000002E-002    -2.4332962678451763E-008
  -2.2050000000000000E-002    -2.5030661374924750E-008
  -2.1999999999999999E-002    -2.5748126807362358E-008
  -2.1950000000000001E-002    -2.6485478634713626E-008
  -2.1899999999999999E-002    -2.7242616081673899E-008
  -2.1850000000000001E-002    -2.8019216270679930E-008
  -2.1800000000000000E-002    -2.8814829460117196E-008
  -2.1749999999999999E-002    -2.9629052123730103E-008
  -2.1700000000000001E-002    -3.0461716223301258E-008
  -2.1649999999999999E-002    -3.1313072327351235E-008
  -2.1600000000000001E-002    -3.2183874394971587E-008
  -2.1550000000000000E-002    -3.3075368976232506E-008
  -2.1499999999999998E-002    -3.3989178462451492E-008
  -2.1450000000000000E-002    -3.4927098858707328E-008
  -2.1399999999999999E-002    -3.5890854068633862E-008
  -2.1350000000000001E-002    -3.6881916436321983E-008
  -2.1299999999999999E-002    -3.7901365520623272E-008
  -2.1250000000000002E-002    -3.8949877167897526E-008
  -2.1200000000000000E-002    -4.0027800418656988E-008
  -2.1149999999999999E-002    -4.1135320975688252E-008
  -2.1100000000000001E-002    -4.2272644237472162E-008
  -2.1049999999999999E-002    -4.3440140922397626E-008
  -2.1000000000000001E-002    -4.4638435792189558E-008
  -2.0950000000000000E-002    -4.5868372659310167E-008
  -2.0899999999999998E-002    -4.7130906388059135E-008
  -2.0850000000000000E-002    -4.8426931541203855E-008
  -2.0799999999999999E-002    -4.9757120651715923E-008
  -2.0750000000000001E-002    -5.1121829187830418E-008
  -2.0700000000000000E-002    -5.2521110596871798E-008
  -2.0649999999999998E-002    -5.3954851906122678E-008
  -2.0600000000000000E-002    -5.5423026634112615E-008
  -2.0549999999999999E-002    -5.6925951467621847E-008
  -2.0500000000000001E-002    -5.8464483292498746E-008
  -2.0449999999999999E-002    -6.0040103498366224E-008
  -2.0400000000000001E-002    -6.1654790531279047E-008
  -2.0350000000000000E-002    -6.3310758669112022E-008
  -2.0299999999999999E-002    -6.5010069664316463E-008
  -2.0250000000000001E-002    -6.6754293771248414E-008
  -2.0199999999999999E-002    -6.8544236126419076E-008
  -2.0150000000000001E-002    -7.0379941085784582E-008
  -2.0100000000000000E-002    -7.2260891208385817E-008
  -2.0049999999999998E-002    -7.4186366536443016E-008
  -2.0000000000000000E-002    -7.6155927922389403E-008
  -1.9949999999999999E-002    -7.8169766468365693E-008
  -1.9900000000000001E-002    -8.0228948888416588E-008
  -1.9850000000000000E-002    -8.2335330417665125E-008
  -1.9799999999999998E-002    -8.4491290699710656E-008
  -1.9750000000000000E-002    -8.6699315925134129E-008
  -1.9699999999999999E-002    -8.8961589316543138E-008
  -1.9650000000000001E-002    -9.1279731241497866E-008
  -1.9599999999999999E-002    -9.3654775187390083E-008
  -1.9550000000000001E-002    -9.6087388532313154E-008
  -1.9500000000000000E-002    -9.8578241581504581E-008
  -1.9449999999999999E-002    -1.0112840044498968E-007
  -1.9400000000000001E-002    -1.0373962841278576E-007
  -1.9349999999999999E-002    -1.0641442521507492E-007
  -1.9300000000000001E-002    -1.0915579018050450E-007
  -1.9250000000000000E-002    -1.1196682135344779E-007
  -1.9199999999999998E-002    -1.1485021838611700E-007
  -1.9150000000000000E-002    -1.1780786822651034E-007
  -1.9099999999999999E-002    -1.2084078038330153E-007
  -1.9050000000000001E-002    -1.2394912656539476E-007
  -1.9000000000000000E-002    -1.2713271549362428E-007
  -1.8949999999999998E-002    -1.3039156894906602E-007
  -1.8900000000000000E-002    -1.3372637613574963E-007
  -1.8849999999999999E-002    -1.3713879864207872E-007
  -1.8800000000000001E-002    -1.4063150781758635E-007
  -1.8749999999999999E-002    -1.4420781940209773E-007
  -1.8700000000000001E-002    -1.4787118414575104E-007
  -1.8650000000000000E-002    -1.5162455124993117E-007
  -1.8599999999999998E-002    -1.5546996801667675E-007
  -1.8550000000000001E-002    -1.5940836905829549E-007
  -1.8499999999999999E-002    -1.6343970108391869E-007
  -1.8450000000000001E-002    -1.6756340179517722E-007
  -1.8400000000000000E-002    -1.7177890503731621E-007
  -1.8349999999999998E-002    -1.7608610946445723E-007
  -1.8300000000000000E-002    -1.8048564674487006E-007
  -1.8249999999999999E-002    -1.8497886641382797E-007
  -1.8200000000000001E-002    -1.8956756619445985E-007
  -1.8149999999999999E-002    -1.9425353663760500E-007
  -1.8100000000000002E-002    -1.9903822312462473E-007
  -1.8050000000000000E-002    -2.0392260006127182E-007
  -1.7999999999999999E-002    -2.0890730791296049E-007
  -1.7950000000000001E-002    -2.1399305339761059E-007
  -1.7899999999999999E-002    -2.1918120068297674E-007
  -1.7850000000000001E-002    -2.2447429778699744E-007
  -1.7800000000000000E-002    -2.2987631891884903E-007
  -1.7749999999999998E-002    -2.3539251562068272E-007
  -1.7700000000000000E-002    -2.4102899440718910E-007
  -1.7649999999999999E-002    -2.4679185146285617E-007
  -1.7600000000000001E-002    -2.5268651643999405E-007
  -1.7550000000000000E-002    -2.5871712288096542E-007
  -1.7499999999999998E-002    -2.6488630837006730E-007
  -1.7450000000000000E-002    -2.7119564005347944E-007
  -1.7399999999999999E-002    -2.7764616197424019E-007
  -1.7350000000000001E-002    -2.8423927770450624E-007
  -1.7299999999999999E-002    -2.9097753881298010E-007
  -1.7250000000000001E-002    -2.9786485123516908E-007
  -1.7200000000000000E-002    -3.0490656082183574E-007
  -1.7149999999999999E-002    -3.1210886102473199E-007
  -1.7100000000000001E-002    -3.1947786602946133E-007
  -1.7049999999999999E-002    -3.2701907245926936E-007
  -1.7000000000000001E-002    -3.3473671911887118E-007
  -1.6950000000000000E-002    -3.4263388722379861E-007
  -1.6899999999999998E-002    -3.5071280002645553E-007
  -1.6850000000000000E-002    -3.5897557742440628E-007
  -1.6799999999999999E-002    -3.6742486494141005E-007
  -1.6750000000000001E-002    -3.7606431381352795E-007
  -1.6700000000000000E-002    -3.8489843012026601E-007
  -1.6649999999999998E-002    -3.9393199630049179E-007
  -1.6600000000000000E-002    -4.0316917397166516E-007
  -1.6549999999999999E-002    -4.1261255210954580E-007
  -1.6500000000000001E-002    -4.2226255117937348E-007
  -1.6449999999999999E-002    -4.3211733933680673E-007
  -1.6400000000000001E-002    -4.4217344964920079E-007
  -1.6350000000000000E-002    -4.5242673004146764E-007
  -1.6299999999999999E-002    -4.6287378331565945E-007
  -1.6250000000000001E-002    -4.7351301447067925E-007
  -1.6199999999999999E-002    -4.8434500878221223E-007
  -1.6150000000000001E-002    -4.9537250053458275E-007
  -1.6100000000000000E-002    -5.0659936644238061E-007
  -1.6049999999999998E-002    -5.1802972913150548E-007
  -1.6000000000000000E-002    -5.2966642229284867E-007
  -1.5949999999999999E-002    -5.4151064773321427E-007
  -1.5900000000000001E-002    -5.5356177931108750E-007
  -1.5850000000000000E-002    -5.6581842858696819E-007
  -1.5799999999999998E-002    -5.7827930716991993E-007
  -1.5750000000000000E-002    -5.9094495501373554E-007
  -1.5699999999999999E-002    -6.0381854029906083E-007
  -1.5650000000000001E-002    -6.1690611679818956E-007
  -1.5599999999999999E-002    -6.3021591058815938E-007
  -1.5550000000000001E-002    -6.4375693324373038E-007
  -1.5500000000000000E-002    -6.5753749885637543E-007
  -1.5449999999999998E-002    -6.7156406260467049E-007
  -1.5400000000000000E-002    -6.8584074312535744E-007
  -1.5349999999999999E-002    -7.0036944339325401E-007
  -1.5300000000000001E-002    -7.1515154451123958E-007
  -1.5250000000000000E-002    -7.3018926492657446E-007
  -1.5199999999999998E-002    -7.4548741556316625E-007
  -1.5150000000000000E-002    -7.6105418292686541E-007
  -1.5099999999999999E-002    -7.7690092474360333E-007
  -1.5050000000000001E-002    -7.9304115228699579E-007
  -1.4999999999999999E-002    -8.0948853554430386E-007
  -1.4949999999999998E-002    -8.2625519593551001E-007
  -1.4900000000000000E-002    -8.4335030088850577E-007
  -1.4849999999999999E-002    -8.6077977019509643E-007
  -1.4800000000000001E-002    -8.7854665127344306E-007
  -1.4749999999999999E-002    -8.9665302608830858E-007
  -1.4700000000000001E-002    -9.1510167237480749E-007
  -1.4650000000000000E-002    -9.3389781448274121E-007
  -1.4599999999999998E-002    -9.5304966953952366E-007
  -1.4550000000000000E-002    -9.7256790215144445E-007
  -1.4499999999999999E-002    -9.9246466542282007E-007
  -1.4450000000000001E-002    -1.0127512884196838E-006
  -1.4400000000000000E-002    -1.0334363350561180E-006
  -1.4349999999999998E-002    -1.0545242137937633E-006
  -1.4300000000000000E-002    -1.0760157834616926E-006
  -1.4249999999999999E-002    -1.0979089191310969E-006
  -1.4200000000000001E-002    -1.1202010737189311E-006
  -1.4149999999999999E-002    -1.1428909195199635E-006
  -1.4099999999999998E-002    -1.1659805873715871E-006
  -1.4050000000000000E-002    -1.1894759611466307E-006
  -1.3999999999999999E-002    -1.2133861253267398E-006
  -1.3950000000000001E-002    -1.2377212676477555E-006
  -1.3899999999999999E-002    -1.2624904235654149E-006
  -1.3850000000000001E-002    -1.2876996637015886E-006
  -1.3800000000000000E-002    -1.3133506769339502E-006
  -1.3749999999999998E-002    -1.3394416299546061E-006
  -1.3700000000000000E-002    -1.3659684075083244E-006
  -1.3649999999999999E-002    -1.3929276975748192E-006
  -1.3600000000000001E-002    -1.4203189557723602E-006
  -1.3550000000000000E-002    -1.4481464472519154E-006
  -1.3499999999999998E-002    -1.4764194176861479E-006
  -1.3450000000000000E-002    -1.5051509533631089E-006
  -1.3399999999999999E-002    -1.5343551968828868E-006
  -1.3350000000000001E-002    -1.5640452248195822E-006
  -1.3299999999999999E-002    -1.5942299755162322E-006
  -1.3249999999999998E-002    -1.6249133846104255E-006
  -1.3200000000000000E-002    -1.6560948482642028E-006
  -1.3149999999999998E-002    -1.6877716076702718E-006
  -1.3100000000000001E-002    -1.7199407319998990E-006
  -1.3049999999999999E-002    -1.7526023930131994E-006
  -1.3000000000000001E-002    -1.7857612017184390E-006
  -1.2950000000000000E-002    -1.8194268898816316E-006
  -1.2899999999999998E-002    -1.8536125556423481E-006
  -1.2850000000000000E-002    -1.8883317533098888E-006
  -1.2799999999999999E-002    -1.9235969495993223E-006