  -4.0000000000000001E-002     0.0000000000000000     
  -3.9949999999999999E-002     0.0000000000000000     
  -3.9899999999999998E-002     0.0000000000000000     
  -3.9850000000000003E-002     0.0000000000000000     
  -3.9800000000000002E-002     7.0393989274210119E-017
  -3.9750000000000001E-002     1.9195312620386924E-016
  -3.9699999999999999E-002    -3.9290661353146889E-016
  -3.9649999999999998E-002    -3.2208229488173725E-015
  -3.9600000000000003E-002    -7.7429463438592196E-015
  -3.9550000000000002E-002    -5.5026119607144415E-015
  -3.9500000000000000E-002     2.2493860682905267E-014
  -3.9449999999999999E-002     9.4880112785941388E-014
  -3.9399999999999998E-002     2.0187703826772726E-013
  -3.9350000000000003E-002     2.7533531280399184E-013
  -3.9300000000000002E-002     1.8959325120104970E-013
  -3.9250000000000000E-002    -1.7964011187161092E-013
  -3.9199999999999999E-002    -8.4906069816459923E-013
  -3.9150000000000004E-002    -1.6357059178210253E-012
  -3.9100000000000003E-002    -2.1623257120221462E-012
  -3.9050000000000001E-002    -2.0033889412488098E-012
  -3.9000000000000000E-002    -9.2354404481962817E-013
  -3.8949999999999999E-002     9.2405296802492145E-013
  -3.8900000000000004E-002     2.9809330061687192E-012
  -3.8850000000000003E-002     4.4986260115790413E-012
  -3.8800000000000001E-002     4.8946614102374414E-012
  -3.8750000000000000E-002     4.0575830071063029E-012
  -3.8699999999999998E-002     2.4223007001667357E-012
  -3.8650000000000004E-002     7.5961462889603157E-013
  -3.8600000000000002E-002    -2.2041800865712592E-013
  -3.8550000000000001E-002    -2.5493663416638842E-013
  -3.8500000000000000E-002     2.8356979261859974E-013
  -3.8449999999999998E-002     4.9327719876975069E-013
  -3.8400000000000004E-002    -6.8129108926875776E-013
  -3.8350000000000002E-002    -3.9314960580733495E-012
  -3.8300000000000001E-002    -9.1189421163770952E-012
  -3.8249999999999999E-002    -1.5073796699263322E-011
  -3.8199999999999998E-002    -1.9812690664110171E-011
  -3.8150000000000003E-002    -2.1182968366907653E-011
  -3.8100000000000002E-002    -1.7730730329926165E-011
  -3.8050000000000000E-002    -9.4229170440001459E-012
  -3.7999999999999999E-002     2.1489662111120331E-012
  -3.7949999999999998E-002     1.4247303141707933E-011
  -3.7900000000000003E-002     2.3984457123322663E-011
  -3.7850000000000002E-002     2.9410719806943535E-011
  -3.7800000000000000E-002     3.0228425178573545E-011
  -3.7749999999999999E-002     2.7855664260180736E-011
  -3.7699999999999997E-002     2.4844393153157277E-011
  -3.7650000000000003E-002     2.3867954545703615E-011
  -3.7600000000000001E-002     2.6572584580259339E-011
  -3.7550000000000000E-002     3.2599696451271739E-011
  -3.7499999999999999E-002     3.9109492818823444E-011
  -3.7449999999999997E-002     4.1143599939455759E-011
  -3.7400000000000003E-002     3.3020265733087943E-011
  -3.7350000000000001E-002     1.0565782093415071E-011
  -3.7300000000000000E-002    -2.6539841839983964E-011
  -3.7249999999999998E-002    -7.3367620118748004E-011
  -3.7200000000000004E-002    -1.2019867319642020E-010
  -3.7150000000000002E-002    -1.5502353779342618E-010
  -3.7100000000000001E-002    -1.6731261108218552E-010
  -3.7050000000000000E-002    -1.5161491920905101E-010
  -3.6999999999999998E-002    -1.0953623287464192E-010
  -3.6950000000000004E-002    -4.9309091835201306E-011
  -3.6900000000000002E-002     1.6853867336812657E-011
  -3.6850000000000001E-002     7.6599180593228400E-011
  -3.6799999999999999E-002     1.2105545479877895E-010
  -3.6749999999999998E-002     1.4695655607849141E-010
  -3.6700000000000003E-002     1.5651558401132915E-010
  -3.6650000000000002E-002     1.5508897734370683E-010
  -3.6600000000000001E-002     1.4751701649232196E-010
  -3.6549999999999999E-002     1.3464683753381121E-010
  -3.6499999999999998E-002     1.1160700898554406E-010
  -3.6450000000000003E-002     6.8735397110501777E-011
  -3.6400000000000002E-002    -5.1298222341827672E-012
  -3.6350000000000000E-002    -1.1841743676952513E-010
  -3.6299999999999999E-002    -2.7349403760782371E-010
  -3.6249999999999998E-002    -4.6554239651573118E-010
  -3.6200000000000003E-002    -6.8379596813287282E-010
  -3.6150000000000002E-002    -9.1423647638812389E-010
  -3.6100000000000000E-002    -1.1425167916918698E-009
  -3.6049999999999999E-002    -1.3562544329673256E-009
  -3.6000000000000004E-002    -1.5464644474126359E-009
  -3.5950000000000003E-002    -1.7082561291633990E-009
  -3.5900000000000001E-002    -1.8408493447749417E-009
  -3.5850000000000000E-002    -1.9468204300531635E-009
  -3.5799999999999998E-002    -2.0306111288105475E-009
  -3.5750000000000004E-002    -2.0967970020341826E-009
  -3.5700000000000003E-002    -2.1489605553548023E-009
  -3.5650000000000001E-002    -2.1898469396199488E-009
  -3.5600000000000000E-002    -2.2226992815638427E-009
  -3.5549999999999998E-002    -2.2528232002595559E-009
  -3.5500000000000004E-002    -2.2881041419714781E-009
  -3.5450000000000002E-002    -2.3377303399565786E-009
  -3.5400000000000001E-002    -2.4094134095532624E-009
  -3.5349999999999999E-002    -2.5062921550324116E-009
  -3.5299999999999998E-002    -2.6249599387710931E-009
  -3.5250000000000004E-002    -2.7556292357001326E-009
  -3.5200000000000002E-002    -2.8846285174907764E-009
  -3.5150000000000001E-002    -2.9985805815599277E-009
  -3.5099999999999999E-002    -3.0889086970292046E-009
  -3.5049999999999998E-002    -3.1549246351238026E-009
  -3.5000000000000003E-002    -3.2039014716542982E-009
  -3.4950000000000002E-002    -3.2475139150020025E-009
  -3.4900000000000000E-002    -3.2957263567829619E-009
  -3.4849999999999999E-002    -3.3508865559850983E-009
  -3.4799999999999998E-002    -3.4053422466691427E-009
  -3.4750000000000003E-002    -3.4445771255911645E-009
  -3.4700000000000002E-002    -3.4550477446523746E-009
  -3.4650000000000000E-002    -3.4331110783151152E-009
  -3.4599999999999999E-002    -3.3903905660755890E-009
  -3.4549999999999997E-002    -3.3524567920874591E-009
  -3.4500000000000003E-002    -3.3510048566054247E-009
  -3.4450000000000001E-002    -3.4129104398959294E-009
  -3.4400000000000000E-002    -3.5509140423797050E-009
  -3.4349999999999999E-002    -3.7596588660234156E-009
  -3.4299999999999997E-002    -4.0182371551497522E-009
  -3.4250000000000003E-002    -4.2977161755946965E-009
  -3.4200000000000001E-002    -4.5704709887064718E-009
  -3.4150000000000000E-002    -4.8178720727823849E-009
  -3.4099999999999998E-002    -5.0337441588421415E-009
  -3.4049999999999997E-002    -5.2225933413260750E-009
  -3.4000000000000002E-002    -5.3935389721145757E-009
  -3.3950000000000001E-002    -5.5526068002561304E-009
  -3.3900000000000000E-002    -5.6968814414352751E-009
  -3.3849999999999998E-002    -5.8133508952574955E-009
  -3.3799999999999997E-002    -5.8831641876628293E-009
  -3.3750000000000002E-002    -5.8894418656125659E-009
  -3.3700000000000001E-002    -5.8250797714324555E-009
  -3.3649999999999999E-002    -5.6971184037753178E-009
  -3.3599999999999998E-002    -5.5260079906067704E-009
  -3.3550000000000003E-002    -5.3403138065798190E-009
  -3.3500000000000002E-002    -5.1689147301475296E-009
  -3.3450000000000001E-002    -5.0330682850609045E-009
  -3.3399999999999999E-002    -4.9403376442245191E-009
  -3.3349999999999998E-002    -4.8818909373958878E-009
  -3.3300000000000003E-002    -4.8342581507897516E-009
  -3.3250000000000002E-002    -4.7657806568296646E-009
  -3.3200000000000000E-002    -4.6464058040360783E-009
  -3.3149999999999999E-002    -4.4576061987024517E-009
  -3.3099999999999997E-002    -4.1983098895467276E-009
  -3.3050000000000003E-002    -3.8838482609000987E-009
  -3.3000000000000002E-002    -3.5379761669509059E-009
  -3.2950000000000000E-002    -3.1814564658698550E-009
  -3.2899999999999999E-002    -2.8225334777515613E-009
  -3.2850000000000004E-002    -2.4537362033283451E-009
  -3.2800000000000003E-002    -2.0563877874516799E-009
  -3.2750000000000001E-002    -1.6106757697776721E-009
  -3.2700000000000000E-002    -1.1069019286825785E-009
  -3.2649999999999998E-002    -5.5334398441983035E-010
  -3.2600000000000004E-002     2.2326925997917842E-011
  -3.2550000000000003E-002     5.7879424293078165E-010
  -3.2500000000000001E-002     1.0723215163415117E-009
  -3.2450000000000000E-002     1.4698254821825808E-009
  -3.2399999999999998E-002     1.7591895094960684E-009
  -3.2350000000000004E-002     1.9527849658418598E-009
  -3.2300000000000002E-002     2.0824927443162757E-009
  -3.2250000000000001E-002     2.1879388750987449E-009
  -3.2199999999999999E-002     2.3026463496701102E-009
  -3.2149999999999998E-002     2.4437304467791567E-009
  -3.2100000000000004E-002     2.6090305273172114E-009
  -3.2050000000000002E-002     2.7821190063719240E-009
  -3.2000000000000001E-002     2.9423177411673707E-009
  -3.1949999999999999E-002     3.0752874390535840E-009
  -3.1899999999999998E-002     3.1802667180561716E-009
  -3.1850000000000003E-002     3.2717927135147775E-009
  -3.1800000000000002E-002     3.3756293271531028E-009
  -3.1750000000000000E-002     3.5201175615003794E-009
  -3.1699999999999999E-002     3.7253812640797905E-009
  -3.1649999999999998E-002     3.9938388805692189E-009
  -3.1600000000000003E-002     4.3058703094006899E-009
  -3.1550000000000002E-002     4.6234020581912497E-009
  -3.1500000000000000E-002     4.9013534857877174E-009
  -3.1449999999999999E-002     5.1032417459217460E-009
  -3.1399999999999997E-002     5.2147510658782116E-009
  -3.1350000000000003E-002     5.2493911535444633E-009
  -3.1300000000000001E-002     5.2436948466124514E-009
  -3.1250000000000000E-002     5.2440632064805506E-009
  -3.1199999999999999E-002     5.2909545187534563E-009
  -3.1150000000000001E-002     5.4068548826336029E-009
  -3.1100000000000003E-002     5.5923000294784359E-009
  -3.1050000000000001E-002     5.8305551277334194E-009
  -3.1000000000000000E-002     6.0981332804098838E-009
  -3.0949999999999998E-002     6.3764835489628675E-009
  -3.0900000000000000E-002     6.6601923289893302E-009
  -3.0850000000000002E-002     6.9586810587046331E-009
  -3.0800000000000001E-002     7.2910225542046454E-009
  -3.0750000000000000E-002     7.6763163188987976E-009
  -3.0699999999999998E-002     8.1239782049165152E-009
  -3.0650000000000000E-002     8.6283772248716310E-009
  -3.0600000000000002E-002     9.1701792978815289E-009
  -3.0550000000000001E-002     9.7234645311364659E-009
  -3.0499999999999999E-002     1.0264862211910205E-008
  -3.0449999999999998E-002     1.0780283916556272E-008
  -3.0400000000000000E-002     1.1266644621811353E-008
  -3.0350000000000002E-002     1.1729001521109437E-008
  -3.0300000000000001E-002     1.2175890756010827E-008
  -3.0249999999999999E-002     1.2615875722602944E-008
  -3.0200000000000001E-002     1.3056711343391878E-008
  -3.0150000000000000E-002     1.3506454498574671E-008
  -3.0100000000000002E-002     1.3974780733237860E-008
  -3.0050000000000000E-002     1.4473176502458597E-008
  -2.9999999999999999E-002     1.5013880290763504E-008
  -2.9950000000000001E-002     1.5608236697736090E-008
  -2.9899999999999999E-002     1.6265110273278510E-008
  -2.9850000000000002E-002     1.6989473446172199E-008
  -2.9800000000000000E-002     1.7781058163013248E-008
  -2.9749999999999999E-002     1.8633288053996409E-008
  -2.9700000000000001E-002     1.9533336900500650E-008
  -2.9650000000000003E-002     2.0464134799324320E-008
  -2.9600000000000001E-002     2.1408422107292741E-008
  -2.9550000000000000E-002     2.2353626609063682E-008
  -2.9499999999999998E-002     2.3295575027455335E-008
  -2.9450000000000000E-002     2.4239221244635249E-008
  -2.9400000000000003E-002     2.5195765734131705E-008
  -2.9350000000000001E-002     2.6177105277145247E-008
  -2.9300000000000000E-002     2.7189749157203290E-008
  -2.9249999999999998E-002     2.8230755547807621E-008
  -2.9200000000000000E-002     2.9287734741541656E-008
  -2.9150000000000002E-002     3.0343652954483198E-008
  -2.9100000000000001E-002     3.1385320020075126E-008
  -2.9049999999999999E-002     3.2412428926802993E-008
  -2.8999999999999998E-002     3.3443080561366847E-008
  -2.8950000000000000E-002     3.4512382760665108E-008
  -2.8900000000000002E-002     3.5663323630559450E-008
  -2.8850000000000001E-002     3.6932814024617217E-008
  -2.8799999999999999E-002     3.8338487877307561E-008
  -2.8749999999999998E-002     3.9872133231074923E-008
  -2.8700000000000000E-002     4.1502900291717570E-008
  -2.8650000000000002E-002     4.3189011406766792E-008
  -2.8600000000000000E-002     4.4892942114028063E-008
  -2.8549999999999999E-002     4.6593776264921619E-008
  -2.8500000000000001E-002     4.8292190837508499E-008
  -2.8450000000000000E-002     5.0006952623308415E-008
  -2.8400000000000002E-002     5.1765423126331510E-008
  -2.8350000000000000E-002     5.3592339751365268E-008
  -2.8299999999999999E-002     5.5501130680507789E-008
  -2.8250000000000001E-002     5.7490588868119842E-008
  -2.8200000000000003E-002     5.9547511756959541E-008
  -2.8150000000000001E-002     6.1653963475242197E-008
  -2.8100000000000000E-002     6.3796426808522761E-008
  -2.8049999999999999E-002     6.5973377718087423E-008
  -2.8000000000000001E-002     6.8198614717359896E-008
  -2.7950000000000003E-002     7.0499033774803909E-008
  -2.7900000000000001E-002     7.2907654739220922E-008
  -2.7850000000000000E-002     7.5454425769977726E-008
  -2.7799999999999998E-002     7.8157967325829570E-008
  -2.7750000000000000E-002     8.1020987603387269E-008
  -2.7700000000000002E-002     8.4030525894342719E-008
  -2.7650000000000001E-002     8.7162715182076213E-008
  -2.7600000000000000E-002     9.0390496478630330E-008
  -2.7549999999999998E-002     9.3691665408230631E-008
  -2.7500000000000000E-002     9.7054677900960634E-008
  -2.7450000000000002E-002     1.0048014067020034E-007
  -2.7400000000000001E-002     1.0397727106967749E-007
  -2.7349999999999999E-002     1.0755705511781202E-007
  -2.7299999999999998E-002     1.1122523419402221E-007
  -2.7250000000000000E-002     1.1497895751182333E-007
  -2.7200000000000002E-002     1.1880915047617186E-007
  -2.7150000000000001E-002     1.2270756805541706E-007
  -2.7099999999999999E-002     1.2667499637692212E-007
  -2.7049999999999998E-002     1.3072598684932280E-007
  -2.7000000000000000E-002     1.3488746696296183E-007
  -2.6950000000000002E-002     1.3919160788721338E-007
  -2.6900000000000000E-002     1.4366641975423646E-007
  -2.6849999999999999E-002     1.4832825410696705E-007
  -2.6800000000000001E-002     1.5317936617090288E-007
  -2.6749999999999999E-002     1.5821097170595666E-007
  -2.6700000000000002E-002     1.6340992133948171E-007
  -2.6650000000000000E-002     1.6876580905494045E-007
  -2.6599999999999999E-002     1.7427588893944224E-007
  -2.6550000000000001E-002     1.7994587733363412E-007
  -2.6500000000000003E-002     1.8578679030772503E-007
  -2.6450000000000001E-002     1.9180927020241173E-007
  -2.6400000000000000E-002     1.9801806829144630E-007
  -2.6349999999999998E-002     2.0440928832626664E-007
  -2.6300000000000000E-002     2.1097214020776384E-007
  -2.6250000000000002E-002     2.1769446374287143E-007
  -2.6200000000000001E-002     2.2456948284236477E-007
  -2.6150000000000000E-002     2.3160060169040935E-007
  -2.6099999999999998E-002     2.3880229394381297E-007
  -2.6050000000000000E-002     2.4619699496544675E-007
  -2.6000000000000002E-002     2.5381011180758281E-007
  -2.5950000000000001E-002     2.6166512139002063E-007
  -2.5899999999999999E-002     2.6978033119081101E-007
  -2.5849999999999998E-002     2.7816709423460044E-007
  -2.5800000000000000E-002     2.8682976839812448E-007
  -2.5750000000000002E-002     2.9576682462156244E-007
  -2.5700000000000001E-002     3.0497379989731613E-007
  -2.5649999999999999E-002     3.1444785907959709E-007
  -2.5599999999999998E-002     3.2419189558353925E-007
  -2.5550000000000000E-002     3.3421591896423060E-007
  -2.5500000000000002E-002     3.4453406988821497E-007
  -2.5450000000000000E-002     3.5515793039521051E-007
  -2.5399999999999999E-002     3.6609004590738984E-007
  -2.5349999999999998E-002     3.7732094955319298E-007
  -2.5300000000000000E-002     3.8883260557086738E-007
  -2.5250000000000002E-002     4.0060682426692195E-007
  -2.5200000000000000E-002     4.1263412262600413E-007
  -2.5149999999999999E-002     4.2491983028729901E-007
  -2.5100000000000001E-002     4.3748423672376894E-007
  -2.5049999999999999E-002     4.5035792340789094E-007
  -2.5000000000000001E-002     4.6357440679961266E-007
  -2.4950000000000000E-002     4.7716343229617479E-007
  -2.4899999999999999E-002     4.9114595316358079E-007
  -2.4850000000000001E-002     5.0553275714189474E-007
  -2.4800000000000003E-002     5.2032689014171395E-007
  -2.4750000000000001E-002     5.3552859316275808E-007
  -2.4700000000000000E-002     5.5114161491455913E-007
  -2.4649999999999998E-002     5.6717701820035538E-007
  -2.4600000000000000E-002     5.8365272744913409E-007
  -2.4550000000000002E-002     6.0058837746084923E-007
  -2.4500000000000001E-002     6.1799814072917496E-007
  -2.4450000000000000E-002     6.3588618977291291E-007
  -2.4399999999999998E-002     6.5424710604527318E-007
  -2.4350000000000000E-002     6.7307180924826258E-007
  -2.4299999999999999E-002     6.9235461854961517E-007
  -2.4250000000000001E-002     7.1209807532294225E-007
  -2.4199999999999999E-002     7.3231292606283634E-007
  -2.4150000000000001E-002     7.5301504652203178E-007
  -2.4100000000000000E-002     7.7422181158551974E-007
  -2.4049999999999998E-002     7.9595090258627763E-007
  -2.4000000000000000E-002     8.1822057062209555E-007
  -2.3949999999999999E-002     8.4105008715300885E-007
  -2.3900000000000001E-002     8.6445890114353644E-007
  -2.3850000000000000E-002     8.8846484376162439E-007
  -2.3800000000000002E-002     9.1308409580947529E-007
  -2.3750000000000000E-002     9.3833299015246509E-007
  -2.3699999999999999E-002     9.6423158951266324E-007
  -2.3650000000000001E-002     9.9080440828552190E-007
  -2.3599999999999999E-002     1.0180783758208398E-006
  -2.3550000000000001E-002     1.0460763403455587E-006
  -2.3500000000000000E-002     1.0748113912699282E-006
  -2.3449999999999999E-002     1.1042852219713410E-006
  -2.3400000000000001E-002     1.1344909944463906E-006
  -2.3349999999999999E-002     1.1654204354931256E-006
  -2.3300000000000001E-002     1.1970698255410714E-006
  -2.3250000000000000E-002     1.2294437756226576E-006
  -2.3199999999999998E-002     1.2625557730786521E-006
  -2.3150000000000000E-002     1.2964271452170629E-006
  -2.3099999999999999E-002     1.3310853373717046E-006
  -2.3050000000000001E-002     1.3665605379922611E-006
  -2.3000000000000000E-002     1.4028814500269414E-006
  -2.2950000000000002E-002     1.4400716744537919E-006
  -2.2900000000000000E-002     1.4781474470389255E-006
  -2.2849999999999999E-002     1.5171206294678964E-006
  -2.2800000000000001E-002     1.5570055890612997E-006
  -2.2749999999999999E-002     1.5978254339746321E-006
  -2.2700000000000001E-002     1.6396141455237363E-006
  -2.2650000000000000E-002     1.6824110613294115E-006
  -2.2599999999999999E-002     1.7262521638402631E-006
  -2.2550000000000001E-002     1.7711620275171196E-006
  -2.2499999999999999E-002     1.8171519683767259E-006
  -2.2450000000000001E-002     1.8642238665536989E-006
  -2.2400000000000000E-002     1.9123781679436936E-006
  -2.2349999999999998E-002     1.9616185820406235E-006
  -2.2300000000000000E-002     2.0119540341143976E-006
  -2.2249999999999999E-002     2.0633976761732217E-006
  -2.2200000000000001E-002     2.1159680455945432E-006
  -2.2150000000000000E-002     2.1696891036529952E-006
  -2.2100000000000002E-002     2.2245912140901442E-006
  -2.2050000000000000E-002     2.2807098663142738E-006
  -2.1999999999999999E-002     2.3380796429613267E-006
  -2.1950000000000001E-002     2.3967303846234619E-006
  -2.1899999999999999E-002     2.4566862934204289E-006
  -2.1850000000000001E-002     2.5179692304739334E-006
  -2.1800000000000000E-002     2.5806057616492986E-006
  -2.1749999999999999E-002     2.6446315731171766E-006
  -2.1700000000000001E-002     2.7100893562195709E-006
  -2.1649999999999999E-002     2.7770222213809407E-006
  -2.1600000000000001E-002     2.8454682328459086E-006
  -2.1550000000000000E-002     2.9154558211466303E-006
  -2.1499999999999998E-002     2.9870058056682071E-006
  -2.1450000000000000E-002     3.0601340414135497E-006
  -2.1399999999999999E-002     3.1348538290296961E-006
  -2.1350000000000001E-002     3.2111784005735652E-006
  -2.1299999999999999E-002     3.2891216959854191E-006
  -2.1250000000000002E-002     3.3687028997606759E-006
  -2.1200000000000000E-002     3.4499497215766732E-006
  -2.1149999999999999E-002     3.5328990748113190E-006
  -2.1100000000000001E-002     3.6175920649523910E-006
  -2.1049999999999999E-002     3.7040667512450992E-006
  -2.1000000000000001E-002     3.7923524376832435E-006
  -2.0950000000000000E-002     3.8824701297743381E-006
  -2.0899999999999998E-002     3.9744401413957976E-006
  -2.0850000000000000E-002     4.0682901915837863E-006
  -2.0799999999999999E-002     4.1640612753561645E-006
  -2.0750000000000001E-002     4.2618037879337885E-006
  -2.0700000000000000E-002     4.3615717170178111E-006
  -2.0649999999999998E-002     4.4634147007016252E-006
  -2.0600000000000000E-002     4.5673768459745362E-006
  -2.0549999999999999E-002     4.6734985400871059E-006
  -2.0500000000000001E-002     4.7818160210389755E-006
  -2.0449999999999999E-002     4.8923611442727942E-006
  -2.0400000000000001E-002     5.0051594094297612E-006
  -2.0350000000000000E-002     5.1202278449960187E-006
  -2.0299999999999999E-002     5.2375805838229713E-006
  -2.0250000000000001E-002     5.3572366092631344E-006
  -2.0199999999999999E-002     5.4792261857387063E-006
  -2.0150000000000001E-002     5.6035881967583884E-006
  -2.0100000000000000E-002     5.7303686354514051E-006
  -2.0049999999999998E-002     5.8596117726980726E-006
  -2.0000000000000000E-002     5.9913587200304586E-006
  -1.9949999999999999E-002     6.1256505124342269E-006
  -1.9900000000000001E-002     6.2625318930424788E-006
  -1.9850000000000000E-002     6.4020523209810335E-006
  -1.9799999999999998E-002     6.5442631773387377E-006
  -1.9750000000000000E-002     6.6892148116379453E-006
  -1.9699999999999999E-002     6.8369566117412895E-006
  -1.9650000000000001E-002     6.9875370061025954E-006
  -1.9599999999999999E-002     7.1410063640618568E-006
  -1.9550000000000001E-002     7.2974150204809466E-006
  -1.9500000000000000E-002     7.4568100200814285E-006
  -1.9449999999999999E-002     7.6192285158695378E-006
  -1.9400000000000001E-002     7.7847006643232448E-006
  -1.9349999999999999E-002     7.9532537775816330E-006
  -1.9300000000000001E-002     8.1249229296746816E-006
  -1.9250000000000000E-002     8.2997520146045930E-006
  -1.9199999999999998E-002     8.4777900928134231E-006
  -1.9150000000000000E-002     8.6590836336035331E-006
  -1.9099999999999999E-002     8.8436734032064201E-006
  -1.9050000000000001E-002     9.0315960121610341E-006
  -1.9000000000000000E-002     9.2228908104125607E-006
  -1.8949999999999998E-002     9.4176075824065513E-006
  -1.8900000000000000E-002     9.6158014929448977E-006
  -1.8849999999999999E-002     9.8175330571882721E-006
  -1.8800000000000001E-002     1.0022859202820262E-005
  -1.8749999999999999E-002     1.0231833466492604E-005
  -1.8700000000000001E-002     1.0444511621077981E-005
  -1.8650000000000000E-002     1.0660948885532488E-005
  -1.8599999999999998E-002     1.0881203732069275E-005
  -1.8550000000000001E-002     1.1105329199959132E-005
  -1.8499999999999999E-002     1.1333372450037367E-005
  -1.8450000000000001E-002     1.1565374243772121E-005
  -1.8400000000000000E-002     1.1801379455228301E-005
  -1.8349999999999998E-002     1.2041438981312889E-005
  -1.8300000000000000E-002     1.2285613171425908E-005
  -1.8249999999999999E-002     1.2533959861751509E-005
  -1.8200000000000001E-002     1.2786530511829166E-005
  -1.8149999999999999E-002     1.3043366240276830E-005
  -1.8100000000000002E-002     1.3304499975464550E-005
  -1.8050000000000000E-002     1.3569967723965469E-005
  -1.7999999999999999E-002     1.3839811699456551E-005
  -1.7950000000000001E-002     1.4114081641179552E-005
  -1.7899999999999999E-002     1.4392829894897005E-005
  -1.7850000000000001E-002     1.4676116467422999E-005
  -1.7800000000000000E-002     1.4964007287371645E-005
  -1.7749999999999998E-002     1.5256570225440973E-005
  -1.7700000000000000E-002     1.5553884892316623E-005
  -1.7649999999999999E-002     1.5856020537084147E-005
  -1.7600000000000001E-002     1.6163038491995904E-005
  -1.7550000000000000E-002     1.6474980758004037E-005
  -1.7499999999999998E-002     1.6791886100024294E-005
  -1.7450000000000000E-002     1.7113789784007535E-005
  -1.7399999999999999E-002     1.7440745038465959E-005
  -1.7350000000000001E-002     1.7772815742541938E-005
  -1.7299999999999999E-002     1.8110071725130637E-005
  -1.7250000000000001E-002     1.8452576176790289E-005
  -1.7200000000000000E-002     1.8800380591072753E-005
  -1.7149999999999999E-002     1.9153531560624328E-005
  -1.7100000000000001E-002     1.9512071948109477E-005
  -1.7049999999999999E-002     1.9876045778570476E-005
  -1.7000000000000001E-002     2.0245504377273197E-005
  -1.6950000000000000E-002     2.0620487232795518E-005
  -1.6899999999999998E-002     2.1001040417656205E-005
  -1.6850000000000000E-002     2.1387214024586181E-005
  -1.6799999999999999E-002     2.1779073183268652E-005
  -1.6750000000000001E-002     2.2176698664002502E-005
  -1.6700000000000000E-002     2.2580172057612126E-005
  -1.6649999999999998E-002     2.2989561840351789E-005
  -1.6600000000000000E-002     2.3404922218283484E-005
  -1.6549999999999999E-002     2.3826298937487186E-005
  -1.6500000000000001E-002     2.4253736270718316E-005
  -1.6449999999999999E-002     2.4687279994969636E-005
  -1.6400000000000001E-002     2.5126983515323236E-005
  -1.6350000000000000E-002     2.5572902657264830E-005
  -1.6299999999999999E-002     2.6025085955864902E-005
  -1.6250000000000001E-002     2.6483582367840682E-005
  -1.6199999999999999E-002     2.6948443249250316E-005
  -1.6150000000000001E-002     2.7419723458088910E-005
  -1.6100000000000000E-002     2.7897479290487514E-005
  -1.6049999999999998E-002     2.8381751153326556E-005
  -1.6000000000000000E-002     2.8872569493587885E-005
  -1.5949999999999999E-002     2.9369958458439375E-005
  -1.5900000000000001E-002     2.9873947854518659E-005
  -1.5850000000000000E-002     3.0384591655116866E-005
  -1.5799999999999998E-002     3.0901949146592520E-005
  -1.5750000000000000E-002     3.1426095115955212E-005
  -1.5699999999999999E-002     3.1957078617543132E-005
  -1.5650000000000001E-002     3.2494946538676016E-005
  -1.5599999999999999E-002     3.3039735544239828E-005
  -1.5550000000000001E-002     3.3591489727132528E-005
  -1.5500000000000000E-002     3.4150263703308339E-005
  -1.5449999999999998E-002     3.4716121476801164E-005
  -1.5400000000000000E-002     3.5289117642581610E-005
  -1.5349999999999999E-002     3.5869298785965545E-005
  -1.5300000000000001E-002     3.6456703438215600E-005
  -1.5250000000000000E-002     3.7051361534333295E-005
  -1.5199999999999998E-002     3.7653299480016320E-005
  -1.5150000000000000E-002     3.8262542156652425E-005
  -1.5099999999999999E-002     3.8879120421055877E-005
  -1.5050000000000001E-002     3.9503045489578349E-005
  -1.4999999999999999E-002     4.0134339677537568E-005
  -1.4949999999999998E-002     4.0773031065020020E-005
  -1.4900000000000000E-002     4.1419158112712618E-005
  -1.4849999999999999E-002     4.2072779823805248E-005
  -1.4800000000000001E-002     4.2733947301603912E-005
  -1.4749999999999999E-002     4.3402698494002007E-005
  -1.4700000000000001E-002     4.4079054593042139E-005
  -1.4650000000000000E-002     4.4763034246049598E-005
  -1.4599999999999998E-002     4.5454664224870807E-005
  -1.4550000000000000E-002     4.6153972016590749E-005
  -1.4499999999999999E-002     4.6860996717430516E-005
  -1.4450000000000001E-002     4.7575763681249353E-005
  -1.4400000000000000E-002     4.8298292659361864E-005
  -1.4349999999999998E-002     4.9028602669152849E-005
  -1.4300000000000000E-002     4.9766718857835465E-005
  -1.4249999999999999E-002     5.0512665136996730E-005
  -1.4200000000000001E-002     5.1266457512776545E-005
  -1.4149999999999999E-002     5.2028104704192850E-005
  -1.4099999999999998E-002     5.2797596191785288E-005
  -1.4050000000000000E-002     5.3574913056319082E-005
  -1.3999999999999999E-002     5.4360046841626607E-005
  -1.3950000000000001E-002     5.5152999671559795E-005
  -1.3899999999999999E-002     5.5953785535608970E-005
  -1.3850000000000001E-002     5.6762426478996266E-005
  -1.3800000000000000E-002     5.7578927797356341E-005
  -1.3749999999999998E-002     5.8403292761919663E-005
  -1.3700000000000000E-002     5.9235510235555898E-005
  -1.3649999999999999E-002     6.0075576806155583E-005
  -1.3600000000000001E-002     6.0923490657230882E-005
  -1.3550000000000000E-002     6.1779256068895599E-005
  -1.3499999999999998E-002     6.2642875357826806E-005
  -1.3450000000000000E-002     6.3514331214880381E-005
  -1.3399999999999999E-002     6.4393603190512626E-005
  -1.3350000000000001E-002     6.5280671649190622E-005
  -1.3299999999999999E-002     6.6175546810283450E-005
  -1.3249999999999998E-002     6.7078201779847710E-005
  -1.3200000000000000E-002     6.7988616324538755E-005
  -1.3149999999999998E-002     6.8906758208269519E-005
  -1.3100000000000001E-002     6.9832585562916479E-005
  -1.3049999999999999E-002     7.0766033911692620E-005
  -1.3000000000000001E-002     7.1707073340180943E-005
  -1.2950000000000000E-002     7.2655665920237926E-005
  -1.2899999999999998E-002     7.3611792275129898E-005
  -1.2850000000000000E-002     7.4575415873947513E-005
  -1.2799999999999999E-002     7.5546480046677347E-005