  -4.0000000000000001E-002     0.0000000000000000     
  -3.9949999999999999E-002     0.0000000000000000     
  -3.9899999999999998E-002     0.0000000000000000     
  -3.9850000000000003E-002     0.0000000000000000     
  -3.9800000000000002E-002     0.0000000000000000     
  -3.9750000000000001E-002     0.0000000000000000     
  -3.9699999999999999E-002     0.0000000000000000     
  -3.9649999999999998E-002     0.0000000000000000     
  -3.9600000000000003E-002     0.0000000000000000     
  -3.9550000000000002E-002     0.0000000000000000     
  -3.9500000000000000E-002     0.0000000000000000     
  -3.9449999999999999E-002     0.0000000000000000     
  -3.9399999999999998E-002     0.0000000000000000     
  -3.9350000000000003E-002     0.0000000000000000     
  -3.9300000000000002E-002    -1.4556439201769421E-037
  -3.9250000000000000E-002    -2.4583293903851136E-036
  -3.9199999999999999E-002    -1.9047658296108877E-035
  -3.9150000000000004E-002    -8.2280927398866322E-035
  -3.9100000000000003E-002    -1.5323681057992423E-034
  -3.9050000000000001E-002     5.0078547750441888E-034
  -3.9000000000000000E-002     5.2468158197487126E-033
  -3.8949999999999999E-002     2.2890416284950933E-032
  -3.8900000000000004E-002     6.4311993613251266E-032
  -3.8850000000000003E-002     1.1258472785275866E-031
  -3.8800000000000001E-002     4.1983989734453613E-032
  -3.8750000000000000E-002    -4.8431231810083700E-031
  -3.8699999999999998E-002    -1.9371474387847674E-030
  -3.8650000000000004E-002    -4.2408771459377171E-030
  -3.8600000000000002E-002    -5.1843945218869364E-030
  -3.8550000000000001E-002     1.1937694814292239E-030
  -3.8500000000000000E-002     2.2797981047456556E-029
  -3.8449999999999998E-002     5.8672643187931730E-029
  -3.8400000000000004E-002     7.7312686289866693E-029
  -3.8350000000000002E-002    -1.6367955962745169E-030
  -3.8300000000000001E-002    -2.8064011289881156E-028
  -3.8249999999999999E-002    -7.5534921896315809E-028
  -3.8199999999999998E-002    -1.0717415279011979E-027
  -3.8150000000000003E-002    -3.0971499694146149E-028
  -3.8100000000000002E-002     2.8374354432549441E-027
  -3.8050000000000000E-002     8.9984822807393949E-027
  -3.7999999999999999E-002     1.6007632776843207E-026
  -3.7949999999999998E-002     1.6599854324601532E-026
  -3.7900000000000003E-002    -1.6895457048346450E-027
  -3.7850000000000002E-002    -5.1063835422394569E-026
  -3.7800000000000000E-002    -1.3044324597122301E-025
  -3.7749999999999999E-002    -2.0795389830191299E-025
  -3.7699999999999997E-002    -2.0998237482572520E-025
  -3.7650000000000003E-002    -3.4325101250441487E-026
  -3.7600000000000001E-002     3.9744672008044608E-025
  -3.7550000000000000E-002     1.0509275816688514E-024
  -3.7499999999999999E-002     1.6875506715294205E-024
  -3.7449999999999997E-002     1.8383334030449232E-024
  -3.7400000000000003E-002     9.1972485320134546E-025
  -3.7350000000000001E-002    -1.4696061998553243E-024
  -3.7300000000000000E-002    -5.1262660597038767E-024
  -3.7249999999999998E-002    -8.8750598839640532E-024
  -3.7200000000000004E-002    -1.0536996509752592E-023
  -3.7150000000000002E-002    -7.5045858230769627E-024
  -3.7100000000000001E-002     1.9823138844722530E-024
  -3.7050000000000000E-002     1.7127249390035355E-023
  -3.6999999999999998E-002     3.3161262949891313E-023
  -3.6950000000000004E-002     4.1309705690743396E-023
  -3.6900000000000002E-002     3.1209287009959955E-023
  -3.6850000000000001E-002    -3.8551922909726951E-024
  -3.6799999999999999E-002    -6.0008206425228131E-023
  -3.6749999999999998E-002    -1.1720778194588394E-022
  -3.6700000000000003E-002    -1.3963854755849470E-022
  -3.6650000000000002E-002    -8.6395483696820622E-023
  -3.6600000000000001E-002     6.6562234633797291E-023
  -3.6549999999999999E-002     2.9872394749120152E-022
  -3.6499999999999998E-002     5.2480558399620894E-022
  -3.6450000000000003E-002     5.9970995938315713E-022
  -3.6400000000000002E-002     3.6266202509615427E-022
  -3.6350000000000000E-002    -2.8035103346610058E-022
  -3.6299999999999999E-002    -1.2600264320479539E-021
  -3.6249999999999998E-002    -2.2794256790708750E-021
  -3.6200000000000003E-002    -2.8351512183369346E-021
  -3.6150000000000002E-002    -2.3573561643307292E-021
  -3.6100000000000000E-002    -4.5433307565979210E-022
  -3.6049999999999999E-002     2.8127624894779146E-021
  -3.6000000000000004E-002     6.7443735539832978E-021
  -3.5950000000000003E-002     1.0026246194398823E-020
  -3.5900000000000001E-002     1.1025478272491827E-020
  -3.5850000000000000E-002     8.3204922871698662E-021
  -3.5799999999999998E-002     1.3187849802896641E-021
  -3.5750000000000004E-002    -9.2503623217585090E-021
  -3.5700000000000003E-002    -2.1173786452828670E-020
  -3.5650000000000001E-002    -3.1046153247892512E-020
  -3.5600000000000000E-002    -3.5010702497666080E-020
  -3.5549999999999998E-002    -2.9814003557987756E-020
  -3.5500000000000004E-002    -1.3939686246894364E-020
  -3.5450000000000002E-002     1.1471619339726603E-020
  -3.5400000000000001E-002     4.2223258727705985E-020
  -3.5349999999999999E-002     7.1448795179460627E-020
  -3.5299999999999998E-002     9.0911772654121510E-020
  -3.5250000000000004E-002     9.3082887972162954E-020
  -3.5200000000000002E-002     7.3489052157560576E-020
  -3.5150000000000001E-002     3.2489148242138899E-020
  -3.5099999999999999E-002    -2.4442819203374779E-020
  -3.5049999999999998E-002    -8.8422650505154714E-020
  -3.5000000000000003E-002    -1.5038396531573556E-019
  -3.4950000000000002E-002    -2.0418037370369607E-019
  -3.4900000000000000E-002    -2.4718303391497135E-019
  -3.4849999999999999E-002    -2.7650663313054964E-019
  -3.4799999999999998E-002    -2.8118076857404650E-019
  -3.4750000000000003E-002    -2.3400118631583462E-019
  -3.4700000000000002E-002    -8.9935642010922738E-020
  -3.4650000000000000E-002     2.0142206235445522E-019
  -3.4599999999999999E-002     6.6573830581234032E-019
  -3.4549999999999997E-002     1.2613120457684366E-018
  -3.4500000000000003E-002     1.8404215652433564E-018
  -3.4450000000000001E-002     2.1399946583820365E-018
  -3.4400000000000000E-002     1.8269874235385439E-018
  -3.4349999999999999E-002     6.1021294308288281E-019
  -3.4299999999999997E-002    -1.5969761056764349E-018
  -3.4250000000000003E-002    -4.5126812024344602E-018
  -3.4200000000000001E-002    -7.3974662880170798E-018
  -3.4150000000000000E-002    -9.1199633976400614E-018
  -3.4099999999999998E-002    -8.4241784157339528E-018
  -3.4049999999999997E-002    -4.3772383817163429E-018
  -3.4000000000000002E-002     3.1117139259004119E-018
  -3.3950000000000001E-002     1.2886335171574380E-017
  -3.3900000000000000E-002     2.2462042796438947E-017
  -3.3849999999999998E-002     2.8425572290540558E-017
  -3.3799999999999997E-002     2.7333863781167000E-017
  -3.3750000000000002E-002     1.6939833536916790E-017
  -3.3700000000000001E-002    -2.6099139371516639E-018
  -3.3649999999999999E-002    -2.8057124672191581E-017
  -3.3599999999999998E-002    -5.3194019790996047E-017
  -3.3550000000000003E-002    -7.0087282938350633E-017
  -3.3500000000000002E-002    -7.1204624301853794E-017
  -3.3450000000000001E-002    -5.1923772623876356E-017
  -3.3399999999999999E-002    -1.2657348959962049E-017
  -3.3349999999999998E-002     4.0189919127621523E-017
  -3.3300000000000003E-002     9.4953368340729969E-017
  -3.3250000000000002E-002     1.3716427549914736E-016
  -3.3200000000000000E-002     1.5319483342822644E-016
  -3.3149999999999999E-002     1.3410829482643653E-016
  -3.3099999999999997E-002     7.8577166899961141E-017
  -3.3050000000000003E-002    -6.0396404460214246E-018
  -3.3000000000000002E-002    -1.0481677128329397E-016
  -3.2950000000000000E-002    -1.9824815559429404E-016
  -3.2899999999999999E-002    -2.6620306295495192E-016
  -3.2850000000000004E-002    -2.9174404047845809E-016
  -3.2800000000000003E-002    -2.6392512221396044E-016
  -3.2750000000000001E-002    -1.7925712370150803E-016
  -3.2700000000000000E-002    -4.2167129292252314E-017
  -3.2649999999999998E-002     1.3484705434958761E-016
  -3.2600000000000004E-002     3.3080100087023155E-016
  -3.2550000000000003E-002     5.1565422218976885E-016
  -3.2500000000000001E-002     6.5063244672320436E-016
  -3.2450000000000000E-002     6.9119834537592907E-016
  -3.2399999999999998E-002     5.9436754838416426E-016
  -3.2350000000000004E-002     3.3090433155752413E-016
  -3.2300000000000002E-002    -9.9238095153807326E-017
  -3.2250000000000001E-002    -6.5242503141293906E-016
  -3.2199999999999999E-002    -1.2339061057692055E-015
  -3.2149999999999998E-002    -1.7037185079287982E-015
  -3.2100000000000004E-002    -1.8998832490926489E-015
  -3.2050000000000002E-002    -1.6780576350740645E-015
  -3.2000000000000001E-002    -9.6057468737738507E-016
  -3.1949999999999999E-002     2.1797767340436855E-016
  -3.1899999999999998E-002     1.6845582290538657E-015
  -3.1850000000000003E-002     3.1352406978846292E-015
  -3.1800000000000002E-002     4.1840903302414684E-015
  -3.1750000000000000E-002     4.4497130805374641E-015
  -3.1699999999999999E-002     3.6630363208579441E-015
  -3.1649999999999998E-002     1.7693539942192418E-015
  -3.1600000000000003E-002    -1.0066879968046682E-015
  -3.1550000000000002E-002    -4.1600072988295908E-015
  -3.1500000000000000E-002    -6.9811403741690703E-015
  -3.1449999999999999E-002    -8.7026420281316107E-015
  -3.1399999999999997E-002    -8.6876018270261079E-015
  -3.1350000000000003E-002    -6.6156365528295425E-015
  -3.1300000000000001E-002    -2.6158515327801602E-015
  -3.1250000000000000E-002     2.6958725549350267E-015
  -3.1199999999999999E-002     8.2971656401433099E-015
  -3.1150000000000001E-002     1.2949954029569050E-014
  -3.1100000000000003E-002     1.5465111151492658E-014
  -3.1050000000000001E-002     1.4982516644153666E-014
  -3.1000000000000000E-002     1.1200371877994348E-014
  -3.0949999999999998E-002     4.4968507245345985E-015
  -3.0900000000000000E-002    -4.0890365057637599E-015
  -3.0850000000000002E-002    -1.3018429349564875E-014
  -3.0800000000000001E-002    -2.0524866660086587E-014
  -3.0750000000000000E-002    -2.4944093220260681E-014
  -3.0699999999999998E-002    -2.5038238206729786E-014
  -3.0650000000000000E-002    -2.0256022224789522E-014
  -3.0600000000000002E-002    -1.0886321459064712E-014
  -3.0550000000000001E-002     1.9174969506944065E-015
  -3.0499999999999999E-002     1.6246082641544961E-014
  -3.0449999999999998E-002     2.9665330770806400E-014
  -3.0400000000000000E-002     3.9550921235927468E-014
  -3.0350000000000002E-002     4.3498927411193875E-014
  -3.0300000000000001E-002     3.9774156029809691E-014
  -3.0249999999999999E-002     2.7741475830817403E-014
  -3.0200000000000001E-002     8.2056850082970287E-015
  -3.0150000000000000E-002    -1.6429725691270044E-014
  -3.0100000000000002E-002    -4.2274009058183727E-014
  -3.0050000000000000E-002    -6.4393200619288295E-014
  -2.9999999999999999E-002    -7.7591204966688239E-014
  -2.9950000000000001E-002    -7.7448973131161103E-014
  -2.9899999999999999E-002    -6.1450097351460462E-014
  -2.9850000000000002E-002    -2.9946730359369129E-014
  -2.9800000000000000E-002     1.3308932547828910E-014
  -2.9749999999999999E-002     6.1302038545532683E-014
  -2.9700000000000001E-002     1.0468071869235986E-013
  -2.9650000000000003E-002     1.3341391743106912E-013
  -2.9600000000000001E-002     1.3892655758841920E-013
  -2.9550000000000000E-002     1.1628503825052268E-013
  -2.9499999999999998E-002     6.5914465822086910E-014
  -2.9450000000000000E-002    -5.6439114266396036E-015
  -2.9400000000000003E-002    -8.6268433975199967E-014
  -2.9350000000000001E-002    -1.6015146447108145E-013
  -2.9300000000000000E-002    -2.1079633299562839E-013
  -2.9249999999999998E-002    -2.2456131974267531E-013
  -2.9200000000000000E-002    -1.9399695412473530E-013
  -2.9150000000000002E-002    -1.2018747957768912E-013
  -2.9100000000000001E-002    -1.3458911977100283E-014
  -2.9049999999999999E-002     1.0786614090766117E-013
  -2.8999999999999998E-002     2.2056727182520819E-013
  -2.8950000000000000E-002     3.0095162797811251E-013
  -2.8900000000000002E-002     3.2974509923192108E-013
  -2.8850000000000001E-002     2.9643014567146151E-013
  -2.8799999999999999E-002     2.0207408590372025E-013
  -2.8749999999999998E-002     5.9967000972669364E-014
  -2.8700000000000000E-002    -1.0617814469723527E-013
  -2.8650000000000002E-002    -2.6621374396871473E-013
  -2.8600000000000000E-002    -3.8902902360907344E-013
  -2.8549999999999999E-002    -4.4848423845363176E-013
  -2.8500000000000001E-002    -4.2867324955420507E-013
  -2.8450000000000000E-002    -3.2749239612821001E-013
  -2.8400000000000002E-002    -1.5779588750773179E-013
  -2.8350000000000000E-002     5.4141001971444188E-014
  -2.8299999999999999E-002     2.7265052491850903E-013
  -2.8250000000000001E-002     4.5855109351210472E-013
  -2.8200000000000003E-002     5.7591280479562677E-013
  -2.8150000000000001E-002     5.9858477793951999E-013
  -2.8100000000000000E-002     5.1538030998156265E-013
  -2.8049999999999999E-002     3.3300281644791022E-013
  -2.8000000000000001E-002     7.6119541846054970E-014
  -2.7950000000000003E-002    -2.1559235618172250E-013
  -2.7900000000000001E-002    -4.9314942864175801E-013
  -2.7850000000000000E-002    -7.0599214888960488E-013
  -2.7799999999999998E-002    -8.1064466152185078E-013
  -2.7750000000000000E-002    -7.7895503384508823E-013
  -2.7700000000000002E-002    -6.0448405924710375E-013
  -2.7650000000000001E-002    -3.0574922454821736E-013
  -2.7600000000000000E-002     7.4608632264332134E-014
  -2.7549999999999998E-002     4.7507869399090493E-013
  -2.7500000000000000E-002     8.2455400619266346E-013
  -2.7450000000000002E-002     1.0544260984101489E-012
  -2.7400000000000001E-002     1.1115905895946172E-012
  -2.7349999999999999E-002     9.7000481140029736E-013
  -2.7299999999999998E-002     6.3837440054185374E-013
  -2.7250000000000000E-002     1.6198464941540014E-013
  -2.7200000000000002E-002    -3.8240049525569747E-013
  -2.7150000000000001E-002    -8.9836770747287993E-013
  -2.7099999999999999E-002    -1.2867850040619742E-012
  -2.7049999999999998E-002    -1.4649376688662242E-012
  -2.7000000000000000E-002    -1.3841663877452939E-012
  -2.6950000000000002E-002    -1.0422095869713417E-012
  -2.6900000000000000E-002    -4.8718199864923395E-013
  -2.6849999999999999E-002     1.8838528842162271E-013
  -2.6800000000000001E-002     8.6301967849659373E-013
  -2.6749999999999999E-002     1.4087764561274720E-012
  -2.6700000000000002E-002     1.7164638616602178E-012
  -2.6650000000000000E-002     1.7184748289727659E-012
  -2.6599999999999999E-002     1.4042555856920459E-012
  -2.6550000000000001E-002     8.2475396147182658E-013
  -2.6500000000000003E-002     8.4390437227736063E-014
  -2.6450000000000001E-002    -6.7825148106716048E-013
  -2.6400000000000000E-002    -1.3173272719135032E-012
  -2.6349999999999998E-002    -1.7087794134382684E-012
  -2.6300000000000000E-002    -1.7754967842663632E-012
  -2.6250000000000002E-002    -1.5032896207066082E-012
  -2.6200000000000001E-002    -9.4429827616287411E-013
  -2.6150000000000000E-002    -2.0712759505603738E-013
  -2.6099999999999998E-002     5.6421786435991134E-013
  -2.6050000000000000E-002     1.2182223037655521E-012
  -2.6000000000000002E-002     1.6249097870083341E-012
  -2.5950000000000001E-002     1.7003597808830956E-012
  -2.5899999999999999E-002     1.4221443709479265E-012
  -2.5849999999999998E-002     8.3315875710369477E-013
  -2.5800000000000000E-002     3.3682544122660586E-014
  -2.5750000000000002E-002    -8.3631167149423181E-013
  -2.5700000000000001E-002    -1.6210299739519403E-012
  -2.5649999999999999E-002    -2.1746282764240401E-012
  -2.5599999999999998E-002    -2.3847445756840392E-012
  -2.5550000000000000E-002    -2.1904479045584948E-012
  -2.5500000000000002E-002    -1.5924102529130109E-012
  -2.5450000000000000E-002    -6.5433965046161466E-013
  -2.5399999999999999E-002     5.0420444411380584E-013
  -2.5349999999999998E-002     1.7226013895409772E-012
  -2.5300000000000000E-002     2.8198433480430439E-012
  -2.5250000000000002E-002     3.6187697278428511E-012
  -2.5200000000000000E-002     3.9710111699834678E-012
  -2.5149999999999999E-002     3.7793843894784772E-012
  -2.5100000000000001E-002     3.0143656676655419E-012
  -2.5049999999999999E-002     1.7216224844803585E-012
  -2.5000000000000001E-002     1.8594204983427780E-014
  -2.4950000000000000E-002    -1.9202490532775778E-012
  -2.4899999999999999E-002    -3.8877235399858808E-012
  -2.4850000000000001E-002    -5.6739076725347242E-012
  -2.4800000000000003E-002    -7.0961688172076446E-012
  -2.4750000000000001E-002    -8.0229260351589688E-012
  -2.4700000000000000E-002    -8.3855083200821242E-012
  -2.4649999999999998E-002    -8.1745444384394293E-012
  -2.4600000000000000E-002    -7.4205007720633321E-012
  -2.4550000000000002E-002    -6.1616294621082698E-012
  -2.4500000000000001E-002    -4.4058386402011031E-012
  -2.4450000000000000E-002    -2.0950559229867371E-012
  -2.4399999999999998E-002     9.1911727651959891E-013
  -2.4350000000000000E-002     4.8814520308363480E-012
  -2.4299999999999999E-002     1.0117375847847891E-011
  -2.4250000000000001E-002     1.6996574596302554E-011
  -2.4199999999999999E-002     2.5881671686216190E-011
  -2.4150000000000001E-002     3.7071332731090822E-011
  -2.4100000000000000E-002     5.0748956451755874E-011
  -2.4049999999999998E-002     6.6947544592572535E-011
  -2.4000000000000000E-002     8.5538537140689229E-011
  -2.3949999999999999E-002     1.0624784342368067E-010
  -2.3900000000000001E-002     1.2869675828148174E-010
  -2.3850000000000000E-002     1.5246057202829436E-010
  -2.3800000000000002E-002     1.7713374115184174E-010
  -2.3750000000000000E-002     2.0238919627158634E-010
  -2.3699999999999999E-002     2.2802035693522899E-010
  -2.3650000000000001E-002     2.5395789327996653E-010
  -2.3599999999999999E-002     2.8025864328943385E-010
  -2.3550000000000001E-002     3.0706950716042513E-010
  -2.3500000000000000E-002     3.3457515973757426E-010
  -2.3449999999999999E-002     3.6294088509133966E-010
  -2.3400000000000001E-002     3.9226351202089237E-010
  -2.3349999999999999E-002     4.2254094304142128E-010
  -2.3300000000000001E-002     4.5366629960684085E-010
  -2.3250000000000000E-002     4.8544744064078423E-010
  -2.3199999999999998E-002     5.1764645212374184E-010
  -2.3150000000000000E-002     5.5002953904949961E-010
  -2.3099999999999999E-002     5.8241472733218871E-010
  -2.3050000000000001E-002     6.1470767676625345E-010
  -2.3000000000000000E-002     6.4691701659560309E-010
  -2.2950000000000002E-002     6.7914807652461721E-010
  -2.2900000000000000E-002     7.1157694630100495E-010
  -2.2849999999999999E-002     7.4441344574877036E-010
  -2.2800000000000001E-002     7.7786240665178404E-010
  -2.2749999999999999E-002     8.1209174979706341E-010
  -2.2700000000000001E-002     8.4721420338668971E-010
  -2.2650000000000000E-002     8.8328402498239327E-010
  -2.2599999999999999E-002     9.2030633989876171E-010
  -2.2550000000000001E-002     9.5825373754540128E-010
  -2.2499999999999999E-002     9.9708389593238797E-010
  -2.2450000000000001E-002     1.0367541073904781E-009
  -2.2400000000000000E-002     1.0772287919159122E-009
  -2.2349999999999998E-002     1.1184820659336748E-009
  -2.2300000000000000E-002     1.1604980913165053E-009
  -2.2249999999999999E-002     1.2032737012041412E-009
  -2.2200000000000001E-002     1.2468244081666779E-009
  -2.2150000000000000E-002     1.2911949262062728E-009
  -2.2100000000000002E-002     1.3364716218999398E-009
  -2.2050000000000000E-002     1.3827890125142939E-009
  -2.1999999999999999E-002     1.4303274444943694E-009
  -2.1950000000000001E-002     1.4792965400765365E-009
  -2.1899999999999999E-002     1.5299040952899601E-009
  -2.1850000000000001E-002     1.5823177054076524E-009
  -2.1800000000000000E-002     1.6366251484595890E-009
  -2.1749999999999999E-002     1.6928071927475269E-009
  -2.1700000000000001E-002     1.7507325744241287E-009
  -2.1649999999999999E-002     1.8101809086398741E-009
  -2.1600000000000001E-002     1.8708913389346701E-009
  -2.1550000000000000E-002     1.9326306731366019E-009
  -2.1499999999999998E-002     1.9952625337719257E-009
  -2.1450000000000000E-002     2.0588051864032819E-009
  -2.1399999999999999E-002     2.1234566600467242E-009
  -2.1350000000000001E-002     2.1895816742514771E-009
  -2.1299999999999999E-002     2.2576568813092362E-009
  -2.1250000000000002E-002     2.3281856655038213E-009
  -2.1200000000000000E-002     2.4015993072583852E-009
  -2.1149999999999999E-002     2.4781697107364679E-009
  -2.1100000000000001E-002     2.5579540423559659E-009
  -2.1049999999999999E-002     2.6407881353602653E-009
  -2.1000000000000001E-002     2.7263312207085076E-009
  -2.0950000000000000E-002     2.8141547497953151E-009
  -2.0899999999999998E-002     2.9038535940424851E-009
  -2.0850000000000000E-002     2.9951524937429200E-009
  -2.0799999999999999E-002     3.0879802969340786E-009
  -2.0750000000000001E-002     3.1824941863786443E-009
  -2.0700000000000000E-002     3.2790487985729544E-009
  -2.0649999999999998E-002     3.3781153250976177E-009
  -2.0600000000000000E-002     3.4801769088231482E-009
  -2.0549999999999999E-002     3.5856228364433869E-009
  -2.0500000000000001E-002     3.6946742540675892E-009
  -2.0449999999999999E-002     3.8073583746016681E-009
  -2.0400000000000001E-002     3.9235392152506624E-009
  -2.0350000000000000E-002     4.0429924206392501E-009
  -2.0299999999999999E-002     4.1655083484496637E-009
  -2.0250000000000001E-002     4.2909869255855377E-009
  -2.0199999999999999E-002     4.4195003186444330E-009
  -2.0150000000000001E-002     4.5513058311639795E-009
  -2.0100000000000000E-002     4.6868046788094697E-009
  -2.0049999999999998E-002     4.8264554385160449E-009
  -2.0000000000000000E-002     4.9706768722910715E-009
  -1.9949999999999999E-002     5.1197552870799999E-009
  -1.9900000000000001E-002     5.2737971533228478E-009
  -1.9850000000000000E-002     5.4327287311470990E-009
  -1.9799999999999998E-002     5.5963517102246411E-009
  -1.9750000000000000E-002     5.7644292657486146E-009
  -1.9699999999999999E-002     5.9367849150567118E-009
  -1.9650000000000001E-002     6.1133825086864290E-009
  -1.9599999999999999E-002     6.2943626358248902E-009
  -1.9550000000000001E-002     6.4800272342995747E-009
  -1.9500000000000000E-002     6.6707755073260428E-009
  -1.9449999999999999E-002     6.8670138715351971E-009
  -1.9400000000000001E-002     7.0690653798954567E-009
  -1.9349999999999999E-002     7.2771045701324071E-009
  -1.9300000000000001E-002     7.4911464245104148E-009
  -1.9250000000000000E-002     7.7110828229336324E-009
  -1.9199999999999998E-002     7.9367667647194270E-009
  -1.9150000000000000E-002     8.1681137103823332E-009
  -1.9099999999999999E-002     8.4051870334751655E-009
  -1.9050000000000001E-002     8.6482485035823676E-009
  -1.9000000000000000E-002     8.8977472750951222E-009
  -1.8949999999999998E-002     9.1542466780111749E-009
  -1.8900000000000000E-002     9.4183172396288010E-009
  -1.8849999999999999E-002     9.6904146560124070E-009
  -1.8800000000000001E-002     9.9707867730041388E-009
  -1.8749999999999999E-002     1.0259441581562069E-008
  -1.8700000000000001E-002     1.0556179423366801E-008
  -1.8650000000000000E-002     1.0860695974581583E-008
  -1.8599999999999998E-002     1.1172720931159491E-008
  -1.8550000000000001E-002     1.1492157329771923E-008
  -1.8499999999999999E-002     1.1819183215640891E-008
  -1.8450000000000001E-002     1.2154275074784851E-008
  -1.8400000000000000E-002     1.2498153898378206E-008
  -1.8349999999999998E-002     1.2851652896335142E-008
  -1.8300000000000000E-002     1.3215546222782768E-008
  -1.8249999999999999E-002     1.3590389824633774E-008
  -1.8200000000000001E-002     1.3976415324566284E-008
  -1.8149999999999999E-002     1.4373517480350950E-008
  -1.8100000000000002E-002     1.4781333928618531E-008
  -1.8050000000000000E-002     1.5199408223006987E-008
  -1.7999999999999999E-002     1.5627389181191875E-008
  -1.7950000000000001E-002     1.6065206684664968E-008
  -1.7899999999999999E-002     1.6513173875779600E-008
  -1.7850000000000001E-002     1.6971997165577098E-008
  -1.7800000000000000E-002     1.7442670643805795E-008
  -1.7749999999999998E-002     1.7926289747845324E-008
  -1.7700000000000000E-002     1.8423844177105699E-008
  -1.7649999999999999E-002     1.8936030411329027E-008
  -1.7600000000000001E-002     1.9463140565970966E-008
  -1.7550000000000000E-002     2.0005067501847259E-008
  -1.7499999999999998E-002     2.0561419381332412E-008
  -1.7450000000000000E-002     2.1131705247840757E-008
  -1.7399999999999999E-002     2.1715564124078598E-008
  -1.7350000000000001E-002     2.2312936727261280E-008
  -1.7299999999999999E-002     2.2924164369486158E-008
  -1.7250000000000001E-002     2.3549977348972788E-008
  -1.7200000000000000E-002     2.4191361712864951E-008
  -1.7149999999999999E-002     2.4849381603224895E-008
  -1.7100000000000001E-002     2.5524961095217309E-008
  -1.7049999999999999E-002     2.6218728688581340E-008
  -1.7000000000000001E-002     2.6930943223871311E-008
  -1.6950000000000000E-002     2.7661538078686133E-008
  -1.6899999999999998E-002     2.8410260412681027E-008
  -1.6850000000000000E-002     2.9176880902777786E-008
  -1.6799999999999999E-002     2.9961396642185249E-008
  -1.6750000000000001E-002     3.0764179961168662E-008
  -1.6700000000000000E-002     3.1586014715561423E-008
  -1.6649999999999998E-002     3.2428028517135121E-008
  -1.6600000000000000E-002     3.3291505466957322E-008
  -1.6549999999999999E-002     3.4177662120155781E-008
  -1.6500000000000001E-002     3.5087462854198737E-008
  -1.6449999999999999E-002     3.6021474273832822E-008
  -1.6400000000000001E-002     3.6979861459456892E-008
  -1.6350000000000000E-002     3.7962501484311612E-008
  -1.6299999999999999E-002     3.8969149963782742E-008
  -1.6250000000000001E-002     3.9999685948001997E-008
  -1.6199999999999999E-002     4.1054290904246388E-008
  -1.6150000000000001E-002     4.2133563726117500E-008
  -1.6100000000000000E-002     4.3238495174218652E-008
  -1.6049999999999998E-002     4.4370345065943871E-008
  -1.6000000000000000E-002     4.5530403371178213E-008
  -1.5949999999999999E-002     4.6719783379987058E-008
  -1.5900000000000001E-002     4.7939233082614050E-008
  -1.5850000000000000E-002     4.9189080601748237E-008
  -1.5799999999999998E-002     5.0469310160778665E-008
  -1.5750000000000000E-002     5.1779758869109180E-008
  -1.5699999999999999E-002     5.3120363909432298E-008
  -1.5650000000000001E-002     5.4491364633570035E-008
  -1.5599999999999999E-002     5.5893437050431481E-008
  -1.5550000000000001E-002     5.7327692242907850E-008
  -1.5500000000000000E-002     5.8795563793515522E-008
  -1.5449999999999998E-002     6.0298563535823082E-008
  -1.5400000000000000E-002     6.1838059840759216E-008
  -1.5349999999999999E-002     6.3415070087765999E-008
  -1.5300000000000001E-002     6.5030155730406411E-008
  -1.5250000000000000E-002     6.6683445338831485E-008
  -1.5199999999999998E-002     6.8374819513978302E-008
  -1.5150000000000000E-002     7.0104143384981417E-008
  -1.5099999999999999E-002     7.1871549112152881E-008
  -1.5050000000000001E-002     7.3677623680274277E-008
  -1.4999999999999999E-002     7.5523489854695374E-008
  -1.4949999999999998E-002     7.7410731246623404E-008
  -1.4900000000000000E-002     7.9341177542129252E-008
  -1.4849999999999999E-002     8.1316659856278424E-008
  -1.4800000000000001E-002     8.3338749359700501E-008
  -1.4749999999999999E-002     8.5408611921974385E-008
  -1.4700000000000001E-002     8.7527003591710176E-008
  -1.4650000000000000E-002     8.9694353129136412E-008
  -1.4599999999999998E-002     9.1911016193112143E-008
  -1.4550000000000000E-002     9.4177465522003671E-008
  -1.4499999999999999E-002     9.6494550189344170E-008
  -1.4450000000000001E-002     9.8863603711575657E-008
  -1.4400000000000000E-002     1.0128638279933170E-007
  -1.4349999999999998E-002     1.0376490370428374E-007
  -1.4300000000000000E-002     1.0630121669886298E-007
  -1.4249999999999999E-002     1.0889713490246255E-007
  -1.4200000000000001E-002     1.1155401458065920E-007
  -1.4149999999999999E-002     1.1427272466911303E-007
  -1.4099999999999998E-002     1.1705363524988632E-007
  -1.4050000000000000E-002     1.1989684992051699E-007
  -1.3999999999999999E-002     1.2280239659758320E-007
  -1.3950000000000001E-002     1.2577054973482393E-007
  -1.3899999999999999E-002     1.2880199318003645E-007
  -1.3850000000000001E-002     1.3189785206023834E-007
  -1.3800000000000000E-002     1.3505969638347871E-007
  -1.3749999999999998E-002     1.3828930564739726E-007
  -1.3700000000000000E-002     1.4158855448607961E-007
  -1.3649999999999999E-002     1.4495904677794958E-007
  -1.3600000000000001E-002     1.4840211674979399E-007
  -1.3550000000000000E-002     1.5191871853758239E-007
  -1.3499999999999998E-002     1.5550963925173164E-007
  -1.3450000000000000E-002     1.5917558503124810E-007
  -1.3399999999999999E-002     1.6291736344046827E-007
  -1.3350000000000001E-002     1.6673601829713951E-007
  -1.3299999999999999E-002     1.7063294490703274E-007
  -1.3249999999999998E-002     1.7460981295644584E-007
  -1.3200000000000000E-002     1.7866841204720645E-007
  -1.3149999999999998E-002     1.8281060012039328E-007
  -1.3100000000000001E-002     1.8703813750980658E-007
  -1.3049999999999999E-002     1.9135264399921481E-007
  -1.3000000000000001E-002     1.9575561622998480E-007
  -1.2950000000000000E-002     2.0024854913688096E-007
  -1.2899999999999998E-002     2.0483306891381525E-007
  -1.2850000000000000E-002     2.0951121161537026E-007
  -1.2799999999999999E-002     2.1428536924454847E-007