  -4.0000000000000001E-002     0.0000000000000000     
  -3.9949999999999999E-002     0.0000000000000000     
  -3.9899999999999998E-002     0.0000000000000000     
  -3.9850000000000003E-002     0.0000000000000000     
  -3.9800000000000002E-002     0.0000000000000000     
  -3.9750000000000001E-002     0.0000000000000000     
  -3.9699999999999999E-002     0.0000000000000000     
  -3.9649999999999998E-002     0.0000000000000000     
  -3.9600000000000003E-002     0.0000000000000000     
  -3.9550000000000002E-002     0.0000000000000000     
  -3.9500000000000000E-002     0.0000000000000000     
  -3.9449999999999999E-002     0.0000000000000000     
  -3.9399999999999998E-002     0.0000000000000000     
  -3.9350000000000003E-002     0.0000000000000000     
  -3.9300000000000002E-002     0.0000000000000000     
  -3.9250000000000000E-002     0.0000000000000000     
  -3.9199999999999999E-002     0.0000000000000000     
  -3.9150000000000004E-002     0.0000000000000000     
  -3.9100000000000003E-002     0.0000000000000000     
  -3.9050000000000001E-002     0.0000000000000000     
  -3.9000000000000000E-002     0.0000000000000000     
  -3.8949999999999999E-002     0.0000000000000000     
  -3.8900000000000004E-002     0.0000000000000000     
  -3.8850000000000003E-002     0.0000000000000000     
  -3.8800000000000001E-002     0.0000000000000000     
  -3.8750000000000000E-002     0.0000000000000000     
  -3.8699999999999998E-002     0.0000000000000000     
  -3.8650000000000004E-002     0.0000000000000000     
  -3.8600000000000002E-002     0.0000000000000000     
  -3.8550000000000001E-002     0.0000000000000000     
  -3.8500000000000000E-002     0.0000000000000000     
  -3.8449999999999998E-002     0.0000000000000000     
  -3.8400000000000004E-002     0.0000000000000000     
  -3.8350000000000002E-002     0.0000000000000000     
  -3.8300000000000001E-002     0.0000000000000000     
  -3.8249999999999999E-002     0.0000000000000000     
  -3.8199999999999998E-002     0.0000000000000000     
  -3.8150000000000003E-002     0.0000000000000000     
  -3.8100000000000002E-002     0.0000000000000000     
  -3.8050000000000000E-002     0.0000000000000000     
  -3.7999999999999999E-002     0.0000000000000000     
  -3.7949999999999998E-002     0.0000000000000000     
  -3.7900000000000003E-002     0.0000000000000000     
  -3.7850000000000002E-002     0.0000000000000000     
  -3.7800000000000000E-002     0.0000000000000000     
  -3.7749999999999999E-002     0.0000000000000000     
  -3.7699999999999997E-002     0.0000000000000000     
  -3.7650000000000003E-002     0.0000000000000000     
  -3.7600000000000001E-002     0.0000000000000000     
  -3.7550000000000000E-002     0.0000000000000000     
  -3.7499999999999999E-002     0.0000000000000000     
  -3.7449999999999997E-002     0.0000000000000000     
  -3.7400000000000003E-002     0.0000000000000000     
  -3.7350000000000001E-002     0.0000000000000000     
  -3.7300000000000000E-002     0.0000000000000000     
  -3.7249999999999998E-002     0.0000000000000000     
  -3.7200000000000004E-002     0.0000000000000000     
  -3.7150000000000002E-002     0.0000000000000000     
  -3.7100000000000001E-002     0.0000000000000000     
  -3.7050000000000000E-002     0.0000000000000000     
  -3.6999999999999998E-002     0.0000000000000000     
  -3.6950000000000004E-002     0.0000000000000000     
  -3.6900000000000002E-002     0.0000000000000000     
  -3.6850000000000001E-002     1.7840220576336262E-039
  -3.6799999999999999E-002     4.0431658195434694E-039
  -3.6749999999999998E-002     6.8679597161899043E-039
  -3.6700000000000003E-002     6.8729093951026261E-039
  -3.6650000000000002E-002    -3.7737553235999129E-039
  -3.6600000000000001E-002    -3.1720143484106250E-038
  -3.6549999999999999E-002    -8.1854652800296484E-038
  -3.6499999999999998E-002    -1.2204585626953316E-037
  -3.6450000000000003E-002    -1.0530390557802302E-037
  -3.6400000000000002E-002    -2.1330183263838348E-039
  -3.6350000000000000E-002     2.6958182377937067E-037
  -3.6299999999999999E-002     7.0547220886083334E-037
  -3.6249999999999998E-002     1.1690099258540019E-036
  -3.6200000000000003E-002     1.3300611244257310E-036
  -3.6150000000000002E-002     7.0394060347669027E-037
  -3.6100000000000000E-002    -1.1646333355049109E-036
  -3.6049999999999999E-002    -4.3371064648537095E-036
  -3.6000000000000004E-002    -7.9952651141710732E-036
  -3.5950000000000003E-002    -1.0114382511167538E-035
  -3.5900000000000001E-002    -7.7216159005974982E-036
  -3.5850000000000000E-002     1.8624484870633592E-036
  -3.5799999999999998E-002     1.8836994004776752E-035
  -3.5750000000000004E-002     3.8649183030541055E-035
  -3.5700000000000003E-002     5.1354917113018949E-035
  -3.5650000000000001E-002     4.4490460963652244E-035
  -3.5600000000000000E-002     9.9973363184755723E-036
  -3.5549999999999998E-002    -4.7239157410811833E-035
  -3.5500000000000004E-002    -1.0510525114929609E-034
  -3.5450000000000002E-002    -1.3122791647769690E-034
  -3.5400000000000001E-002    -1.0392021575856025E-034
  -3.5349999999999999E-002    -3.9236412635679061E-035
  -3.5299999999999998E-002    -3.5193626456289988E-036
  -3.5250000000000004E-002    -8.5804112524173087E-035
  -3.5200000000000002E-002    -3.1874064828440321E-034
  -3.5150000000000001E-002    -5.7443589028756660E-034
  -3.5099999999999999E-002    -5.0934179065158674E-034
  -3.5049999999999998E-002     3.4366620135814179E-034
  -3.5000000000000003E-002     2.2783663097898986E-033
  -3.4950000000000002E-002     4.9787981290551269E-033
  -3.4900000000000000E-002     7.1765894199233481E-033
  -3.4849999999999999E-002     6.7442793159050552E-033
  -3.4799999999999998E-002     1.4869016320196567E-033
  -3.4750000000000003E-002    -9.4429982348365199E-033
  -3.4700000000000002E-002    -2.4082244082368887E-032
  -3.4650000000000000E-002    -3.7098503012260307E-032
  -3.4599999999999999E-002    -4.0973621786886522E-032
  -3.4549999999999997E-002    -2.8958794411282977E-032
  -3.4500000000000003E-002     1.4170660419585973E-033
  -3.4450000000000001E-002     4.6413100118589271E-032
  -3.4400000000000000E-002     9.7424255052113887E-032
  -3.4349999999999999E-002     1.4510707716492613E-031
  -3.4299999999999997E-002     1.8263263687770720E-031
  -3.4250000000000003E-002     2.0272169826435494E-031
  -3.4200000000000001E-002     1.8580559706567051E-031
  -3.4150000000000000E-002     8.4957060560816604E-032
  -3.4099999999999998E-002    -1.7582766910191418E-031
  -3.4049999999999997E-002    -6.6787891863733788E-031
  -3.4000000000000002E-002    -1.3766848390565971E-030
  -3.3950000000000001E-002    -2.0928609379006711E-030
  -3.3900000000000000E-002    -2.3401282458284945E-030
  -3.3849999999999998E-002    -1.4390297662667334E-030
  -3.3799999999999997E-002     1.2093696706343930E-030
  -3.3750000000000002E-002     5.6273212248000868E-030
  -3.3700000000000001E-002     1.0721280297915767E-029
  -3.3649999999999999E-002     1.4037418841197682E-029
  -3.3599999999999998E-002     1.2208363626716135E-029
  -3.3550000000000003E-002     2.3186962278652930E-030
  -3.3500000000000002E-002    -1.6022060363794948E-029
  -3.3450000000000001E-002    -3.8703992234701410E-029
  -3.3399999999999999E-002    -5.6501554177731607E-029
  -3.3349999999999998E-002    -5.7024069467985171E-029
  -3.3300000000000003E-002    -2.9601058669903332E-029
  -3.3250000000000002E-002     2.8056515715525129E-029
  -3.3200000000000000E-002     1.0422026854969110E-028
  -3.3149999999999999E-002     1.7214196448855446E-028
  -3.3099999999999997E-002     1.9636588594790525E-028
  -3.3050000000000003E-002     1.4613536939034584E-028
  -3.3000000000000002E-002     1.1679793685848400E-029
  -3.2950000000000000E-002    -1.8395692300000944E-028
  -3.2899999999999999E-002    -3.8490029346134369E-028
  -3.2850000000000004E-002    -5.1733185696793933E-028
  -3.2800000000000003E-002    -5.1497104274603230E-028
  -3.2750000000000001E-002    -3.4400277437388800E-028
  -3.2700000000000000E-002    -1.4794144443678688E-029
  -3.2649999999999998E-002     4.2547097064105325E-028
  -3.2600000000000004E-002     9.1190915741533813E-028
  -3.2550000000000003E-002     1.3735413150508715E-027
  -3.2500000000000001E-002     1.7180843198046617E-027
  -3.2450000000000000E-002     1.7895321238132247E-027
  -3.2399999999999998E-002     1.3317726354808389E-027
  -3.2350000000000004E-002     2.1046683209989122E-029
  -3.2300000000000002E-002    -2.3726049015404896E-027
  -3.2250000000000001E-002    -5.6916173119994642E-027
  -3.2199999999999999E-002    -9.0683421834168080E-027
  -3.2149999999999998E-002    -1.0789740390419478E-026
  -3.2100000000000004E-002    -8.6069026883477426E-027
  -3.2050000000000002E-002    -6.4015234321326200E-028
  -3.2000000000000001E-002     1.3250014255331030E-026
  -3.1949999999999999E-002     3.0137025910182901E-026
  -3.1899999999999998E-002     4.3560618753630571E-026
  -3.1850000000000003E-002     4.4722979369603239E-026
  -3.1800000000000002E-002     2.5669294698401628E-026
  -3.1750000000000000E-002    -1.6159144792782594E-026
  -3.1699999999999999E-002    -7.3684787710355801E-026
  -3.1649999999999998E-002    -1.2863331480546147E-025
  -3.1600000000000003E-002    -1.5475012244237161E-025
  -3.1550000000000002E-002    -1.2639469811219978E-025
  -3.1500000000000000E-002    -3.0665251226712305E-026
  -3.1449999999999999E-002     1.2129442612905424E-025
  -3.1399999999999997E-002     2.8943889810787781E-025
  -3.1350000000000003E-002     4.1102716048448799E-025
  -3.1300000000000001E-002     4.1890716851868846E-025
  -3.1250000000000000E-002     2.6769402314069855E-025
  -3.1199999999999999E-002    -4.1081005440910570E-026
  -3.1150000000000001E-002    -4.4563689063679205E-025
  -3.1100000000000003E-002    -8.3062445736343560E-025
  -3.1050000000000001E-002    -1.0552786725437641E-024
  -3.1000000000000000E-002    -9.9603867115431770E-025
  -3.0949999999999998E-002    -5.9020182224798108E-025
  -3.0900000000000000E-002     1.3394632395962352E-025
  -3.0850000000000002E-002     1.0500369768588201E-024
  -3.0800000000000001E-002     1.9503088000629207E-024
  -3.0750000000000000E-002     2.5792897065129872E-024
  -3.0699999999999998E-002     2.6760333886601295E-024
  -3.0650000000000000E-002     2.0218628897126062E-024
  -3.0600000000000002E-002     4.9865837359197251E-025
  -3.0550000000000001E-002    -1.8351348106192308E-024
  -3.0499999999999999E-002    -4.6554940035586578E-024
  -3.0449999999999998E-002    -7.3022879300641344E-024
  -3.0400000000000000E-002    -8.7893190007822212E-024
  -3.0350000000000002E-002    -7.9694423138385462E-024
  -3.0300000000000001E-002    -3.8997381446402343E-024
  -3.0249999999999999E-002     3.6304265913011094E-024
  -3.0200000000000001E-002     1.3563998104369571E-023
  -3.0150000000000000E-002     2.3295386608978869E-023
  -3.0100000000000002E-002     2.8932928814816084E-023
  -3.0050000000000000E-002     2.6282939291890307E-023
  -2.9999999999999999E-002     1.2474374838168877E-023
  -2.9950000000000001E-002    -1.2203172408803850E-023
  -2.9899999999999999E-002    -4.2974779676715403E-023
  -2.9850000000000002E-002    -7.0581269892744879E-023
  -2.9800000000000000E-002    -8.3162650084075355E-023
  -2.9749999999999999E-002    -6.9971240520433931E-023
  -2.9700000000000001E-002    -2.6049442536544213E-023
  -2.9650000000000003E-002     4.3711721077817787E-023
  -2.9600000000000001E-002     1.2299288792877623E-022
  -2.9550000000000000E-002     1.8638132427602335E-022
  -2.9499999999999998E-002     2.0591027154059169E-022
  -2.9450000000000000E-002     1.6051095281720765E-022
  -2.9400000000000003E-002     4.5611947174115874E-023
  -2.9350000000000001E-002    -1.2061942588918307E-022
  -2.9300000000000000E-002    -2.9745694867087517E-022
  -2.9249999999999998E-002    -4.2959428571286796E-022
  -2.9200000000000000E-002    -4.6181282870703892E-022
  -2.9150000000000002E-002    -3.5674782758163092E-022
  -2.9100000000000001E-002    -1.1059381637602295E-022
  -2.9049999999999999E-002     2.3842173237255885E-022
  -2.8999999999999998E-002     6.1234219944021183E-022
  -2.8950000000000000E-002     9.0734924411679967E-022
  -2.8900000000000002E-002     1.0169832436374120E-021
  -2.8850000000000001E-002     8.6015845518692373E-022
  -2.8799999999999999E-002     4.0820611104205381E-022
  -2.8749999999999998E-002    -2.9494836333892467E-022
  -2.8700000000000000E-002    -1.1248522654079954E-021
  -2.8650000000000002E-002    -1.8854175306158895E-021
  -2.8600000000000000E-002    -2.3380055725989297E-021
  -2.8549999999999999E-002    -2.2516189276585561E-021
  -2.8500000000000001E-002    -1.4704139587059726E-021
  -2.8450000000000000E-002     1.2611822981465855E-023
  -2.8400000000000002E-002     1.9955967846594808E-021
  -2.8350000000000000E-002     4.0479512765414806E-021
  -2.8299999999999999E-002     5.5569267056867065E-021
  -2.8250000000000001E-002     5.8553892696049003E-021
  -2.8200000000000003E-002     4.4216339310574792E-021
  -2.8150000000000001E-002     1.1098587761982415E-021
  -2.8100000000000000E-002    -3.6602630591386133E-021
  -2.8049999999999999E-002    -8.8407139039577506E-021
  -2.8000000000000001E-002    -1.2890282999333264E-020
  -2.7950000000000003E-002    -1.4130551993276766E-020
  -2.7900000000000001E-002    -1.1270438609368252E-020
  -2.7850000000000000E-002    -3.9664198850705955E-021
  -2.7799999999999998E-002     6.7703015681964800E-021
  -2.7750000000000000E-002     1.8509900432907489E-020
  -2.7700000000000002E-002     2.7804436605498475E-020
  -2.7650000000000001E-002     3.1041276402315539E-020
  -2.7600000000000000E-002     2.5575397436834520E-020
  -2.7549999999999998E-002     1.0827296793809158E-020
  -2.7500000000000000E-002    -1.1027113673132823E-020
  -2.7450000000000002E-002    -3.5091268615961368E-020
  -2.7400000000000001E-002    -5.4648302348140238E-020
  -2.7349999999999999E-002    -6.2812970850456118E-020
  -2.7299999999999998E-002    -5.4562508614032948E-020
  -2.7250000000000000E-002    -2.8595906965089421E-020
  -2.7200000000000002E-002     1.1557889781277702E-020
  -2.7150000000000001E-002     5.7619281416315665E-020
  -2.7099999999999999E-002     9.7975995767325546E-020
  -2.7049999999999998E-002     1.2024047988745525E-019
  -2.7000000000000000E-002     1.1442760043564524E-019
  -2.6950000000000002E-002     7.6028688632910163E-020
  -2.6900000000000000E-002     8.2158806426864587E-021
  -2.6849999999999999E-002    -7.7467848762503874E-020
  -2.6800000000000001E-002    -1.6232499968515708E-019
  -2.6749999999999999E-002    -2.2368229607490761E-019
  -2.6700000000000002E-002    -2.3970662210176279E-019
  -2.6650000000000000E-002    -1.9513747014653088E-019
  -2.6599999999999999E-002    -8.6838255405313057E-020
  -2.6550000000000001E-002     7.2223100142386560E-020
  -2.6500000000000003E-002     2.5204428146718104E-019
  -2.6450000000000001E-002     4.0893444487572066E-019
  -2.6400000000000000E-002     4.9363235010815396E-019
  -2.6349999999999998E-002     4.6348729084564163E-019
  -2.6300000000000000E-002     2.9648935548884237E-019
  -2.6250000000000002E-002     3.5436435518419200E-021
  -2.6200000000000001E-002    -3.6534112516079670E-019
  -2.6150000000000000E-002    -7.2479244675278175E-019
  -2.6099999999999998E-002    -9.6961335766179954E-019
  -2.6050000000000000E-002    -1.0007165586707656E-018
  -2.6000000000000002E-002    -7.5623124703916585E-019
  -2.5950000000000001E-002    -2.3938757641270150E-019
  -2.5899999999999999E-002     4.6642278869748556E-019
  -2.5849999999999998E-002     1.2033118553166152E-018
  -2.5800000000000000E-002     1.7684305954608951E-018
  -2.5750000000000002E-002     1.9636225491397080E-018
  -2.5700000000000001E-002     1.6542801209098891E-018
  -2.5649999999999999E-002     8.2141168109326740E-019
  -2.5599999999999998E-002    -4.1001454429254609E-019
  -2.5550000000000000E-002    -1.7791456582846373E-018
  -2.5500000000000002E-002    -2.9376115894045602E-018
  -2.5450000000000000E-002    -3.5307518004937445E-018
  -2.5399999999999999E-002    -3.2937127003504204E-018
  -2.5349999999999998E-002    -2.1378649610344977E-018
  -2.5300000000000000E-002    -2.0274720807102150E-019
  -2.5250000000000002E-002     2.1446469180392628E-018
  -2.5200000000000000E-002     4.3694472356296472E-018
  -2.5149999999999999E-002     5.8791668386105722E-018
  -2.5100000000000001E-002     6.1633241317160460E-018
  -2.5049999999999999E-002     4.9323836818787577E-018
  -2.5000000000000001E-002     2.2235236151125037E-018
  -2.4950000000000000E-002    -1.5550265570225470E-018
  -2.4899999999999999E-002    -5.6593198272866962E-018
  -2.4850000000000001E-002    -9.1288697132192014E-018
  -2.4800000000000003E-002    -1.0977357241970516E-017
  -2.4750000000000001E-002    -1.0425716455318842E-017
  -2.4700000000000000E-002    -7.1334340961375491E-018
  -2.4649999999999998E-002    -1.3738960782509285E-018
  -2.4600000000000000E-002     5.9015559205254125E-018
  -2.4550000000000002E-002     1.3154477513321010E-017
  -2.4500000000000001E-002     1.8521740975234161E-017
  -2.4450000000000000E-002     2.0225473537470801E-017
  -2.4399999999999998E-002     1.7059016515124766E-017
  -2.4350000000000000E-002     8.8354754418364697E-018
  -2.4299999999999999E-002    -3.3354201955432428E-018
  -2.4250000000000001E-002    -1.7062538389695534E-017
  -2.4199999999999999E-002    -2.9046290515842778E-017
  -2.4150000000000001E-002    -3.5785347276227954E-017
  -2.4100000000000000E-002    -3.4488827048032420E-017
  -2.4049999999999998E-002    -2.3976199079430327E-017
  -2.4000000000000000E-002    -5.3052626907280252E-018
  -2.3949999999999999E-002     1.8102656615491439E-017
  -2.3900000000000001E-002     4.0966913988135529E-017
  -2.3850000000000000E-002     5.7247241643464292E-017
  -2.3800000000000002E-002     6.1628559995325546E-017
  -2.3750000000000000E-002     5.1039813335836755E-017
  -2.3699999999999999E-002     2.5798009168590115E-017
  -2.3650000000000001E-002    -9.9800761545718932E-018
  -2.3599999999999999E-002    -4.8898661707896788E-017
  -2.3550000000000001E-002    -8.1709317605303095E-017
  -2.3500000000000000E-002    -9.9378214768278790E-017
  -2.3449999999999999E-002    -9.5343206314784908E-017
  -2.3400000000000001E-002    -6.7427243808788968E-017
  -2.3349999999999999E-002    -1.8917863416351586E-017
  -2.3300000000000001E-002     4.1517723123480898E-017
  -2.3250000000000000E-002     1.0117393772784798E-016
  -2.3199999999999998E-002     1.4572964806014111E-016
  -2.3150000000000000E-002     1.6233699062974366E-016
  -2.3099999999999999E-002     1.4278609316513913E-016
  -2.3050000000000001E-002     8.6076800482764922E-017
  -2.3000000000000000E-002    -2.3910687681323922E-019
  -2.2950000000000002E-002    -1.0042993318191774E-016
  -2.2900000000000000E-002    -1.9288484693247651E-016
  -2.2849999999999999E-002    -2.5418567102274109E-016
  -2.2800000000000001E-002    -2.6436012500481461E-016
  -2.2749999999999999E-002    -2.1231421243837115E-016
  -2.2700000000000001E-002    -1.0015920615310084E-016
  -2.2650000000000000E-002     5.4881818396850327E-017
  -2.2599999999999999E-002     2.2199104763378420E-016
  -2.2550000000000001E-002     3.6202312150354339E-016
  -2.2499999999999999E-002     4.3591315568795045E-016
  -2.2450000000000001E-002     4.1462061479549758E-016
  -2.2400000000000000E-002     2.8824712996244196E-016
  -2.2349999999999998E-002     7.1731288223850335E-017
  -2.2300000000000000E-002    -1.9500755114267097E-016
  -2.2249999999999999E-002    -4.5342986788241963E-016
  -2.2200000000000001E-002    -6.3854613144747062E-016
  -2.2150000000000000E-002    -6.9449779150076621E-016
  -2.2100000000000002E-002    -5.8988478419096946E-016
  -2.2050000000000000E-002    -3.2878665318289694E-016
  -2.1999999999999999E-002     4.5884205700930426E-017
  -2.1950000000000001E-002     4.5837696618177982E-016
  -2.1899999999999999E-002     8.1484528475466374E-016
  -2.1850000000000001E-002     1.0239671123419408E-015
  -2.1800000000000000E-002     1.0189043293261073E-015
  -2.1749999999999999E-002     7.7546876376149645E-016
  -2.1700000000000001E-002     3.2199616518701053E-016
  -2.1649999999999999E-002    -2.6187657776285048E-016
  -2.1600000000000001E-002    -8.5799674362889894E-016
  -2.1550000000000000E-002    -1.3320736085964679E-015
  -2.1499999999999998E-002    -1.5616366240673910E-015
  -2.1450000000000000E-002    -1.4642534099513181E-015
  -2.1399999999999999E-002    -1.0202987366876155E-015
  -2.1350000000000001E-002    -2.8508370551980768E-016
  -2.1299999999999999E-002     6.1342476930685982E-016
  -2.1250000000000002E-002     1.4928512414088925E-015
  -2.1200000000000000E-002     2.1493081522107753E-015
  -2.1149999999999999E-002     2.4003274300795296E-015
  -2.1100000000000001E-002     2.1300869276743509E-015
  -2.1049999999999999E-002     1.3269419197420731E-015
  -2.1000000000000001E-002     1.0285123661459264E-016
  -2.0950000000000000E-002    -1.3135914750697075E-015
  -2.0899999999999998E-002    -2.6138919560200145E-015
  -2.0850000000000000E-002    -3.4724574146315169E-015
  -2.0799999999999999E-002    -3.6240336892786332E-015
  -2.0750000000000001E-002    -2.9381676489146140E-015
  -2.0700000000000000E-002    -1.4706627552537107E-015
  -2.0649999999999998E-002     5.2508569428112132E-016
  -2.0600000000000000E-002     2.6356774847990676E-015
  -2.0549999999999999E-002     4.3708329764155386E-015
  -2.0500000000000001E-002     5.2758002744286062E-015
  -2.0449999999999999E-002     5.0469358685758527E-015
  -2.0400000000000001E-002     3.6208325928522351E-015
  -2.0350000000000000E-002     1.2118233242056970E-015
  -2.0299999999999999E-002    -1.7155482843775765E-015
  -2.0250000000000001E-002    -4.5364517246671538E-015
  -2.0199999999999999E-002    -6.5994235110948534E-015
  -2.0150000000000001E-002    -7.3736630918490705E-015
  -2.0100000000000000E-002    -6.5760872177569115E-015
  -2.0049999999999998E-002    -4.2489479615774198E-015
  -2.0000000000000000E-002    -7.7025749278424559E-016
  -1.9949999999999999E-002     3.2059408835402610E-015
  -1.9900000000000001E-002     6.8681610920602915E-015
  -1.9850000000000000E-002     9.4029419803688273E-015
  -1.9799999999999998E-002     1.0159492444312849E-014
  -1.9750000000000000E-002     8.7948220480915443E-015
  -1.9699999999999999E-002     5.3730567112838873E-015
  -1.9650000000000001E-002     3.9758681537026291E-016
  -1.9599999999999999E-002    -5.2380942895198668E-015
  -1.9550000000000001E-002    -1.0384633428625258E-014
  -1.9500000000000000E-002    -1.3845579156474038E-014
  -1.9449999999999999E-002    -1.4632338005035108E-014
  -1.9400000000000001E-002    -1.2218812446691424E-014
  -1.9349999999999999E-002    -6.7361781138437848E-015
  -1.9300000000000001E-002     9.5289738302214885E-016
  -1.9250000000000000E-002     9.3451808726668018E-015
  -1.9199999999999998E-002     1.6563308144290427E-014
  -1.9150000000000000E-002     2.0761766919007886E-014
  -1.9099999999999999E-002     2.0589201983006493E-014
  -1.9050000000000001E-002     1.5591878808068762E-014
  -1.9000000000000000E-002     6.4396905997049986E-015
  -1.8949999999999998E-002    -5.1119298636700013E-015
  -1.8900000000000000E-002    -1.6547347811009943E-014
  -1.8849999999999999E-002    -2.5147443074987387E-014
  -1.8800000000000001E-002    -2.8649932879743635E-014
  -1.8749999999999999E-002    -2.5844479280614714E-014
  -1.8700000000000001E-002    -1.6939431603356322E-014
  -1.8650000000000000E-002    -3.5909296785743045E-015
  -1.8599999999999998E-002     1.1426498755251588E-014
  -1.8550000000000001E-002     2.4831905079854772E-014
  -1.8499999999999999E-002     3.3580727314525023E-014
  -1.8450000000000001E-002     3.5554750741452839E-014
  -1.8400000000000000E-002     3.0036034492568774E-014
  -1.8349999999999998E-002     1.7865141083310289E-014
  -1.8300000000000000E-002     1.2683804311246445E-015
  -1.8249999999999999E-002    -1.6583985912701591E-014
  -1.8200000000000001E-002    -3.2178232498401497E-014
  -1.8149999999999999E-002    -4.2295291871487713E-014
  -1.8100000000000002E-002    -4.4584632346178895E-014
  -1.8050000000000000E-002    -3.8004958777983781E-014
  -1.7999999999999999E-002    -2.3088395807710463E-014
  -1.7950000000000001E-002    -1.9952162921641350E-015
  -1.7899999999999999E-002     2.1675378904463057E-014
  -1.7850000000000001E-002     4.3350190462848993E-014
  -1.7800000000000000E-002     5.8225591990781138E-014
  -1.7749999999999998E-002     6.2229548386040440E-014
  -1.7700000000000000E-002     5.3051152285424220E-014
  -1.7649999999999999E-002     3.0999202911419799E-014
  -1.7600000000000001E-002    -5.8892623861318704E-016
  -1.7550000000000000E-002    -3.5623230279769094E-014
  -1.7499999999999998E-002    -6.6314420061643367E-014
  -1.7450000000000000E-002    -8.4878886994375982E-014
  -1.7399999999999999E-002    -8.5536846417304321E-014
  -1.7350000000000001E-002    -6.6279665839202575E-014
  -1.7299999999999999E-002    -2.9856782747000207E-014
  -1.7250000000000001E-002     1.6415941857375141E-014
  -1.7200000000000000E-002     6.2120084121796592E-014
  -1.7149999999999999E-002     9.6187998038187973E-014
  -1.7100000000000001E-002     1.0973344316217321E-013
  -1.7049999999999999E-002     9.8479883480377949E-014
  -1.7000000000000001E-002     6.4074358011073117E-014
  -1.6950000000000000E-002     1.3868218451697388E-014
  -1.6899999999999998E-002    -4.0814257850808892E-014
  -1.6850000000000000E-002    -8.7454579194733670E-014
  -1.6799999999999999E-002    -1.1539723564206522E-013
  -1.6750000000000001E-002    -1.1835332593730352E-013
  -1.6700000000000000E-002    -9.5714581653298433E-014
  -1.6649999999999998E-002    -5.2423005677225148E-014
  -1.6600000000000000E-002     2.4277419303178951E-015
  -1.6549999999999999E-002     5.7752186839539379E-014
  -1.6500000000000001E-002     1.0276145419141331E-013
  -1.6449999999999999E-002     1.2884650681779204E-013
  -1.6400000000000001E-002     1.3077860384483543E-013
  -1.6350000000000000E-002     1.0723436908568269E-013
  -1.6299999999999999E-002     6.0838370734600199E-014
  -1.6250000000000001E-002    -2.0718580951825346E-015
  -1.6199999999999999E-002    -7.1892450598746094E-014
  -1.6150000000000001E-002    -1.3654652997511967E-013
  -1.6100000000000000E-002    -1.8286693040633197E-013
  -1.6049999999999998E-002    -1.9873267173119329E-013
  -1.6000000000000000E-002    -1.7582838691087489E-013
  -1.5949999999999999E-002    -1.1248530075308027E-013
  -1.5900000000000001E-002    -1.5715507406450487E-014
  -1.5850000000000000E-002     9.8526698523732314E-014
  -1.5799999999999998E-002     2.0751692714189266E-013
  -1.5750000000000000E-002     2.8635078320178247E-013
  -1.5699999999999999E-002     3.1408185405182232E-013
  -1.5650000000000001E-002     2.7980461708635089E-013
  -1.5599999999999999E-002     1.8677781292594358E-013
  -1.5550000000000001E-002     5.3005675611987557E-014
  -1.5500000000000000E-002    -9.2375411132465100E-014
  -1.5449999999999998E-002    -2.1627358812469170E-013
  -1.5400000000000000E-002    -2.9052527925295283E-013
  -1.5349999999999999E-002    -2.9990422551720990E-013
  -1.5300000000000001E-002    -2.4674973689112296E-013
  -1.5250000000000000E-002    -1.5062680287322065E-013
  -1.5199999999999998E-002    -4.2923115934467800E-014
  -1.5150000000000000E-002     4.2115716106594889E-014
  -1.5099999999999999E-002     7.7265402918764653E-014
  -1.5050000000000001E-002     5.0171464211561909E-014
  -1.4999999999999999E-002    -3.3118956347158348E-014
  -1.4949999999999998E-002    -1.4982847043163850E-013
  -1.4900000000000000E-002    -2.6657218225946690E-013
  -1.4849999999999999E-002    -3.4786988691740085E-013
  -1.4800000000000001E-002    -3.6445213139127537E-013
  -1.4749999999999999E-002    -2.9915391363161118E-013
  -1.4700000000000001E-002    -1.4928593033139123E-013
  -1.4650000000000000E-002     7.4277007841591274E-014
  -1.4599999999999998E-002     3.5001377586282511E-013
  -1.4550000000000000E-002     6.4907018928344006E-013
  -1.4499999999999999E-002     9.3780412159268378E-013
  -1.4450000000000001E-002     1.1793742086414832E-012
  -1.4400000000000000E-002     1.3351768054795188E-012
  -1.4349999999999998E-002     1.3674173903704233E-012
  -1.4300000000000000E-002     1.2437876330168004E-012
  -1.4249999999999999E-002     9.4415030298805541E-013
  -1.4200000000000001E-002     4.6777012371957349E-013
  -1.4149999999999999E-002    -1.6141290727292806E-013
  -1.4099999999999998E-002    -8.9406618453482879E-013
  -1.4050000000000000E-002    -1.6608472368546042E-012
  -1.3999999999999999E-002    -2.3834356639297927E-012
  -1.3950000000000001E-002    -2.9884994649960273E-012
  -1.3899999999999999E-002    -3.4202713251723689E-012
  -1.3850000000000001E-002    -3.6471861888681710E-012
  -1.3800000000000000E-002    -3.6595085327443977E-012
  -1.3749999999999998E-002    -3.4577401395218668E-012
  -1.3700000000000000E-002    -3.0348638052115331E-012
  -1.3649999999999999E-002    -2.3581317674166509E-012
  -1.3600000000000001E-002    -1.3568536361955902E-012
  -1.3550000000000000E-002     7.8646978237953013E-014
  -1.3499999999999998E-002     2.0850892632067817E-012
  -1.3450000000000000E-002     4.8036078447783423E-012
  -1.3399999999999999E-002     8.3523743211148122E-012
  -1.3350000000000001E-002     1.2802184347118025E-011
  -1.3299999999999999E-002     1.8162017321609722E-011
  -1.3249999999999998E-002     2.4378569411855054E-011
  -1.3200000000000000E-002     3.1349387693021470E-011
  -1.3149999999999998E-002     3.8945144850526021E-011
  -1.3100000000000001E-002     4.7034083220262483E-011
  -1.3049999999999999E-002     5.5501684970762809E-011
  -1.3000000000000001E-002     6.4260810288234221E-011
  -1.2950000000000000E-002     7.3251503657564359E-011
  -1.2899999999999998E-002     8.2433198443197366E-011
  -1.2850000000000000E-002     9.1774395319101071E-011
  -1.2799999999999999E-002     1.0124488088896374E-010