  -4.0000000000000001E-002     0.0000000000000000     
  -3.9949999999999999E-002     0.0000000000000000     
  -3.9899999999999998E-002     0.0000000000000000     
  -3.9850000000000003E-002     0.0000000000000000     
  -3.9800000000000002E-002     0.0000000000000000     
  -3.9750000000000001E-002     0.0000000000000000     
  -3.9699999999999999E-002     0.0000000000000000     
  -3.9649999999999998E-002     0.0000000000000000     
  -3.9600000000000003E-002     0.0000000000000000     
  -3.9550000000000002E-002     7.6343744827810836E-027
  -3.9500000000000000E-002     3.6502698071596883E-026
  -3.9449999999999999E-002    -1.8274567904889625E-025
  -3.9399999999999998E-002    -2.5682680479493394E-024
  -3.9350000000000003E-002    -1.3326493970478330E-023
  -3.9300000000000002E-002    -4.2802838050262517E-023
  -3.9250000000000000E-002    -9.2009453530605624E-023
  -3.9199999999999999E-002    -1.1865521881983244E-022
  -3.9150000000000004E-002    -2.5415644495366637E-024
  -3.9100000000000003E-002     4.3616616485584420E-022
  -3.9050000000000001E-002     1.3372350788504234E-021
  -3.9000000000000000E-002     2.7138649324499055E-021
  -3.8949999999999999E-002     4.5556457020228575E-021
  -3.8900000000000004E-002     7.0056042978630705E-021
  -3.8850000000000003E-002     9.7244732048590721E-021
  -3.8800000000000001E-002     9.1160411438726451E-021
  -3.8750000000000000E-002    -6.2710411446528586E-021
  -3.8699999999999998E-002    -5.7197011502182722E-020
  -3.8650000000000004E-002    -1.6228543946186599E-019
  -3.8600000000000002E-002    -3.0659023191068519E-019
  -3.8550000000000001E-002    -4.0024692578793578E-019
  -3.8500000000000000E-002    -2.6459538045856027E-019
  -3.8449999999999998E-002     3.0229539887044919E-019
  -3.8400000000000004E-002     1.3586695664485518E-018
  -3.8350000000000002E-002     2.6132793067313206E-018
  -3.8300000000000001E-002     3.3403149383641646E-018
  -3.8249999999999999E-002     2.5931381193271369E-018
  -3.8199999999999998E-002    -2.4377882206625335E-019
  -3.8150000000000003E-002    -4.7972134657150602E-018
  -3.8100000000000002E-002    -9.4108446071795235E-018
  -3.8050000000000000E-002    -1.1648303511712550E-017
  -3.7999999999999999E-002    -9.6037353450168132E-018
  -3.7949999999999998E-002    -3.3842734711426650E-018
  -3.7900000000000003E-002     4.3022426265798260E-018
  -3.7850000000000002E-002     9.2924415770855052E-018
  -3.7800000000000000E-002     8.7068004885353284E-018
  -3.7749999999999999E-002     3.8794671567006891E-018
  -3.7699999999999997E-002     1.3468495810660808E-018
  -3.7650000000000003E-002     1.0262051787356837E-017
  -3.7600000000000001E-002     3.6380987308130755E-017
  -3.7550000000000000E-002     7.5088620524421694E-017
  -3.7499999999999999E-002     1.0758195803252714E-016
  -3.7449999999999997E-002     1.0417687085017807E-016
  -3.7400000000000003E-002     3.6268399717467335E-017
  -3.7350000000000001E-002    -1.0578809721839937E-016
  -3.7300000000000000E-002    -2.9620361917764801E-016
  -3.7249999999999998E-002    -4.6864999584456763E-016
  -3.7200000000000004E-002    -5.3076607423488298E-016
  -3.7150000000000002E-002    -3.9931241292928068E-016
  -3.7100000000000001E-002    -4.5916971164394114E-017
  -3.7050000000000000E-002     4.6675851475134334E-016
  -3.6999999999999998E-002     9.8116521966594916E-016
  -3.6950000000000004E-002     1.2865404812809400E-015
  -3.6900000000000002E-002     1.1991330431018311E-015
  -3.6850000000000001E-002     6.5172559745186730E-016
  -3.6799999999999999E-002    -2.4884021680806552E-016
  -3.6749999999999998E-002    -1.2301031562004998E-015
  -3.6700000000000003E-002    -1.9360846510163247E-015
  -3.6650000000000002E-002    -2.0568603591657579E-015
  -3.6600000000000001E-002    -1.4548178874033253E-015
  -3.6549999999999999E-002    -2.3476265347965777E-016
  -3.6499999999999998E-002     1.2724350141705332E-015
  -3.6450000000000003E-002     2.6064095351337953E-015
  -3.6400000000000002E-002     3.3150463632761070E-015
  -3.6350000000000000E-002     3.0811371852693446E-015
  -3.6299999999999999E-002     1.7980348986903896E-015
  -3.6249999999999998E-002    -4.1480694087512510E-016
  -3.6200000000000003E-002    -3.2338064552852437E-015
  -3.6150000000000002E-002    -6.1554793817980117E-015
  -3.6100000000000000E-002    -8.5054026113407378E-015
  -3.6049999999999999E-002    -9.4560629841108129E-015
  -3.6000000000000004E-002    -8.1173332768249531E-015
  -3.5950000000000003E-002    -3.7659676317907375E-015
  -3.5900000000000001E-002     3.7765276530421911E-015
  -3.5850000000000000E-002     1.3714752414721667E-014
  -3.5799999999999998E-002     2.4002954935580139E-014
  -3.5750000000000004E-002     3.1463079244541201E-014
  -3.5700000000000003E-002     3.2455676231905514E-014
  -3.5650000000000001E-002     2.4057949104830234E-014
  -3.5600000000000000E-002     5.4454952622317805E-015
  -3.5549999999999998E-002    -2.1026379374898498E-014
  -3.5500000000000004E-002    -4.9581724630319472E-014
  -3.5450000000000002E-002    -7.1979822329384662E-014
  -3.5400000000000001E-002    -7.9648989417009803E-014
  -3.5349999999999999E-002    -6.6521278361030549E-014
  -3.5299999999999998E-002    -3.1709054623600482E-014
  -3.5250000000000004E-002     1.8979505246548384E-014
  -3.5200000000000002E-002     7.3489342260093678E-014
  -3.5150000000000001E-002     1.1619299687048337E-013
  -3.5099999999999999E-002     1.3229983363008332E-013
  -3.5049999999999998E-002     1.1279333301708187E-013
  -3.5000000000000003E-002     5.8290820762357679E-014
  -3.4950000000000002E-002    -1.9656371494502285E-014
  -3.4900000000000000E-002    -1.0062753249874408E-013
  -3.4849999999999999E-002    -1.6051878639767709E-013
  -3.4799999999999998E-002    -1.7852996166075057E-013
  -3.4750000000000003E-002    -1.4390548382203578E-013
  -3.4700000000000002E-002    -6.0284761131852096E-014
  -3.4650000000000000E-002     5.3880091011080311E-014
  -3.4599999999999999E-002     1.6924498710877189E-013
  -3.4549999999999997E-002     2.5292114591610022E-013
  -3.4500000000000003E-002     2.7726707929129848E-013
  -3.4450000000000001E-002     2.2767863757887581E-013
  -3.4400000000000000E-002     1.0722891875294796E-013
  -3.4349999999999999E-002    -6.3044518747885182E-014
  -3.4299999999999997E-002    -2.4816953013577688E-013
  -3.4250000000000003E-002    -4.0645834048823673E-013
  -3.4200000000000001E-002    -4.9818295409494640E-013
  -3.4150000000000000E-002    -4.9393564365638644E-013
  -3.4099999999999998E-002    -3.8126124275105546E-013
  -3.4049999999999997E-002    -1.6860282579787136E-013
  -3.4000000000000002E-002     1.1405848144797814E-013
  -3.3950000000000001E-002     4.1828502096059331E-013
  -3.3900000000000000E-002     6.8414838034699094E-013
  -3.3849999999999998E-002     8.5072547878222142E-013
  -3.3799999999999997E-002     8.6891454921509807E-013
  -3.3750000000000002E-002     7.1431808271682350E-013
  -3.3700000000000001E-002     3.9709324818269362E-013
  -3.3649999999999999E-002    -3.4521139938162504E-014
  -3.3599999999999998E-002    -4.9948334969490094E-013
  -3.3550000000000003E-002    -8.9862794834282503E-013
  -3.3500000000000002E-002    -1.1366849865958597E-012
  -3.3450000000000001E-002    -1.1468841454291381E-012
  -3.3399999999999999E-002    -9.1159109779094388E-013
  -3.3349999999999998E-002    -4.7240172980197296E-013
  -3.3300000000000003E-002     7.4745674290714624E-014
  -3.3250000000000002E-002     5.9993289152178960E-013
  -3.3200000000000000E-002     9.7095017793534584E-013
  -3.3149999999999999E-002     1.0883160230183835E-012
  -3.3099999999999997E-002     9.1394710133703618E-013
  -3.3050000000000003E-002     4.8497327674361310E-013
  -3.3000000000000002E-002    -9.2007968307756415E-014
  -3.2950000000000000E-002    -6.6556616322016914E-013
  -3.2899999999999999E-002    -1.0769380217247850E-012
  -3.2850000000000004E-002    -1.2006426345294433E-012
  -3.2800000000000003E-002    -9.7750723818383963E-013
  -3.2750000000000001E-002    -4.3152826138386202E-013
  -3.2700000000000000E-002     3.3348132730896751E-013
  -3.2649999999999998E-002     1.1560587033686368E-012
  -3.2600000000000004E-002     1.8520438609984584E-012
  -3.2550000000000003E-002     2.2538009471349425E-012
  -3.2500000000000001E-002     2.2452370022066825E-012
  -3.2450000000000000E-002     1.7861155923599542E-012
  -3.2399999999999998E-002     9.2193257567900882E-013
  -3.2350000000000004E-002    -2.2175693226340096E-013
  -3.2300000000000002E-002    -1.4595621766140208E-012
  -3.2250000000000001E-002    -2.5782470191537873E-012
  -3.2199999999999999E-002    -3.3757958833680219E-012
  -3.2149999999999998E-002    -3.7009907940617229E-012
  -3.2100000000000004E-002    -3.4855419772139247E-012
  -3.2050000000000002E-002    -2.7609759684539292E-012
  -3.2000000000000001E-002    -1.6547364407158842E-012
  -3.1949999999999999E-002    -3.6437645331220452E-013
  -3.1899999999999998E-002     8.8562627367942231E-013
  -3.1850000000000003E-002     1.8945735568333355E-012
  -3.1800000000000002E-002     2.5308115539655700E-012
  -3.1750000000000000E-002     2.7589872628890707E-012
  -3.1699999999999999E-002     2.6411790251787563E-012
  -3.1649999999999998E-002     2.3111583073938567E-012
  -3.1600000000000003E-002     1.9291164292766107E-012
  -3.1550000000000002E-002     1.6301794644154788E-012
  -3.1500000000000000E-002     1.4817977596318073E-012
  -3.1449999999999999E-002     1.4620222320558804E-012
  -3.1399999999999997E-002     1.4641067453314900E-012
  -3.1350000000000003E-002     1.3252964787026026E-012
  -3.1300000000000001E-002     8.7159061600785757E-013
  -3.1250000000000000E-002    -3.2751394504539002E-014
  -3.1199999999999999E-002    -1.4419334214624499E-012
  -3.1150000000000001E-002    -3.2998249079856763E-012
  -3.1100000000000003E-002    -5.4298109622770437E-012
  -3.1050000000000001E-002    -7.5432269757355314E-012
  -3.1000000000000000E-002    -9.2628679557200946E-012
  -3.0949999999999998E-002    -1.0156192684963733E-011
  -3.0900000000000000E-002    -9.7728000808138427E-012
  -3.0850000000000002E-002    -7.6820983232346528E-012
  -3.0800000000000001E-002    -3.5087460463182103E-012
  -3.0750000000000000E-002     3.0359138716767639E-012
  -3.0699999999999998E-002     1.2128857077814574E-011
  -3.0650000000000000E-002     2.3820691436406939E-011
  -3.0600000000000002E-002     3.8035737315991873E-011
  -3.0550000000000001E-002     5.4589274080919884E-011
  -3.0499999999999999E-002     7.3220310338780536E-011
  -3.0449999999999998E-002     9.3632304969473749E-011
  -3.0400000000000000E-002     1.1553022855671410E-010
  -3.0350000000000002E-002     1.3864155602445957E-010
  -3.0300000000000001E-002     1.6271288110122209E-010
  -3.0249999999999999E-002     1.8748272218527208E-010
  -3.0200000000000001E-002     2.1264112021164086E-010
  -3.0150000000000000E-002     2.3779545830835401E-010
  -3.0100000000000002E-002     2.6246377046316622E-010
  -3.0050000000000000E-002     2.8611027382822162E-010
  -2.9999999999999999E-002     3.0822291269198308E-010
  -2.9950000000000001E-002     3.2841549616499604E-010
  -2.9899999999999999E-002     3.4652281374002074E-010
  -2.9850000000000002E-002     3.6265534611143297E-010
  -2.9800000000000000E-002     3.7719118842757261E-010
  -2.9749999999999999E-002     3.9070441611077155E-010
  -2.9700000000000001E-002     4.0385108840830071E-010
  -2.9650000000000003E-002     4.1724881636235187E-010
  -2.9600000000000001E-002     4.3138449860138089E-010
  -2.9550000000000000E-002     4.4657048027712630E-010
  -2.9499999999999998E-002     4.6294990993509770E-010
  -2.9450000000000000E-002     4.8053290366310905E-010
  -2.9400000000000003E-002     4.9923919449409650E-010
  -2.9350000000000001E-002     5.1892746865464997E-010
  -2.9300000000000000E-002     5.3940638685445293E-010
  -2.9249999999999998E-002     5.6043709259106701E-010
  -2.9200000000000000E-002     5.8174535129270954E-010
  -2.9150000000000002E-002     6.0305574101670944E-010
  -2.9100000000000001E-002     6.2414644997716533E-010
  -2.9049999999999999E-002     6.4490539262692704E-010
  -2.8999999999999998E-002     6.6536118512141840E-010
  -2.8950000000000000E-002     6.8566955492903778E-010
  -2.8900000000000002E-002     7.0605639128856147E-010
  -2.8850000000000001E-002     7.2674353470052654E-010
  -2.8799999999999999E-002     7.4789571777259620E-010
  -2.8749999999999998E-002     7.6961825585956024E-010
  -2.8700000000000000E-002     7.9200839763233565E-010
  -2.8650000000000002E-002     8.1523125667263757E-010
  -2.8600000000000000E-002     8.3957172360213131E-010
  -2.8549999999999999E-002     8.6541997288347693E-010
  -2.8500000000000001E-002     8.9317675379666700E-010
  -2.8450000000000000E-002     9.2310956644431583E-010
  -2.8400000000000002E-002     9.5522077675357676E-010
  -2.8350000000000000E-002     9.8919138274055351E-010
  -2.8299999999999999E-002     1.0244383850482713E-009
  -2.8250000000000001E-002     1.0602705471152112E-009
  -2.8200000000000003E-002     1.0960822880913559E-009
  -2.8150000000000001E-002     1.1315071650174540E-009
  -2.8100000000000000E-002     1.1664650276005554E-009
  -2.8049999999999999E-002     1.2010948410728964E-009
  -2.8000000000000001E-002     1.2356175782387802E-009
  -2.7950000000000003E-002     1.2702126973618587E-009
  -2.7900000000000001E-002     1.3049799719724869E-009
  -2.7850000000000000E-002     1.3400115086664013E-009
  -2.7799999999999998E-002     1.3755308654692469E-009
  -2.7750000000000000E-002     1.4120095211134189E-009
  -2.7700000000000002E-002     1.4501762744219977E-009
  -2.7650000000000001E-002     1.4908845989234868E-009
  -2.7600000000000000E-002     1.5348830482480655E-009
  -2.7549999999999998E-002     1.5825963447847466E-009
  -2.7500000000000000E-002     1.6340255414292043E-009
  -2.7450000000000002E-002     1.6888267932154188E-009
  -2.7400000000000001E-002     1.7465372719998498E-009
  -2.7349999999999999E-002     1.8068406078040873E-009
  -2.7299999999999998E-002     1.8697389258402760E-009
  -2.7250000000000000E-002     1.9355395186432080E-009
  -2.7200000000000002E-002     2.0046566608629123E-009
  -2.7150000000000001E-002     2.0773285909136268E-009
  -2.7099999999999999E-002     2.1533880864697165E-009
  -2.7049999999999998E-002     2.2322195117372572E-009
  -2.7000000000000000E-002     2.3129341396085372E-009
  -2.6950000000000002E-002     2.3946878189993997E-009
  -2.6900000000000000E-002     2.4769922000254429E-009
  -2.6849999999999999E-002     2.5598636760409276E-009
  -2.6800000000000001E-002     2.6437350257812223E-009
  -2.6749999999999999E-002     2.7291795247913988E-009
  -2.6700000000000002E-002     2.8165916222562433E-009
  -2.6650000000000000E-002     2.9059896902987163E-009
  -2.6599999999999999E-002     2.9970447106056587E-009
  -2.6550000000000001E-002     3.0893081341008410E-009
  -2.6500000000000003E-002     3.1825104079257110E-009
  -2.6450000000000001E-002     3.2767611657792520E-009
  -2.6400000000000000E-002     3.3725373199085511E-009
  -2.6349999999999998E-002     3.4704690417509335E-009
  -2.6300000000000000E-002     3.5710344345771029E-009
  -2.6250000000000002E-002     3.6743401976198966E-009
  -2.6200000000000001E-002     3.7801228497202079E-009
  -2.6150000000000000E-002     3.8879867252154848E-009
  -2.6099999999999998E-002     3.9977748365937918E-009
  -2.6050000000000000E-002     4.1098889248027570E-009
  -2.6000000000000002E-002     4.2253893813766057E-009
  -2.5950000000000001E-002     4.3458150874243238E-009
  -2.5899999999999999E-002     4.4727935538785880E-009
  -2.5849999999999998E-002     4.6076299990773017E-009
  -2.5800000000000000E-002     4.7510638143460410E-009
  -2.5750000000000002E-002     4.9033047203569385E-009
  -2.5700000000000001E-002     5.0643091643407707E-009
  -2.5649999999999999E-002     5.2341343753809135E-009
  -2.5599999999999998E-002     5.4131809125558820E-009
  -2.5550000000000000E-002     5.6021915830818298E-009
  -2.5500000000000002E-002     5.8020150666268881E-009
  -2.5450000000000000E-002     6.0132676696301647E-009
  -2.5399999999999999E-002     6.2360793645039222E-009
  -2.5349999999999998E-002     6.4700462817865625E-009
  -2.5300000000000000E-002     6.7143897169937175E-009
  -2.5250000000000002E-002     6.9681984643037804E-009
  -2.5200000000000000E-002     7.2305962790131696E-009
  -2.5149999999999999E-002     7.5007158215311482E-009
  -2.5100000000000001E-002     7.7774949495760523E-009
  -2.5049999999999999E-002     8.0594190720280430E-009
  -2.5000000000000001E-002     8.3444098621162447E-009
  -2.4950000000000000E-002     8.6299712632057103E-009
  -2.4899999999999999E-002     8.9136012164322587E-009
  -2.4850000000000001E-002     9.1933155599568645E-009
  -2.4800000000000003E-002     9.4680531288518029E-009
  -2.4750000000000001E-002     9.7377901561383545E-009
  -2.4700000000000000E-002     1.0003312233553394E-008
  -2.4649999999999998E-002     1.0265789983200858E-008
  -2.4600000000000000E-002     1.0526384498022154E-008
  -2.4550000000000002E-002     1.0786111488068709E-008
  -2.4500000000000001E-002     1.1046029376978337E-008
  -2.4450000000000000E-002     1.1307652551120537E-008
  -2.4399999999999998E-002     1.1573333182159647E-008
  -2.4350000000000000E-002     1.1846389607909571E-008
  -2.4299999999999999E-002     1.2130865732963548E-008
  -2.4250000000000001E-002     1.2431008362259964E-008
  -2.4199999999999999E-002     1.2750732658224962E-008
  -2.4150000000000001E-002     1.3093307009806476E-008
  -2.4100000000000000E-002     1.3461436816322581E-008
  -2.4049999999999998E-002     1.3857644712379011E-008
  -2.4000000000000000E-002     1.4284723235808116E-008
  -2.3949999999999999E-002     1.4745975667874243E-008
  -2.3900000000000001E-002     1.5245082688764399E-008
  -2.3850000000000000E-002     1.5785637280483731E-008
  -2.3800000000000002E-002     1.6370587123589868E-008
  -2.3750000000000000E-002     1.7001893195420710E-008
  -2.3699999999999999E-002     1.7680593935282204E-008
  -2.3650000000000001E-002     1.8407239468633387E-008
  -2.3599999999999999E-002     1.9182489985005932E-008
  -2.3550000000000001E-002     2.0007511829305516E-008
  -2.3500000000000000E-002     2.0883928251899287E-008
  -2.3449999999999999E-002     2.1813275108136981E-008
  -2.3400000000000001E-002     2.2796157037739409E-008
  -2.3349999999999999E-002     2.3831467472629671E-008
  -2.3300000000000001E-002     2.4916016362324783E-008
  -2.3250000000000000E-002     2.6044719085428658E-008
  -2.3199999999999998E-002     2.7211255835708610E-008
  -2.3150000000000000E-002     2.8408882936445840E-008
  -2.3099999999999999E-002     2.9631011227286213E-008
  -2.3050000000000001E-002     3.0871422016110720E-008
  -2.3000000000000000E-002     3.2124123362127946E-008
  -2.2950000000000002E-002     3.3383076893018286E-008
  -2.2900000000000000E-002     3.4642136684865582E-008
  -2.2849999999999999E-002     3.5895302679961524E-008
  -2.2800000000000001E-002     3.7137231476069072E-008
  -2.2749999999999999E-002     3.8363815090061416E-008
  -2.2700000000000001E-002     3.9572502678109405E-008
  -2.2650000000000000E-002     4.0762243471221223E-008
  -2.2599999999999999E-002     4.1933076142467309E-008
  -2.2550000000000001E-002     4.3085539762704876E-008
  -2.2499999999999999E-002     4.4220238721743537E-008
  -2.2450000000000001E-002     4.5337747803016550E-008
  -2.2400000000000000E-002     4.6438796803594766E-008
  -2.2349999999999998E-002     4.7524654191093954E-008
  -2.2300000000000000E-002     4.8597458348440412E-008
  -2.2249999999999999E-002     4.9660239835427222E-008
  -2.2200000000000001E-002     5.0716622536188342E-008
  -2.2150000000000000E-002     5.1770408792418345E-008
  -2.2100000000000002E-002     5.2825193795102731E-008
  -2.2050000000000000E-002     5.3884290820879721E-008
  -2.1999999999999999E-002     5.4951004739087745E-008
  -2.1950000000000001E-002     5.6028994552524816E-008
  -2.1899999999999999E-002     5.7122537854061590E-008
  -2.1850000000000001E-002     5.8236422625889044E-008
  -2.1800000000000000E-002     5.9375493008417816E-008
  -2.1749999999999999E-002     6.0544123884906211E-008
  -2.1700000000000001E-002     6.1745865236177789E-008
  -2.1649999999999999E-002     6.2983584529544170E-008
  -2.1600000000000001E-002     6.4259987247357391E-008
  -2.1550000000000000E-002     6.5578293420138437E-008
  -2.1499999999999998E-002     6.6942676589106315E-008
  -2.1450000000000000E-002     6.8358146134754587E-008
  -2.1399999999999999E-002     6.9829782407017450E-008
  -2.1350000000000001E-002     7.1361682778833863E-008
  -2.1299999999999999E-002     7.2955990573741789E-008
  -2.1250000000000002E-002     7.4612479368862596E-008
  -2.1200000000000000E-002     7.6328902403453264E-008
  -2.1149999999999999E-002     7.8101847730825209E-008
  -2.1100000000000001E-002     7.9927889169356476E-008
  -2.1049999999999999E-002     8.1804514987137908E-008
  -2.1000000000000001E-002     8.3730423818295470E-008
  -2.0950000000000000E-002     8.5705245794537764E-008
  -2.0899999999999998E-002     8.7728967313625930E-008
  -2.0850000000000000E-002     8.9801344098672114E-008
  -2.0799999999999999E-002     9.1921948814428178E-008
  -2.0750000000000001E-002     9.4090670076175168E-008
  -2.0700000000000000E-002     9.6308525413299923E-008
  -2.0649999999999998E-002     9.8578298703018281E-008
  -2.0600000000000000E-002     1.0090458790883880E-007
  -2.0549999999999999E-002     1.0329309912152349E-007
  -2.0500000000000001E-002     1.0574957761162942E-007
  -2.0449999999999999E-002     1.0827868970335437E-007
  -2.0400000000000001E-002     1.1088336412909298E-007
  -2.0350000000000000E-002     1.1356484502248954E-007
  -2.0299999999999999E-002     1.1632325295931232E-007
  -2.0250000000000001E-002     1.1915832856011995E-007
  -2.0199999999999999E-002     1.2206994845786615E-007
  -2.0150000000000001E-002     1.2505823543232454E-007
  -2.0100000000000000E-002     1.2812327350416150E-007
  -2.0049999999999998E-002     1.3126462308404569E-007
  -2.0000000000000000E-002     1.3448097226155467E-007
  -1.9949999999999999E-002     1.3777015067131841E-007
  -1.9900000000000001E-002     1.4112951688040232E-007
  -1.9850000000000000E-002     1.4455670123445159E-007
  -1.9799999999999998E-002     1.4805032001462853E-007
  -1.9750000000000000E-002     1.5161042096319569E-007
  -1.9699999999999999E-002     1.5523844646737413E-007
  -1.9650000000000001E-002     1.5893692563942187E-007
  -1.9599999999999999E-002     1.6270891226920240E-007
  -1.9550000000000001E-002     1.6655750878345406E-007
  -1.9500000000000000E-002     1.7048558450407974E-007
  -1.9449999999999999E-002     1.7449567585108850E-007
  -1.9400000000000001E-002     1.7858974417131790E-007
  -1.9349999999999999E-002     1.8276904964429829E-007
  -1.9300000000000001E-002     1.8703394975526030E-007
  -1.9250000000000000E-002     1.9138403589353800E-007
  -1.9199999999999998E-002     1.9581843210476976E-007
  -1.9150000000000000E-002     2.0033629175860032E-007
  -1.9099999999999999E-002     2.0493725417244127E-007
  -1.9050000000000001E-002     2.0962174024600670E-007
  -1.9000000000000000E-002     2.1439102861699561E-007
  -1.8949999999999998E-002     2.1924697295442252E-007
  -1.8900000000000000E-002     2.2419194794091058E-007
  -1.8849999999999999E-002     2.2922894235444848E-007
  -1.8800000000000001E-002     2.3436206837985169E-007
  -1.8749999999999999E-002     2.3959719826047862E-007
  -1.8700000000000001E-002     2.4494231408370851E-007
  -1.8650000000000000E-002     2.5040736065291490E-007
  -1.8599999999999998E-002     2.5600373561106689E-007
  -1.8550000000000001E-002     2.6174285802363900E-007
  -1.8499999999999999E-002     2.6763458005106355E-007
  -1.8450000000000001E-002     2.7368567478207848E-007
  -1.8400000000000000E-002     2.7989884408677556E-007
  -1.8349999999999998E-002     2.8627309734030834E-007
  -1.8300000000000000E-002     2.9280478553210194E-007
  -1.8249999999999999E-002     2.9948931990995877E-007
  -1.8200000000000001E-002     3.0632288620567743E-007
  -1.8149999999999999E-002     3.1330291656200130E-007
  -1.8100000000000002E-002     3.2042818835765311E-007
  -1.8050000000000000E-002     3.2769801394809334E-007
  -1.7999999999999999E-002     3.3511161802802957E-007
  -1.7950000000000001E-002     3.4266796833043970E-007
  -1.7899999999999999E-002     3.5036597980837977E-007
  -1.7850000000000001E-002     3.5820545984444804E-007
  -1.7800000000000000E-002     3.6618741938048125E-007
  -1.7749999999999998E-002     3.7431445743948388E-007
  -1.7700000000000000E-002     3.8259056857918528E-007
  -1.7649999999999999E-002     3.9102043493344021E-007
  -1.7600000000000001E-002     3.9960845235592654E-007
  -1.7550000000000000E-002     4.0835801010217263E-007
  -1.7499999999999998E-002     4.1727088452954431E-007
  -1.7450000000000000E-002     4.2634746568972005E-007
  -1.7399999999999999E-002     4.3558757019088239E-007
  -1.7350000000000001E-002     4.4499111963846511E-007
  -1.7299999999999999E-002     4.5455899801246852E-007
  -1.7250000000000001E-002     4.6429319936522064E-007
  -1.7200000000000000E-002     4.7419647660487277E-007
  -1.7149999999999999E-002     4.8427223895948891E-007
  -1.7100000000000001E-002     4.9452413072776452E-007
  -1.7049999999999999E-002     5.0495591910752883E-007
  -1.7000000000000001E-002     5.1557173468155357E-007
  -1.6950000000000000E-002     5.2637628409148771E-007
  -1.6899999999999998E-002     5.3737497016267604E-007
  -1.6850000000000000E-002     5.4857323931975212E-007
  -1.6799999999999999E-002     5.5997694419072021E-007
  -1.6750000000000001E-002     5.7159263830596454E-007
  -1.6700000000000000E-002     5.8342781201519416E-007
  -1.6649999999999998E-002     5.9549114346747262E-007
  -1.6600000000000000E-002     6.0779268084251683E-007
  -1.6549999999999999E-002     6.2034253236115106E-007
  -1.6500000000000001E-002     6.3314983412732118E-007
  -1.6449999999999999E-002     6.4622150062283509E-007
  -1.6400000000000001E-002     6.5956189397933562E-007
  -1.6350000000000000E-002     6.7317261206851939E-007
  -1.6299999999999999E-002     6.8705216685721415E-007
  -1.6250000000000001E-002     7.0119727978662439E-007
  -1.6199999999999999E-002     7.1560333286399837E-007
  -1.6150000000000001E-002     7.3026609065612489E-007
  -1.6100000000000000E-002     7.4518227491759539E-007
  -1.6049999999999998E-002     7.6035029794854770E-007
  -1.6000000000000000E-002     7.7577029903200746E-007
  -1.5949999999999999E-002     7.9144387213687000E-007
  -1.5900000000000001E-002     8.0737382950086067E-007
  -1.5850000000000000E-002     8.2356413666460954E-007
  -1.5799999999999998E-002     8.4001982956321448E-007
  -1.5750000000000000E-002     8.5674703933226715E-007
  -1.5699999999999999E-002     8.7375231090842803E-007
  -1.5650000000000001E-002     8.9104215022804862E-007
  -1.5599999999999999E-002     9.0862214812360831E-007
  -1.5550000000000001E-002     9.2649616997758308E-007
  -1.5500000000000000E-002     9.4466696398841561E-007
  -1.5449999999999998E-002     9.6313709329627510E-007
  -1.5400000000000000E-002     9.8190961282852274E-007
  -1.5349999999999999E-002     1.0009878436480364E-006
  -1.5300000000000001E-002     1.0203740186848854E-006
  -1.5250000000000000E-002     1.0400691276698556E-006
  -1.5199999999999998E-002     1.0600723432152666E-006
  -1.5150000000000000E-002     1.0803825856940830E-006
  -1.5099999999999999E-002     1.1009993785440740E-006
  -1.5050000000000001E-002     1.1219232313749496E-006
  -1.4999999999999999E-002     1.1431571683651944E-006
  -1.4949999999999998E-002     1.1647068567259648E-006
  -1.4900000000000000E-002     1.1865804146497760E-006
  -1.4849999999999999E-002     1.2087877324693212E-006
  -1.4800000000000001E-002     1.2313389585051447E-006
  -1.4749999999999999E-002     1.2542434792734469E-006
  -1.4700000000000001E-002     1.2775091879324084E-006
  -1.4650000000000000E-002     1.3011428968041149E-006
  -1.4599999999999998E-002     1.3251504698050839E-006
  -1.4550000000000000E-002     1.3495382202190348E-006
  -1.4499999999999999E-002     1.3743140409410314E-006
  -1.4450000000000001E-002     1.3994857051219457E-006
  -1.4400000000000000E-002     1.4250594920166122E-006
  -1.4349999999999998E-002     1.4510379621316387E-006
  -1.4300000000000000E-002     1.4774192752934683E-006
  -1.4249999999999999E-002     1.5041984895714481E-006
  -1.4200000000000001E-002     1.5313692731706332E-006
  -1.4149999999999999E-002     1.5589265549055976E-006
  -1.4099999999999998E-002     1.5868672389613959E-006
  -1.4050000000000000E-002     1.6151911353519464E-006
  -1.3999999999999999E-002     1.6439012496066893E-006
  -1.3950000000000001E-002     1.6730034203581154E-006
  -1.3899999999999999E-002     1.7025050256446684E-006
  -1.3850000000000001E-002     1.7324152275947730E-006
  -1.3800000000000000E-002     1.7627428338576868E-006
  -1.3749999999999998E-002     1.7934956517257000E-006
  -1.3700000000000000E-002     1.8246792178794370E-006
  -1.3649999999999999E-002     1.8562976387709326E-006
  -1.3600000000000001E-002     1.8883541525282387E-006
  -1.3550000000000000E-002     1.9208515056521021E-006
  -1.3499999999999998E-002     1.9537897342757965E-006
  -1.3450000000000000E-002     1.9871676654564874E-006
  -1.3399999999999999E-002     2.0209821610544631E-006
  -1.3350000000000001E-002     2.0552288701406991E-006
  -1.3299999999999999E-002     2.0899038092351836E-006
  -1.3249999999999998E-002     2.1250041018836971E-006
  -1.3200000000000000E-002     2.1605288501475923E-006
  -1.3149999999999998E-002     2.1964776865671620E-006
  -1.3100000000000001E-002     2.2328504003815705E-006
  -1.3049999999999999E-002     2.2696478246467394E-006
  -1.3000000000000001E-002     2.3068718131714505E-006
  -1.2950000000000000E-002     2.3445264403761355E-006
  -1.2899999999999998E-002     2.3826174378655452E-006
  -1.2850000000000000E-002     2.4211525910336029E-006
  -1.2799999999999999E-002     2.4601389781978086E-006