  -4.0000000000000001E-002     0.0000000000000000     
  -3.9949999999999999E-002     0.0000000000000000     
  -3.9899999999999998E-002     0.0000000000000000     
  -3.9850000000000003E-002     0.0000000000000000     
  -3.9800000000000002E-002     0.0000000000000000     
  -3.9750000000000001E-002     0.0000000000000000     
  -3.9699999999999999E-002     0.0000000000000000     
  -3.9649999999999998E-002     0.0000000000000000     
  -3.9600000000000003E-002     0.0000000000000000     
  -3.9550000000000002E-002    -9.2514129499829466E-027
  -3.9500000000000000E-002    -1.0926742372853276E-025
  -3.9449999999999999E-002    -5.7673489549964577E-025
  -3.9399999999999998E-002    -1.5377741472961448E-024
  -3.9350000000000003E-002    -3.6240340077728644E-025
  -3.9300000000000002E-002     1.4675772935782421E-023
  -3.9250000000000000E-002     6.7054710849397837E-023
  -3.9199999999999999E-002     1.6094889126958401E-022
  -3.9150000000000004E-002     1.6965489263495636E-022
  -3.9100000000000003E-002    -3.4821055438847039E-022
  -3.9050000000000001E-002    -2.1927008551725826E-021
  -3.9000000000000000E-002    -5.9189885129613118E-021
  -3.8949999999999999E-002    -1.0059916498067026E-020
  -3.8900000000000004E-002    -8.5270114359682286E-021
  -3.8850000000000003E-002     1.0414781968884523E-020
  -3.8800000000000001E-002     5.9093963251143390E-020
  -3.8750000000000000E-002     1.3553043396213190E-019
  -3.8699999999999998E-002     2.0168874663662680E-019
  -3.8650000000000004E-002     1.7033988678019997E-019
  -3.8600000000000002E-002    -7.3644711662122386E-020
  -3.8550000000000001E-002    -5.9757951656271450E-019
  -3.8500000000000000E-002    -1.3038911607341852E-018
  -3.8449999999999998E-002    -1.8378766315678230E-018
  -3.8400000000000004E-002    -1.6256371791173524E-018
  -3.8350000000000002E-002    -1.2357114691659348E-019
  -3.8300000000000001E-002     2.7543235685922709E-018
  -3.8249999999999999E-002     6.2365932610996668E-018
  -3.8199999999999998E-002     8.6463696257403476E-018
  -3.8150000000000003E-002     7.9634820978239850E-018
  -3.8100000000000002E-002     2.9455228366489220E-018
  -3.8050000000000000E-002    -5.6869628732341557E-018
  -3.7999999999999999E-002    -1.4801890406326799E-017
  -3.7949999999999998E-002    -1.9812447206278515E-017
  -3.7900000000000003E-002    -1.7030102756446080E-017
  -3.7850000000000002E-002    -6.4264857495739466E-018
  -3.7800000000000000E-002     6.9001293861508448E-018
  -3.7749999999999999E-002     1.4116636812023758E-017
  -3.7699999999999997E-002     7.2314231961833094E-018
  -3.7650000000000003E-002    -1.4757338889093382E-017
  -3.7600000000000001E-002    -4.1431781486934856E-017
  -3.7550000000000000E-002    -5.1842815182959610E-017
  -3.7499999999999999E-002    -2.2608467513537794E-017
  -3.7449999999999997E-002     5.8333523731293825E-017
  -3.7400000000000003E-002     1.7776686738500257E-016
  -3.7350000000000001E-002     2.9089611302394521E-016
  -3.7300000000000000E-002     3.2971518100173590E-016
  -3.7249999999999998E-002     2.2814749218116878E-016
  -3.7200000000000004E-002    -4.1958266199255795E-017
  -3.7150000000000002E-002    -4.3813540207757336E-016
  -3.7100000000000001E-002    -8.3634729134675159E-016
  -3.7050000000000000E-002    -1.0566177107316683E-015
  -3.6999999999999998E-002    -9.2722567104167394E-016
  -3.6950000000000004E-002    -3.7034745930508844E-016
  -3.6900000000000002E-002     5.2561790730440000E-016
  -3.6850000000000001E-002     1.4879947829024085E-015
  -3.6799999999999999E-002     2.1241747217061893E-015
  -3.6749999999999998E-002     2.0646337655696561E-015
  -3.6700000000000003E-002     1.1403580413746410E-015
  -3.6650000000000002E-002    -4.8051188337360355E-016
  -3.6600000000000001E-002    -2.2743780563509953E-015
  -3.6549999999999999E-002    -3.5041404631247452E-015
  -3.6499999999999998E-002    -3.4971672369474559E-015
  -3.6450000000000003E-002    -1.9634621509412919E-015
  -3.6400000000000002E-002     7.8470845205873248E-016
  -3.6350000000000000E-002     3.8366762080083098E-015
  -3.6299999999999999E-002     5.9587085021352386E-015
  -3.6249999999999998E-002     6.0717487305103271E-015
  -3.6200000000000003E-002     3.7531238174366586E-015
  -3.6150000000000002E-002    -4.6351687229305463E-016
  -3.6100000000000000E-002    -5.1652557276601713E-015
  -3.6049999999999999E-002    -8.5452625225601217E-015
  -3.6000000000000004E-002    -9.1413197946083551E-015
  -3.5950000000000003E-002    -6.5254275676420124E-015
  -3.5900000000000001E-002    -1.6137371033577547E-015
  -3.5850000000000000E-002     3.6080168878611310E-015
  -3.5799999999999998E-002     6.9012427969994520E-015
  -3.5750000000000004E-002     6.8216841391383612E-015
  -3.5700000000000003E-002     3.5220827902232186E-015
  -3.5650000000000001E-002    -1.1233980599476982E-015
  -3.5600000000000000E-002    -4.2459905135390794E-015
  -3.5549999999999998E-002    -3.3436505063796606E-015
  -3.5500000000000004E-002     2.2904095358950907E-015
  -3.5450000000000002E-002     1.0774044015355568E-014
  -3.5400000000000001E-002     1.7997727778288665E-014
  -3.5349999999999999E-002     1.9198152926012983E-014
  -3.5299999999999998E-002     1.1228191643426998E-014
  -3.5250000000000004E-002    -5.4234423518902156E-015
  -3.5200000000000002E-002    -2.5876360848790338E-014
  -3.5150000000000001E-002    -4.1992567327231448E-014
  -3.5099999999999999E-002    -4.5286568703587731E-014
  -3.5049999999999998E-002    -3.0678059753988814E-014
  -3.5000000000000003E-002     3.9792228336874407E-016
  -3.4950000000000002E-002     3.9010617457156796E-014
  -3.4900000000000000E-002     7.0737448696651890E-014
  -3.4849999999999999E-002     8.0409578995208006E-014
  -3.4799999999999998E-002     5.8179972871105893E-014
  -3.4750000000000003E-002     4.7088706901175081E-015
  -3.4700000000000002E-002    -6.6763714774078950E-014
  -3.4650000000000000E-002    -1.3283916820009917E-013
  -3.4599999999999999E-002    -1.6674351610859740E-013
  -3.4549999999999997E-002    -1.4766093689679069E-013
  -3.4500000000000003E-002    -6.9568633743209752E-014
  -3.4450000000000001E-002     5.3752752868132523E-014
  -3.4400000000000000E-002     1.8995359808283452E-013
  -3.4349999999999999E-002     2.9611276658183423E-013
  -3.4299999999999997E-002     3.3167617883936676E-013
  -3.4250000000000003E-002     2.7252332096066496E-013
  -3.4200000000000001E-002     1.2145378608182824E-013
  -3.4150000000000000E-002    -8.8964030859328980E-014
  -3.4099999999999998E-002    -3.0309237595079447E-013
  -3.4049999999999997E-002    -4.5732030549884356E-013
  -3.4000000000000002E-002    -4.9941201724908537E-013
  -3.3950000000000001E-002    -4.0609323372021868E-013
  -3.3900000000000000E-002    -1.9289669185783190E-013
  -3.3849999999999998E-002     8.7608352112476228E-014
  -3.3799999999999997E-002     3.5946529661875747E-013
  -3.3750000000000002E-002     5.4515000683699083E-013
  -3.3700000000000001E-002     5.8890577004247551E-013
  -3.3649999999999999E-002     4.7411931668263292E-013
  -3.3599999999999998E-002     2.2897517046738501E-013
  -3.3550000000000003E-002    -8.1610555896056172E-014
  -3.3500000000000002E-002    -3.7523717287773416E-013
  -3.3450000000000001E-002    -5.7617218998237973E-013
  -3.3399999999999999E-002    -6.3656619332628239E-013
  -3.3349999999999998E-002    -5.4805152332677714E-013
  -3.3300000000000003E-002    -3.4054132926912684E-013
  -3.3250000000000002E-002    -6.9564500486010748E-014
  -3.3200000000000000E-002     2.0264570504715286E-013
  -3.3149999999999999E-002     4.2527117118337163E-013
  -3.3099999999999997E-002     5.7005533275578661E-013
  -3.3050000000000003E-002     6.3241941026585010E-013
  -3.3000000000000002E-002     6.2361440322225756E-013
  -3.2950000000000000E-002     5.5846388149921082E-013
  -3.2899999999999999E-002     4.4478501640101781E-013
  -3.2850000000000004E-002     2.7957184748993461E-013
  -3.2800000000000003E-002     5.3937237327790620E-014
  -3.2750000000000001E-002    -2.3515699023200576E-013
  -3.2700000000000000E-002    -5.7163841318035491E-013
  -3.2649999999999998E-002    -9.1210155254032034E-013
  -3.2600000000000004E-002    -1.1879421773449398E-012
  -3.2550000000000003E-002    -1.3196580805241817E-012
  -3.2500000000000001E-002    -1.2405225349385253E-012
  -3.2450000000000000E-002    -9.2269068316034673E-013
  -3.2399999999999998E-002    -3.9662511053568566E-013
  -3.2350000000000004E-002     2.4451120408423918E-013
  -3.2300000000000002E-002     8.6008108029829248E-013
  -3.2250000000000001E-002     1.2955572216228273E-012
  -3.2199999999999999E-002     1.4269221682239248E-012
  -3.2149999999999998E-002     1.2036209794367995E-012
  -3.2100000000000004E-002     6.7635308964581537E-013
  -3.2050000000000002E-002    -1.3314026223632338E-015
  -3.2000000000000001E-002    -6.0219279884478642E-013
  -3.1949999999999999E-002    -8.8108227433729244E-013
  -3.1899999999999998E-002    -6.4473721460020990E-013
  -3.1850000000000003E-002     1.8267039430969400E-013
  -3.1800000000000002E-002     1.5173121386502929E-012
  -3.1750000000000000E-002     3.1112550609974795E-012
  -3.1699999999999999E-002     4.5910915832445848E-012
  -3.1649999999999998E-002     5.5337030727154535E-012
  -3.1600000000000003E-002     5.5629856933008963E-012
  -3.1550000000000002E-002     4.4450503495358108E-012
  -3.1500000000000000E-002     2.1588699453896192E-012
  -3.1449999999999999E-002    -1.0753195184122137E-012
  -3.1399999999999997E-002    -4.8177494127026433E-012
  -3.1350000000000003E-002    -8.4772447756297909E-012
  -3.1300000000000001E-002    -1.1411559226592845E-011
  -3.1250000000000000E-002    -1.3038955974917786E-011
  -3.1199999999999999E-002    -1.2938421372138349E-011
  -3.1150000000000001E-002    -1.0919431128736976E-011
  -3.1100000000000003E-002    -7.0498386883906088E-012
  -3.1050000000000001E-002    -1.6401567030206700E-012
  -3.1000000000000000E-002     4.8080143201217095E-012
  -3.0949999999999998E-002     1.1674513717001700E-011
  -3.0900000000000000E-002     1.8295977687219961E-011
  -3.0850000000000002E-002     2.4027031917904798E-011
  -3.0800000000000001E-002     2.8275377620756642E-011
  -3.0750000000000000E-002     3.0506392809416984E-011
  -3.0699999999999998E-002     3.0220872506354488E-011
  -3.0650000000000000E-002     2.6916083098157452E-011
  -3.0600000000000002E-002     2.0043790371902681E-011
  -3.0550000000000001E-002     8.9787812771124635E-012
  -3.0499999999999999E-002    -6.9915738559340019E-012
  -3.0449999999999998E-002    -2.8651455619974395E-011
  -3.0400000000000000E-002    -5.6813912091855271E-011
  -3.0350000000000002E-002    -9.2255903063190699E-011
  -3.0300000000000001E-002    -1.3563789293606168E-010
  -3.0249999999999999E-002    -1.8741743950002405E-010
  -3.0200000000000001E-002    -2.4776699663261239E-010
  -3.0150000000000000E-002    -3.1650822989911312E-010
  -3.0100000000000002E-002    -3.9307554111206486E-010
  -3.0050000000000000E-002    -4.7652101069864902E-010
  -2.9999999999999999E-002    -5.6557008909603752E-010
  -2.9950000000000001E-002    -6.5872958456564329E-010
  -2.9899999999999999E-002    -7.5443978010398569E-010
  -2.9850000000000002E-002    -8.5125033462529408E-010
  -2.9800000000000000E-002    -9.4799004789326917E-010
  -2.9749999999999999E-002    -1.0438974999890534E-009
  -2.9700000000000001E-002    -1.1386835379271988E-009
  -2.9650000000000003E-002    -1.2325091409777285E-009
  -2.9600000000000001E-002    -1.3258825237521072E-009
  -2.9550000000000000E-002    -1.4194976255539314E-009
  -2.9499999999999998E-002    -1.5140528488706158E-009
  -2.9450000000000000E-002    -1.6100903110727289E-009
  -2.9400000000000003E-002    -1.7078926725513357E-009
  -2.9350000000000001E-002    -1.8074546323920812E-009
  -2.9300000000000000E-002    -1.9085243266113003E-009
  -2.9249999999999998E-002    -2.0106959514204300E-009
  -2.9200000000000000E-002    -2.1135170254061968E-009
  -2.9150000000000002E-002    -2.2165827554469466E-009
  -2.9100000000000001E-002    -2.3195965742704129E-009
  -2.9049999999999999E-002    -2.4223960072865672E-009
  -2.8999999999999998E-002    -2.5249544405653324E-009
  -2.8950000000000000E-002    -2.6273792030610309E-009
  -2.8900000000000002E-002    -2.7299160194377485E-009
  -2.8850000000000001E-002    -2.8329620292171019E-009
  -2.8799999999999999E-002    -2.9370708667276016E-009
  -2.8749999999999998E-002    -3.0429288787124002E-009
  -2.8700000000000000E-002    -3.1512854307701530E-009
  -2.8650000000000002E-002    -3.2628388713282755E-009
  -2.8600000000000000E-002    -3.3781011623444734E-009
  -2.8549999999999999E-002    -3.4972845424825490E-009
  -2.8500000000000001E-002    -3.6202630102220968E-009
  -2.8450000000000000E-002    -3.7466364004438406E-009
  -2.8400000000000002E-002    -3.8758990794787148E-009
  -2.8350000000000000E-002    -4.0076678274834384E-009
  -2.8299999999999999E-002    -4.1419014361350872E-009
  -2.8250000000000001E-002    -4.2790220448649746E-009
  -2.8200000000000003E-002    -4.4198840412894766E-009
  -2.8150000000000001E-002    -4.5655739101184082E-009
  -2.8100000000000000E-002    -4.7170876346392221E-009
  -2.8049999999999999E-002    -4.8749828126582210E-009
  -2.8000000000000001E-002    -5.0391164200002068E-009
  -2.7950000000000003E-002    -5.2085697502513089E-009
  -2.7900000000000001E-002    -5.3817973586249367E-009
  -2.7850000000000000E-002    -5.5569823049235468E-009
  -2.7799999999999998E-002    -5.7325025383422245E-009
  -2.7750000000000000E-002    -5.9073782232493514E-009
  -2.7700000000000002E-002    -6.0815781090151328E-009
  -2.7650000000000001E-002    -6.2560968209501152E-009
  -2.7600000000000000E-002    -6.4327856431914440E-009
  -2.7549999999999998E-002    -6.6139830890268057E-009
  -2.7500000000000000E-002    -6.8020473910559430E-009
  -2.7450000000000002E-002    -6.9989124894459022E-009
  -2.7400000000000001E-002    -7.2057704911419046E-009
  -2.7349999999999999E-002    -7.4229483975198476E-009
  -2.7299999999999998E-002    -7.6499837422034187E-009
  -2.7250000000000000E-002    -7.8858604501014070E-009
  -2.7200000000000002E-002    -8.1293293226067571E-009
  -2.7150000000000001E-002    -8.3792284280732015E-009
  -2.7099999999999999E-002    -8.6347206372225398E-009
  -2.7049999999999998E-002    -8.8954167182672813E-009
  -2.7000000000000000E-002    -9.1613607670760619E-009
  -2.6950000000000002E-002    -9.4329118882109583E-009
  -2.6900000000000000E-002    -9.7105709312674112E-009
  -2.6849999999999999E-002    -9.9948130730511864E-009
  -2.6800000000000001E-002    -1.0285971455722394E-008
  -2.6749999999999999E-002    -1.0584224345670145E-008
  -2.6700000000000002E-002    -1.0889667991471580E-008
  -2.6650000000000000E-002    -1.1202454342429456E-008
  -2.6599999999999999E-002    -1.1522939800468810E-008
  -2.6550000000000001E-002    -1.1851787326861763E-008
  -2.6500000000000003E-002    -1.2189969988254792E-008
  -2.6450000000000001E-002    -1.2538672024345545E-008
  -2.6400000000000000E-002    -1.2899091327029284E-008
  -2.6349999999999998E-002    -1.3272206847707193E-008
  -2.6300000000000000E-002    -1.3658580783473509E-008
  -2.6250000000000002E-002    -1.4058247903623273E-008
  -2.6200000000000001E-002    -1.4470749711701375E-008
  -2.6150000000000000E-002    -1.4895284478190591E-008
  -2.6099999999999998E-002    -1.5330948874436180E-008
  -2.6050000000000000E-002    -1.5776994442697542E-008
  -2.6000000000000002E-002    -1.6233015885744489E-008
  -2.5950000000000001E-002    -1.6699022181834578E-008
  -2.5899999999999999E-002    -1.7175383566069286E-008
  -2.5849999999999998E-002    -1.7662654694321258E-008
  -2.5800000000000000E-002    -1.8161376687616695E-008
  -2.5750000000000002E-002    -1.8671902869278347E-008
  -2.5700000000000001E-002    -1.9194342413923114E-008
  -2.5649999999999999E-002    -1.9728641448481485E-008
  -2.5599999999999998E-002    -2.0274783184146844E-008
  -2.5550000000000000E-002    -2.0833053698645896E-008
  -2.5500000000000002E-002    -2.1404267125844367E-008
  -2.5450000000000000E-002    -2.1989881952992791E-008
  -2.5399999999999999E-002    -2.2591930360541267E-008
  -2.5349999999999998E-002    -2.3212746597655055E-008
  -2.5300000000000000E-002    -2.3854560611140164E-008
  -2.5250000000000002E-002    -2.4519050616902254E-008
  -2.5200000000000000E-002    -2.5206979521500449E-008
  -2.5149999999999999E-002    -2.5918038011301259E-008
  -2.5100000000000001E-002    -2.6650955005471820E-008
  -2.5049999999999999E-002    -2.7403887076840644E-008
  -2.5000000000000001E-002    -2.8174982936559208E-008
  -2.4950000000000000E-002    -2.8962997490191382E-008
  -2.4899999999999999E-002    -2.9767782745642252E-008
  -2.4850000000000001E-002    -3.0590481104669683E-008
  -2.4800000000000003E-002    -3.1433390697277032E-008
  -2.4750000000000001E-002    -3.2299495907389351E-008
  -2.4700000000000000E-002    -3.3191782195166159E-008
  -2.4649999999999998E-002    -3.4112547461768965E-008
  -2.4600000000000000E-002    -3.5062894838640426E-008
  -2.4550000000000002E-002    -3.6042574446721726E-008
  -2.4500000000000001E-002    -3.7050212941998555E-008
  -2.4450000000000000E-002    -3.8083881540373408E-008
  -2.4399999999999998E-002    -3.9141825793240738E-008
  -2.4350000000000000E-002    -4.0223089210777208E-008
  -2.4299999999999999E-002    -4.1327866930770136E-008
  -2.4250000000000001E-002    -4.2457437932154866E-008
  -2.4199999999999999E-002    -4.3613720411368763E-008
  -2.4150000000000001E-002    -4.4798574118247976E-008
  -2.4100000000000000E-002    -4.6013116622166373E-008
  -2.4049999999999998E-002    -4.7257302245857766E-008
  -2.4000000000000000E-002    -4.8529914989810016E-008
  -2.3949999999999999E-002    -4.9829024483159184E-008
  -2.3900000000000001E-002    -5.1152753123404719E-008
  -2.3850000000000000E-002    -5.2500120580301490E-008
  -2.3800000000000002E-002    -5.3871693195084492E-008
  -2.3750000000000000E-002    -5.5269794313889617E-008
  -2.3699999999999999E-002    -5.6698209309254548E-008
  -2.3650000000000001E-002    -5.8161459364446816E-008
  -2.3599999999999999E-002    -5.9663897698579962E-008
  -2.3550000000000001E-002    -6.1208874230826135E-008
  -2.3500000000000000E-002    -6.2798300407571430E-008
  -2.3449999999999999E-002    -6.4432694574823723E-008
  -2.3400000000000001E-002    -6.6111685957766066E-008
  -2.3349999999999999E-002    -6.7834837084034604E-008
  -2.3300000000000001E-002    -6.9602389751022688E-008
  -2.3250000000000000E-002    -7.1415793694703521E-008
  -2.3199999999999998E-002    -7.3277763696555708E-008
  -2.3150000000000000E-002    -7.5191865730492691E-008
  -2.3099999999999999E-002    -7.7161776868539188E-008
  -2.3050000000000001E-002    -7.9190515007554050E-008
  -2.3000000000000000E-002    -8.1279886110651627E-008
  -2.2950000000000002E-002    -8.3430390218139451E-008
  -2.2900000000000000E-002    -8.5641565711161905E-008
  -2.2849999999999999E-002    -8.7912730995608854E-008
  -2.2800000000000001E-002    -9.0243789751029888E-008
  -2.2749999999999999E-002    -9.2635831337784701E-008
  -2.2700000000000001E-002    -9.5091250552216322E-008
  -2.2650000000000000E-002    -9.7613372023467618E-008
  -2.2599999999999999E-002    -1.0020555986209839E-007
  -2.2550000000000001E-002    -1.0287020771745049E-007
  -2.2499999999999999E-002    -1.0560778637088594E-007
  -2.2450000000000001E-002    -1.0841646177094301E-007
  -2.2400000000000000E-002    -1.1129231665539722E-007
  -2.2349999999999998E-002    -1.1423010748876623E-007
  -2.2300000000000000E-002    -1.1722448721382199E-007
  -2.2249999999999999E-002    -1.2027115482732822E-007
  -2.2200000000000001E-002    -1.2336763401395436E-007
  -2.2150000000000000E-002    -1.2651351619786164E-007
  -2.2100000000000002E-002    -1.2970991687009239E-007
  -2.2050000000000000E-002    -1.3295859026809875E-007
  -2.1999999999999999E-002    -1.3626080017623666E-007
  -2.1950000000000001E-002    -1.3961651010287974E-007
  -2.1899999999999999E-002    -1.4302416292254644E-007
  -2.1850000000000001E-002    -1.4648103435246821E-007
  -2.1800000000000000E-002    -1.4998430363885979E-007
  -2.1749999999999999E-002    -1.5353213638295269E-007
  -2.1700000000000001E-002    -1.5712467050213126E-007
  -2.1649999999999999E-002    -1.6076441868362494E-007
  -2.1600000000000001E-002    -1.6445596801479811E-007
  -2.1550000000000000E-002    -1.6820492166184226E-007
  -2.1499999999999998E-002    -1.7201672661646503E-007
  -2.1450000000000000E-002    -1.7589545228627644E-007
  -2.1399999999999999E-002    -1.7984323739055619E-007
  -2.1350000000000001E-002    -1.8386037871247425E-007
  -2.1299999999999999E-002    -1.8794627589529230E-007
  -2.1250000000000002E-002    -1.9210071768366484E-007
  -2.1200000000000000E-002    -1.9632528364914800E-007
  -2.1149999999999999E-002    -2.0062422851968049E-007
  -2.1100000000000001E-002    -2.0500465566005518E-007
  -2.1049999999999999E-002    -2.0947578815981184E-007
  -2.1000000000000001E-002    -2.1404770556619444E-007
  -2.0950000000000000E-002    -2.1872978445366985E-007
  -2.0899999999999998E-002    -2.2352941991576221E-007
  -2.0850000000000000E-002    -2.2845143596184152E-007
  -2.0799999999999999E-002    -2.3349834201807059E-007
  -2.0750000000000001E-002    -2.3867111040606300E-007
  -2.0700000000000000E-002    -2.4397065036887042E-007
  -2.0649999999999998E-002    -2.4939904447166863E-007
  -2.0600000000000000E-002    -2.5496021145292818E-007
  -2.0549999999999999E-002    -2.6066000267684461E-007
  -2.0500000000000001E-002    -2.6650533528465716E-007
  -2.0449999999999999E-002    -2.7250293566906496E-007
  -2.0400000000000001E-002    -2.7865797092659473E-007
  -2.0350000000000000E-002    -2.8497300052150465E-007
  -2.0299999999999999E-002    -2.9144775354944760E-007
  -2.0250000000000001E-002    -2.9807973049098922E-007
  -2.0199999999999999E-002    -3.0486532576870944E-007
  -2.0150000000000001E-002    -3.1180140721926543E-007
  -2.0100000000000000E-002    -3.1888660262844966E-007
  -2.0049999999999998E-002    -3.2612195321670994E-007
  -2.0000000000000000E-002    -3.3351082120201126E-007
  -1.9949999999999999E-002    -3.4105796027326085E-007
  -1.9900000000000001E-002    -3.4876812997246694E-007
  -1.9850000000000000E-002    -3.5664475436055888E-007
  -1.9799999999999998E-002    -3.6468898746148478E-007
  -1.9750000000000000E-002    -3.7289954068877467E-007
  -1.9699999999999999E-002    -3.8127347249698808E-007
  -1.9650000000000001E-002    -3.8980729412619271E-007
  -1.9599999999999999E-002    -3.9849856934080484E-007
  -1.9550000000000001E-002    -4.0734709995696762E-007
  -1.9500000000000000E-002    -4.1635546528281548E-007
  -1.9449999999999999E-002    -4.2552867627238085E-007
  -1.9400000000000001E-002    -4.3487315497905096E-007
  -1.9349999999999999E-002    -4.4439523926608134E-007
  -1.9300000000000001E-002    -4.5409988273379610E-007
  -1.9250000000000000E-002    -4.6398969309445552E-007
  -1.9199999999999998E-002    -4.7406497806112153E-007
  -1.9150000000000000E-002    -4.8432431531253501E-007
  -1.9099999999999999E-002    -4.9476610624114772E-007
  -1.9050000000000001E-002    -5.0538977375160465E-007
  -1.9000000000000000E-002    -5.1619708812980531E-007
  -1.8949999999999998E-002    -5.2719239007416211E-007
  -1.8900000000000000E-002    -5.3838222797211855E-007
  -1.8849999999999999E-002    -5.4977453756727265E-007
  -1.8800000000000001E-002    -5.6137672793167356E-007
  -1.8749999999999999E-002    -5.7319475456581451E-007
  -1.8700000000000001E-002    -5.8523230339588827E-007
  -1.8650000000000000E-002    -5.9749056768538812E-007
  -1.8599999999999998E-002    -6.0996926151165266E-007
  -1.8550000000000001E-002    -6.2266769125805239E-007
  -1.8499999999999999E-002    -6.3558626189790864E-007
  -1.8450000000000001E-002    -6.4872750696017735E-007
  -1.8400000000000000E-002    -6.6209625714852962E-007
  -1.8349999999999998E-002    -6.7569948362981693E-007
  -1.8300000000000000E-002    -6.8954509130916884E-007
  -1.8249999999999999E-002    -7.0364025179075346E-007
  -1.8200000000000001E-002    -7.1799025216002099E-007
  -1.8149999999999999E-002    -7.3259749698106639E-007
  -1.8100000000000002E-002    -7.4746140332479638E-007
  -1.8050000000000000E-002    -7.6257928841465010E-007
  -1.7999999999999999E-002    -7.7794765188649913E-007
  -1.7950000000000001E-002    -7.9356396313429638E-007
  -1.7899999999999999E-002    -8.0942799457505781E-007
  -1.7850000000000001E-002    -8.2554282939160685E-007
  -1.7800000000000000E-002    -8.4191476000452539E-007
  -1.7749999999999998E-002    -8.5855216896644961E-007
  -1.7700000000000000E-002    -8.7546431362917645E-007
  -1.7649999999999999E-002    -8.9265943668296708E-007
  -1.7600000000000001E-002    -9.1014370044543906E-007
  -1.7550000000000000E-002    -9.2792025810048103E-007
  -1.7499999999999998E-002    -9.4599000825639909E-007
  -1.7450000000000000E-002    -9.6435230627299324E-007
  -1.7399999999999999E-002    -9.8300674400723372E-007
  -1.7350000000000001E-002    -1.0019544584465694E-006
  -1.7299999999999999E-002    -1.0211990434882252E-006
  -1.7250000000000001E-002    -1.0407463227245403E-006
  -1.7200000000000000E-002    -1.0606037002200777E-006
  -1.7149999999999999E-002    -1.0807784565024850E-006
  -1.7100000000000001E-002    -1.1012759817076358E-006
  -1.7049999999999999E-002    -1.1220986151295338E-006
  -1.7000000000000001E-002    -1.1432455344303492E-006
  -1.6950000000000000E-002    -1.1647131989010074E-006
  -1.6899999999999998E-002    -1.1864971176849202E-006
  -1.6850000000000000E-002    -1.2085936757957389E-006
  -1.6799999999999999E-002    -1.2310021018975467E-006
  -1.6750000000000001E-002    -1.2537251407653583E-006
  -1.6700000000000000E-002    -1.2767690935795491E-006
  -1.6649999999999998E-002    -1.3001428382434629E-006
  -1.6600000000000000E-002    -1.3238559040576866E-006
  -1.6549999999999999E-002    -1.3479165085284888E-006
  -1.6500000000000001E-002    -1.3723300587537551E-006
  -1.6449999999999999E-002    -1.3970983282609586E-006
  -1.6400000000000001E-002    -1.4222196964853634E-006
  -1.6350000000000000E-002    -1.4476905869425072E-006
  -1.6299999999999999E-002    -1.4735068679729300E-006
  -1.6250000000000001E-002    -1.4996657102746942E-006
  -1.6199999999999999E-002    -1.5261671084121667E-006
  -1.6150000000000001E-002    -1.5530138228624885E-006
  -1.6100000000000000E-002    -1.5802114000831020E-006
  -1.6049999999999998E-002    -1.6077664587475288E-006
  -1.6000000000000000E-002    -1.6356849286788340E-006
  -1.5949999999999999E-002    -1.6639712924196609E-006
  -1.5900000000000001E-002    -1.6926270206517494E-006
  -1.5850000000000000E-002    -1.7216512643013161E-006
  -1.5799999999999998E-002    -1.7510414264575240E-006
  -1.5750000000000000E-002    -1.7807946947512043E-006
  -1.5699999999999999E-002    -1.8109102848811619E-006
  -1.5650000000000001E-002    -1.8413897678284123E-006
  -1.5599999999999999E-002    -1.8722382977557253E-006
  -1.5550000000000001E-002    -1.9034631175244841E-006
  -1.5500000000000000E-002    -1.9350729640408889E-006
  -1.5449999999999998E-002    -1.9670756774971642E-006
  -1.5400000000000000E-002    -1.9994768505473804E-006
  -1.5349999999999999E-002    -2.0322785989447048E-006
  -1.5300000000000001E-002    -2.0654799224206939E-006
  -1.5250000000000000E-002    -2.0990764371765555E-006
  -1.5199999999999998E-002    -2.1330628819015373E-006
  -1.5150000000000000E-002    -2.1674340307220047E-006
  -1.5099999999999999E-002    -2.2021861701253569E-006
  -1.5050000000000001E-002    -2.2373182883867188E-006
  -1.4999999999999999E-002    -2.2728312488929603E-006
  -1.4949999999999998E-002    -2.3087276674670092E-006
  -1.4900000000000000E-002    -2.3450095702055327E-006
  -1.4849999999999999E-002    -2.3816778068680510E-006
  -1.4800000000000001E-002    -2.4187312107725285E-006
  -1.4749999999999999E-002    -2.4561652784414506E-006
  -1.4700000000000001E-002    -2.4939738123721469E-006
  -1.4650000000000000E-002    -2.5321496412231397E-006
  -1.4599999999999998E-002    -2.5706863639881795E-006
  -1.4550000000000000E-002    -2.6095796812506428E-006
  -1.4499999999999999E-002    -2.6488276225572117E-006
  -1.4450000000000001E-002    -2.6884312984376113E-006
  -1.4400000000000000E-002    -2.7283940961651356E-006
  -1.4349999999999998E-002    -2.7687199003645706E-006
  -1.4300000000000000E-002    -2.8094106186181120E-006
  -1.4249999999999999E-002    -2.8504658507869381E-006
  -1.4200000000000001E-002    -2.8918813062142722E-006
  -1.4149999999999999E-002    -2.9336496481997429E-006
  -1.4099999999999998E-002    -2.9757611030167937E-006
  -1.4050000000000000E-002    -3.0182059155332468E-006
  -1.3999999999999999E-002    -3.0609754003147995E-006
  -1.3950000000000001E-002    -3.1040632630845270E-006
  -1.3899999999999999E-002    -3.1474662866465867E-006
  -1.3850000000000001E-002    -3.1911831656878939E-006
  -1.3800000000000000E-002    -3.2352140713020281E-006
  -1.3749999999999998E-002    -3.2795582602101172E-006
  -1.3700000000000000E-002    -3.3242137608652579E-006
  -1.3649999999999999E-002    -3.3691761932229088E-006
  -1.3600000000000001E-002    -3.4144388668694455E-006
  -1.3550000000000000E-002    -3.4599930225308578E-006
  -1.3499999999999998E-002    -3.5058288901043044E-006
  -1.3450000000000000E-002    -3.5519379125052993E-006
  -1.3399999999999999E-002    -3.5983125044181136E-006
  -1.3350000000000001E-002    -3.6449471872930622E-006
  -1.3299999999999999E-002    -3.6918372830177333E-006
  -1.3249999999999998E-002    -3.7389785381658939E-006
  -1.3200000000000000E-002    -3.7863657074355266E-006
  -1.3149999999999998E-002    -3.8339909701353678E-006
  -1.3100000000000001E-002    -3.8818438304632819E-006
  -1.3049999999999999E-002    -3.9299111220653856E-006
  -1.3000000000000001E-002    -3.9781776417200576E-006
  -1.2950000000000000E-002    -4.0266268098588015E-006
  -1.2899999999999998E-002    -4.0752431789839000E-006
  -1.2850000000000000E-002    -4.1240124727886505E-006
  -1.2799999999999999E-002    -4.1729221447075971E-006