  -4.0000000000000001E-002     0.0000000000000000     
  -3.9949999999999999E-002     0.0000000000000000     
  -3.9899999999999998E-002     0.0000000000000000     
  -3.9850000000000003E-002     0.0000000000000000     
  -3.9800000000000002E-002     0.0000000000000000     
  -3.9750000000000001E-002     0.0000000000000000     
  -3.9699999999999999E-002     0.0000000000000000     
  -3.9649999999999998E-002     0.0000000000000000     
  -3.9600000000000003E-002     0.0000000000000000     
  -3.9550000000000002E-002     0.0000000000000000     
  -3.9500000000000000E-002     1.2030920134016506E-029
  -3.9449999999999999E-002     2.2218951451869230E-029
  -3.9399999999999998E-002    -9.0513996157577083E-028
  -3.9350000000000003E-002    -8.6816213347284153E-027
  -3.9300000000000002E-002    -3.9703476541201645E-026
  -3.9250000000000000E-002    -9.8852375365526875E-026
  -3.9199999999999999E-002    -4.6508158717157145E-026
  -3.9150000000000004E-002     7.1529534309021276E-025
  -3.9100000000000003E-002     3.4613573412885290E-024
  -3.9050000000000001E-002     9.0971770298004607E-024
  -3.9000000000000000E-002     1.3832234752494997E-023
  -3.8949999999999999E-002     1.0011281024807780E-024
  -3.8900000000000004E-002    -6.4682150982725762E-023
  -3.8850000000000003E-002    -2.2221913983674170E-022
  -3.8800000000000001E-002    -4.5406603048573008E-022
  -3.8750000000000000E-002    -5.7701358696257353E-022
  -3.8699999999999998E-002    -1.4851434209700288E-022
  -3.8650000000000004E-002     1.4514478972481440E-021
  -3.8600000000000002E-002     4.5660763185397914E-021
  -3.8550000000000001E-002     8.3953363273165122E-021
  -3.8500000000000000E-002     1.0101815989408192E-020
  -3.8449999999999998E-002     4.8106121267220182E-021
  -3.8400000000000004E-002    -1.2385695443718941E-020
  -3.8350000000000002E-002    -4.2046302896668165E-020
  -3.8300000000000001E-002    -7.5122661794612851E-020
  -3.8249999999999999E-002    -9.0562403936438143E-020
  -3.8199999999999998E-002    -6.0365783216643567E-020
  -3.8150000000000003E-002     3.5789848423992951E-020
  -3.8100000000000002E-002     1.9041069340397517E-019
  -3.8050000000000000E-002     3.5381848039055043E-019
  -3.7999999999999999E-002     4.3981469902018359E-019
  -3.7949999999999998E-002     3.5925229780632690E-019
  -3.7900000000000003E-002     7.3232722222750581E-020
  -3.7850000000000002E-002    -3.6103192961155461E-019
  -3.7800000000000000E-002    -7.8678890291933354E-019
  -3.7749999999999999E-002    -1.0080622628891369E-018
  -3.7699999999999997E-002    -8.9932757938734919E-019
  -3.7650000000000003E-002    -5.0887237339099728E-019
  -3.7600000000000001E-002    -8.0628270779523826E-020
  -3.7550000000000000E-002     5.5900409976407866E-020
  -3.7499999999999999E-002    -2.9150818601512544E-019
  -3.7449999999999997E-002    -9.4562700051277741E-019
  -3.7400000000000003E-002    -1.2716427835836073E-018
  -3.7350000000000001E-002    -3.5891732314825423E-019
  -3.7300000000000000E-002     2.5147280507174981E-018
  -3.7249999999999998E-002     7.2839213124693291E-018
  -3.7200000000000004E-002     1.2643194792464633E-017
  -3.7150000000000002E-002     1.6052506478522437E-017
  -3.7100000000000001E-002     1.4395796580286166E-017
  -3.7050000000000000E-002     5.2387989635277856E-018
  -3.6999999999999998E-002    -1.1673628936772181E-017
  -3.6950000000000004E-002    -3.3285867723475308E-017
  -3.6900000000000002E-002    -5.3128954611444352E-017
  -3.6850000000000001E-002    -6.2689796327603946E-017
  -3.6799999999999999E-002    -5.4190638623249701E-017
  -3.6749999999999998E-002    -2.4052437389575284E-017
  -3.6700000000000003E-002     2.4256769113943556E-017
  -3.6650000000000002E-002     7.9451143838735764E-017
  -3.6600000000000001E-002     1.2471251916778613E-016
  -3.6549999999999999E-002     1.4288579751549272E-016
  -3.6499999999999998E-002     1.2302452669516431E-016
  -3.6450000000000003E-002     6.5664254613653561E-017
  -3.6400000000000002E-002    -1.5842980998445306E-017
  -3.6350000000000000E-002    -9.9293038394132399E-017
  -3.6299999999999999E-002    -1.6190079528946061E-016
  -3.6249999999999998E-002    -1.8945982944991108E-016
  -3.6200000000000003E-002    -1.8177518670418854E-016
  -3.6150000000000002E-002    -1.5079293426741394E-016
  -3.6100000000000000E-002    -1.1119503377255784E-016
  -3.6049999999999999E-002    -6.7686128548741002E-017
  -3.6000000000000004E-002    -6.5909014015785482E-018
  -3.5950000000000003E-002     1.0058885795003719E-016
  -3.5900000000000001E-002     2.7852264872600024E-016
  -3.5850000000000000E-002     5.1931686155923239E-016
  -3.5799999999999998E-002     7.5725107219110557E-016
  -3.5750000000000004E-002     8.6486873505323788E-016
  -3.5700000000000003E-002     6.8441997794810020E-016
  -3.5650000000000001E-002     9.5482369867137771E-017
  -3.5600000000000000E-002    -8.9946505207259526E-016
  -3.5549999999999998E-002    -2.1070053791382163E-015
  -3.5500000000000004E-002    -3.1338815885448704E-015
  -3.5450000000000002E-002    -3.4668500253066664E-015
  -3.5400000000000001E-002    -2.6405405743511540E-015
  -3.5349999999999999E-002    -4.5226315103665967E-016
  -3.5299999999999998E-002     2.8520276272712398E-015
  -3.5250000000000004E-002     6.5082504215829834E-015
  -3.5200000000000002E-002     9.3464418720073048E-015
  -3.5150000000000001E-002     1.0094184022384454E-014
  -3.5099999999999999E-002     7.8070369241983040E-015
  -3.5049999999999998E-002     2.2965876686485276E-015
  -3.5000000000000003E-002    -5.6020475450892415E-015
  -3.4950000000000002E-002    -1.4055598964129033E-014
  -3.4900000000000000E-002    -2.0603161866673060E-014
  -3.4849999999999999E-002    -2.2811405689250838E-014
  -3.4799999999999998E-002    -1.9045606322507644E-014
  -3.4750000000000003E-002    -9.1231455789342505E-015
  -3.4700000000000002E-002     5.3765288313265044E-015
  -3.4650000000000000E-002     2.1288038996947610E-014
  -3.4599999999999999E-002     3.4527261117163868E-014
  -3.4549999999999997E-002     4.1104953417735317E-014
  -3.4500000000000003E-002     3.8228411624498694E-014
  -3.4450000000000001E-002     2.5191286348054790E-014
  -3.4400000000000000E-002     3.7965273685991020E-015
  -3.4349999999999999E-002    -2.1825988314236579E-014
  -3.4299999999999997E-002    -4.5992449181766347E-014
  -3.4250000000000003E-002    -6.2668007405835916E-014
  -3.4200000000000001E-002    -6.6838166011759137E-014
  -3.4150000000000000E-002    -5.5751817254177582E-014
  -3.4099999999999998E-002    -2.9769431671272633E-014
  -3.4049999999999997E-002     7.3701876822745972E-015
  -3.4000000000000002E-002     4.8945395672700176E-014
  -3.3950000000000001E-002     8.6280339510906442E-014
  -3.3900000000000000E-002     1.1027733470284720E-013
  -3.3849999999999998E-002     1.1323855584138664E-013
  -3.3799999999999997E-002     9.0695106604575367E-014
  -3.3750000000000002E-002     4.2913829573695965E-014
  -3.3700000000000001E-002    -2.4263323427081267E-014
  -3.3649999999999999E-002    -9.9558635236713549E-014
  -3.3599999999999998E-002    -1.6758296424394543E-013
  -3.3550000000000003E-002    -2.1136235660674150E-013
  -3.3500000000000002E-002    -2.1581912603151375E-013
  -3.3450000000000001E-002    -1.7165842310185122E-013
  -3.3399999999999999E-002    -7.8842281352292312E-014
  -3.3349999999999998E-002     5.1306453561307135E-014
  -3.3300000000000003E-002     1.9625451980727645E-013
  -3.3250000000000002E-002     3.2520269190130344E-013
  -3.3200000000000000E-002     4.0476732346114272E-013
  -3.3149999999999999E-002     4.0659299789692859E-013
  -3.3099999999999997E-002     3.1536606928431536E-013
  -3.3050000000000003E-002     1.3522781645332356E-013
  -3.3000000000000002E-002    -1.0743747617788230E-013
  -3.2950000000000000E-002    -3.6632073829741485E-013
  -3.2899999999999999E-002    -5.8301891500175894E-013
  -3.2850000000000004E-002    -6.9937967012355098E-013
  -3.2800000000000003E-002    -6.7196209554072334E-013
  -3.2750000000000001E-002    -4.8522368505435240E-013
  -3.2700000000000000E-002    -1.5980483518474787E-013
  -3.2649999999999998E-002     2.4701196923350817E-013
  -3.2600000000000004E-002     6.4999385096871830E-013
  -3.2550000000000003E-002     9.5293556920294787E-013
  -3.2500000000000001E-002     1.0707853087089445E-012
  -3.2450000000000000E-002     9.5201833951196686E-013
  -3.2399999999999998E-002     5.9563264052325877E-013
  -3.2350000000000004E-002     5.7783230308802384E-014
  -3.2300000000000002E-002    -5.5492393706015718E-013
  -3.2250000000000001E-002    -1.1054327964186527E-012
  -3.2199999999999999E-002    -1.4561082210248312E-012
  -3.2149999999999998E-002    -1.5021434856103147E-012
  -3.2100000000000004E-002    -1.2005451652372709E-012
  -3.2050000000000002E-002    -5.8697311695951814E-013
  -3.2000000000000001E-002     2.2503984286276317E-013
  -3.1949999999999999E-002     1.0640503072713676E-012
  -3.1899999999999998E-002     1.7366930038575841E-012
  -3.1850000000000003E-002     2.0721693959269729E-012
  -3.1800000000000002E-002     1.9648851918021055E-012
  -3.1750000000000000E-002     1.4045122430215596E-012
  -3.1699999999999999E-002     4.8513585246423336E-013
  -3.1649999999999998E-002    -6.1011868259094386E-013
  -3.1600000000000003E-002    -1.6466139587624038E-012
  -3.1550000000000002E-002    -2.3898243522997480E-012
  -3.1500000000000000E-002    -2.6591389526257897E-012
  -3.1449999999999999E-002    -2.3709979297907279E-012
  -3.1399999999999997E-002    -1.5608603709116773E-012
  -3.1350000000000003E-002    -3.7855698469477875E-013
  -3.1300000000000001E-002     9.4198466015945576E-013
  -3.1250000000000000E-002     2.1315504127473375E-012
  -3.1199999999999999E-002     2.9417106074214260E-012
  -3.1150000000000001E-002     3.1956403566323847E-012
  -3.1100000000000003E-002     2.8230483804751574E-012
  -3.1050000000000001E-002     1.8728292395747016E-012
  -3.1000000000000000E-002     5.0240263964258809E-013
  -3.0949999999999998E-002    -1.0523683361327073E-012
  -3.0900000000000000E-002    -2.5194533529576013E-012
  -3.0850000000000002E-002    -3.6367135508472617E-012
  -3.0800000000000001E-002    -4.1941134189402995E-012
  -3.0750000000000000E-002    -4.0664665134651555E-012
  -3.0699999999999998E-002    -3.2333938453291575E-012
  -3.0650000000000000E-002    -1.7849911970578934E-012
  -3.0600000000000002E-002     8.7198606601020712E-014
  -3.0550000000000001E-002     2.1136258974406715E-012
  -3.0499999999999999E-002     3.9834502759747105E-012
  -3.0449999999999998E-002     5.3917233140481762E-012
  -3.0400000000000000E-002     6.0916458862857375E-012
  -3.0350000000000002E-002     5.9435315535922862E-012
  -3.0300000000000001E-002     4.9499380734561711E-012
  -3.0249999999999999E-002     3.2664262981589695E-012
  -3.0200000000000001E-002     1.1806239793941928E-012
  -3.0150000000000000E-002    -9.4118651922177705E-013
  -3.0100000000000002E-002    -2.7321011374846130E-012
  -3.0050000000000000E-002    -3.9109249334445424E-012
  -2.9999999999999999E-002    -4.3550557705677464E-012
  -2.9950000000000001E-002    -4.1381964807732577E-012
  -2.9899999999999999E-002    -3.5177611385704565E-012
  -2.9850000000000002E-002    -2.8689576910012853E-012
  -2.9800000000000000E-002    -2.5774450586238119E-012
  -2.9749999999999999E-002    -2.9158258446433178E-012
  -2.9700000000000001E-002    -3.9369009980569577E-012
  -2.9650000000000003E-002    -5.4156251494544756E-012
  -2.9600000000000001E-002    -6.8615283407526535E-012
  -2.9550000000000000E-002    -7.6062676217442429E-012
  -2.9499999999999998E-002    -6.9514129085141820E-012
  -2.9450000000000000E-002    -4.3450503577835270E-012
  -2.9400000000000003E-002     4.5297421457552525E-013
  -2.9350000000000001E-002     7.2556659971403736E-012
  -2.9300000000000000E-002     1.5410214028589103E-011
  -2.9249999999999998E-002     2.3844514931067092E-011
  -2.9200000000000000E-002     3.1187485779268347E-011
  -2.9150000000000002E-002     3.5935769798561017E-011
  -2.9100000000000001E-002     3.6631254969224992E-011
  -2.9049999999999999E-002     3.2015295138359633E-011
  -2.8999999999999998E-002     2.1134636587665383E-011
  -2.8950000000000000E-002     3.3882344230777600E-012
  -2.8900000000000002E-002    -2.1482137318844340E-011
  -2.8850000000000001E-002    -5.3443727057619887E-011
  -2.8799999999999999E-002    -9.2249035036955027E-011
  -2.8749999999999998E-002    -1.3751816933632495E-010
  -2.8700000000000000E-002    -1.8881409314383011E-010
  -2.8650000000000002E-002    -2.4570183336984244E-010
  -2.8600000000000000E-002    -3.0778696570949551E-010
  -2.8549999999999999E-002    -3.7473156564375709E-010
  -2.8500000000000001E-002    -4.4624598007870971E-010
  -2.8450000000000000E-002    -5.2205733705926569E-010
  -2.8400000000000002E-002    -6.0185936880962580E-010
  -2.8350000000000000E-002    -6.8525316939201806E-010
  -2.8299999999999999E-002    -7.7169500337870771E-010
  -2.8250000000000001E-002    -8.6047078348801446E-010
  -2.8200000000000003E-002    -9.5071518147326558E-010
  -2.8150000000000001E-002    -1.0414852307412344E-009
  -2.8100000000000000E-002    -1.1318833600603074E-009
  -2.8049999999999999E-002    -1.2212085782178828E-009
  -2.8000000000000001E-002    -1.3091011124509276E-009
  -2.7950000000000003E-002    -1.3956408484893649E-009
  -2.7900000000000001E-002    -1.4813657800711095E-009
  -2.7850000000000000E-002    -1.5671950505709149E-009
  -2.7799999999999998E-002    -1.6542634837510389E-009
  -2.7750000000000000E-002    -1.7437025310508585E-009
  -2.7700000000000002E-002    -1.8364140539060646E-009
  -2.7650000000000001E-002    -1.9328910637202685E-009
  -2.7600000000000000E-002    -2.0331265295516872E-009
  -2.7549999999999998E-002    -2.1366291494327489E-009
  -2.7500000000000000E-002    -2.2425416892914341E-009
  -2.7450000000000002E-002    -2.3498266669871801E-009
  -2.7400000000000001E-002    -2.4574798614517002E-009
  -2.7349999999999999E-002    -2.5647206376681090E-009
  -2.7299999999999998E-002    -2.6711269980300763E-009
  -2.7250000000000000E-002    -2.7766924789706264E-009
  -2.7200000000000002E-002    -2.8818097049414623E-009
  -2.7150000000000001E-002    -2.9871905021464808E-009
  -2.7099999999999999E-002    -3.0937534712818329E-009
  -2.7049999999999998E-002    -3.2024979403013836E-009
  -2.7000000000000000E-002    -3.3143868112699305E-009
  -2.6950000000000002E-002    -3.4302509263850338E-009
  -2.6900000000000000E-002    -3.5507210904004005E-009
  -2.6849999999999999E-002    -3.6761878558485628E-009
  -2.6800000000000001E-002    -3.8067855615828125E-009
  -2.6749999999999999E-002    -3.9424046816645688E-009
  -2.6700000000000002E-002    -4.0827246131800965E-009
  -2.6650000000000000E-002    -4.2272702508772429E-009
  -2.6599999999999999E-002    -4.3754858051986702E-009
  -2.6550000000000001E-002    -4.5268232237214849E-009
  -2.6500000000000003E-002    -4.6808289678709955E-009
  -2.6450000000000001E-002    -4.8372255133793251E-009
  -2.6400000000000000E-002    -4.9959618437011528E-009
  -2.6349999999999998E-002    -5.1572272248918010E-009
  -2.6300000000000000E-002    -5.3214208132364220E-009
  -2.6250000000000002E-002    -5.4890725175630978E-009
  -2.6200000000000001E-002    -5.6607388340012587E-009
  -2.6150000000000000E-002    -5.8368917696156442E-009
  -2.6099999999999998E-002    -6.0178361201297284E-009
  -2.6050000000000000E-002    -6.2036835268449661E-009
  -2.6000000000000002E-002    -6.3943960216048704E-009
  -2.5950000000000001E-002    -6.5899002508245835E-009
  -2.5899999999999999E-002    -6.7902389104162404E-009
  -2.5849999999999998E-002    -6.9957149749410667E-009
  -2.5800000000000000E-002    -7.2069743603738877E-009
  -2.5750000000000002E-002    -7.4249871848530205E-009
  -2.5700000000000001E-002    -7.6509059498445818E-009
  -2.5649999999999999E-002    -7.8858320764240651E-009
  -2.5599999999999998E-002    -8.1305371313439064E-009
  -2.5550000000000000E-002    -8.3852212690228914E-009
  -2.5500000000000002E-002    -8.6493905754746629E-009
  -2.5450000000000000E-002    -8.9219007712938915E-009
  -2.5399999999999999E-002    -9.2011664040936086E-009
  -2.5349999999999998E-002    -9.4855105309458665E-009
  -2.5300000000000000E-002    -9.7735535971406173E-009
  -2.5250000000000002E-002    -1.0064551779820926E-008
  -2.5200000000000000E-002    -1.0358600854264066E-008
  -2.5149999999999999E-002    -1.0656646088925278E-008
  -2.5100000000000001E-002    -1.0960308784320328E-008
  -2.5049999999999999E-002    -1.1271577111126770E-008
  -2.5000000000000001E-002    -1.1592446315271955E-008
  -2.4950000000000000E-002    -1.1924594420685761E-008
  -2.4899999999999999E-002    -1.2269168959457165E-008
  -2.4850000000000001E-002    -1.2626720202384138E-008
  -2.4800000000000003E-002    -1.2997267374541362E-008
  -2.4750000000000001E-002    -1.3380462680429123E-008
  -2.4700000000000000E-002    -1.3775795822426509E-008
  -2.4649999999999998E-002    -1.4182775968330030E-008
  -2.4600000000000000E-002    -1.4601063953434476E-008
  -2.4550000000000002E-002    -1.5030514947348682E-008
  -2.4500000000000001E-002    -1.5471164384613209E-008
  -2.4450000000000000E-002    -1.5923160715466133E-008
  -2.4399999999999998E-002    -1.6386685098057863E-008
  -2.4350000000000000E-002    -1.6861889137045613E-008
  -2.4299999999999999E-002    -1.7348866418482632E-008
  -2.4250000000000001E-002    -1.7847680425236916E-008
  -2.4199999999999999E-002    -1.8358427215950757E-008
  -2.4150000000000001E-002    -1.8881340617676269E-008
  -2.4100000000000000E-002    -1.9416880914018036E-008
  -2.4049999999999998E-002    -1.9965798313977250E-008
  -2.4000000000000000E-002    -2.0529142228815651E-008
  -2.3949999999999999E-002    -2.1108179787282853E-008
  -2.3900000000000001E-002    -2.1704259134235022E-008
  -2.3850000000000000E-002    -2.2318618119646931E-008
  -2.3800000000000002E-002    -2.2952211571676211E-008
  -2.3750000000000000E-002    -2.3605581250359310E-008
  -2.3699999999999999E-002    -2.4278842973551252E-008
  -2.3650000000000001E-002    -2.4971777474866131E-008
  -2.3599999999999999E-002    -2.5684009159717406E-008
  -2.3550000000000001E-002    -2.6415223097930154E-008
  -2.3500000000000000E-002    -2.7165346355812895E-008
  -2.3449999999999999E-002    -2.7934621999207452E-008
  -2.3400000000000001E-002    -2.8723564082911945E-008
  -2.3349999999999999E-002    -2.9532803304634887E-008
  -2.3300000000000001E-002    -3.0362880063250710E-008
  -2.3250000000000000E-002    -3.1214061566700366E-008
  -2.3199999999999998E-002    -3.2086302608485226E-008
  -2.3150000000000000E-002    -3.2979325184516064E-008
  -2.3099999999999999E-002    -3.3892856001556891E-008
  -2.3050000000000001E-002    -3.4826919988095997E-008
  -2.3000000000000000E-002    -3.5782103657007470E-008
  -2.2950000000000002E-002    -3.6759682261968885E-008
  -2.2900000000000000E-002    -3.7761553298793914E-008
  -2.2849999999999999E-002    -3.8789953663852325E-008
  -2.2800000000000001E-002    -3.9847053300432402E-008
  -2.2749999999999999E-002    -4.0934546986192238E-008
  -2.2700000000000001E-002    -4.2053327453213006E-008
  -2.2650000000000000E-002    -4.3203416661396141E-008
  -2.2599999999999999E-002    -4.4384123001634037E-008
  -2.2550000000000001E-002    -4.5594437167688861E-008
  -2.2499999999999999E-002    -4.6833551738035682E-008
  -2.2450000000000001E-002    -4.8101312686571617E-008
  -2.2400000000000000E-002    -4.9398540367629826E-008
  -2.2349999999999998E-002    -5.0727042934826796E-008
  -2.2300000000000000E-002    -5.2089388282050499E-008
  -2.2249999999999999E-002    -5.3488430015570617E-008
  -2.2200000000000001E-002    -5.4926792772684537E-008
  -2.2150000000000000E-002    -5.6406430936466743E-008
  -2.2100000000000002E-002    -5.7928386085297923E-008
  -2.2050000000000000E-002    -5.9492834705671747E-008
  -2.1999999999999999E-002    -6.1099414916876561E-008
  -2.1950000000000001E-002    -6.2747643879709681E-008
  -2.1899999999999999E-002    -6.4437387714371399E-008
  -2.1850000000000001E-002    -6.6169171224488719E-008
  -2.1800000000000000E-002    -6.7944212971261861E-008
  -2.1749999999999999E-002    -6.9764179389307463E-008
  -2.1700000000000001E-002    -7.1630802474260799E-008
  -2.1649999999999999E-002    -7.3545393632067378E-008
  -2.1600000000000001E-002    -7.5508487020084802E-008
  -2.1550000000000000E-002    -7.7519817284054742E-008
  -2.1499999999999998E-002    -7.9578502680500838E-008
  -2.1450000000000000E-002    -8.1683536831444804E-008
  -2.1399999999999999E-002    -8.3834355345379430E-008
  -2.1350000000000001E-002    -8.6031299338832486E-008
  -2.1299999999999999E-002    -8.8275821542536383E-008
  -2.1250000000000002E-002    -9.0570312078767251E-008
  -2.1200000000000000E-002    -9.2917621969625469E-008
  -2.1149999999999999E-002    -9.5320467997411507E-008
  -2.1100000000000001E-002    -9.7780813614545700E-008
  -2.1049999999999999E-002    -1.0029954602683846E-007
  -2.1000000000000001E-002    -1.0287657612551885E-007
  -2.0950000000000000E-002    -1.0551122483640320E-007
  -2.0899999999999998E-002    -1.0820292951892707E-007
  -2.0850000000000000E-002    -1.1095189901936124E-007
  -2.0799999999999999E-002    -1.1375959709615936E-007
  -2.0750000000000001E-002    -1.1662880366697662E-007
  -2.0700000000000000E-002    -1.1956324639986606E-007
  -2.0649999999999998E-002    -1.2256700112023489E-007
  -2.0600000000000000E-002    -1.2564374469686045E-007
  -2.0549999999999999E-002    -1.2879624651632056E-007
  -2.0500000000000001E-002    -1.3202618850270785E-007
  -2.0449999999999999E-002    -1.3533449521931111E-007
  -2.0400000000000001E-002    -1.3872197387709751E-007
  -2.0350000000000000E-002    -1.4219008298239973E-007
  -2.0299999999999999E-002    -1.4574150212135285E-007
  -2.0250000000000001E-002    -1.4938043949471667E-007
  -2.0199999999999999E-002    -1.5311228063151382E-007
  -2.0150000000000001E-002    -1.5694291351845077E-007
  -2.0100000000000000E-002    -1.6087778136981913E-007
  -2.0049999999999998E-002    -1.6492096476480572E-007
  -2.0000000000000000E-002    -1.6907471199100913E-007
  -1.9949999999999999E-002    -1.7333932052824734E-007
  -1.9900000000000001E-002    -1.7771370716741550E-007
  -1.9850000000000000E-002    -1.8219620742251013E-007
  -1.9799999999999998E-002    -1.8678553339765358E-007
  -1.9750000000000000E-002    -1.9148145568587800E-007
  -1.9699999999999999E-002    -1.9628500808284084E-007
  -1.9650000000000001E-002    -2.0119820541092059E-007
  -1.9599999999999999E-002    -2.0622333954383411E-007
  -1.9550000000000001E-002    -2.1136216255290157E-007
  -1.9500000000000000E-002    -2.1661514804841097E-007
  -1.9449999999999999E-002    -2.2198131962751287E-007
  -1.9400000000000001E-002    -2.2745844326257933E-007
  -1.9349999999999999E-002    -2.3304379502019684E-007
  -1.9300000000000001E-002    -2.3873510466303188E-007
  -1.9250000000000000E-002    -2.4453143095155377E-007
  -1.9199999999999998E-002    -2.5043361276504897E-007
  -1.9150000000000000E-002    -2.5644405703855285E-007
  -1.9099999999999999E-002    -2.6256622424441243E-007
  -1.9050000000000001E-002    -2.6880347953600774E-007
  -1.9000000000000000E-002    -2.7515819398428203E-007
  -1.8949999999999998E-002    -2.8163099666220705E-007
  -1.8900000000000000E-002    -2.8822075832493758E-007
  -1.8849999999999999E-002    -2.9492513125654090E-007
  -1.8800000000000001E-002    -3.0174153103345197E-007
  -1.8749999999999999E-002    -3.0866837741727338E-007
  -1.8700000000000001E-002    -3.1570591885431095E-007
  -1.8650000000000000E-002    -3.2285671380185042E-007
  -1.8599999999999998E-002    -3.3012530537797619E-007
  -1.8550000000000001E-002    -3.3751750849661312E-007
  -1.8499999999999999E-002    -3.4503945041345567E-007
  -1.8450000000000001E-002    -3.5269674169050524E-007
  -1.8400000000000000E-002    -3.6049394051131950E-007
  -1.8349999999999998E-002    -3.6843482829022701E-007
  -1.8300000000000000E-002    -3.7652310211166993E-007
  -1.8249999999999999E-002    -3.8476312751396845E-007
  -1.8200000000000001E-002    -3.9316091343769823E-007
  -1.8149999999999999E-002    -4.0172420031515366E-007
  -1.8100000000000002E-002    -4.1046230260259424E-007
  -1.8050000000000000E-002    -4.1938508768226997E-007
  -1.7999999999999999E-002    -4.2850184737418235E-007
  -1.7950000000000001E-002    -4.3781998799054896E-007
  -1.7899999999999999E-002    -4.4734437455357835E-007
  -1.7850000000000001E-002    -4.5707735276583514E-007
  -1.7800000000000000E-002    -4.6701944089216238E-007
  -1.7749999999999998E-002    -4.7717058688949586E-007
  -1.7700000000000000E-002    -4.8753148641832571E-007
  -1.7649999999999999E-002    -4.9810471928988899E-007
  -1.7600000000000001E-002    -5.0889507012130784E-007
  -1.7550000000000000E-002    -5.1990910253228088E-007
  -1.7499999999999998E-002    -5.3115446055769864E-007
  -1.7450000000000000E-002    -5.4263826152195069E-007
  -1.7399999999999999E-002    -5.5436622514968483E-007
  -1.7350000000000001E-002    -5.6634197807364507E-007
  -1.7299999999999999E-002    -5.7856711032756265E-007
  -1.7250000000000001E-002    -5.9104191743405467E-007
  -1.7200000000000000E-002    -6.0376655846252792E-007
  -1.7149999999999999E-002    -6.1674225883293592E-007
  -1.7100000000000001E-002    -6.2997216413689210E-007
  -1.7049999999999999E-002    -6.4346126014112451E-007
  -1.7000000000000001E-002    -6.5721582157159682E-007
  -1.6950000000000000E-002    -6.7124241387010362E-007
  -1.6899999999999998E-002    -6.8554635908726914E-007
  -1.6850000000000000E-002    -7.0013082707969690E-007
  -1.6799999999999999E-002    -7.1499640703694242E-007
  -1.6750000000000001E-002    -7.3014142313320739E-007
  -1.6700000000000000E-002    -7.4556315183830592E-007
  -1.6649999999999998E-002    -7.6125921196834350E-007
  -1.6600000000000000E-002    -7.7722911587215319E-007
  -1.6549999999999999E-002    -7.9347505473335693E-007
  -1.6500000000000001E-002    -8.1000222573954764E-007
  -1.6449999999999999E-002    -8.2681832370164815E-007
  -1.6400000000000001E-002    -8.4393234601835383E-007
  -1.6350000000000000E-002    -8.6135328751859251E-007
  -1.6299999999999999E-002    -8.7908887515663859E-007
  -1.6250000000000001E-002    -8.9714498351034420E-007
  -1.6199999999999999E-002    -9.1552547705697646E-007
  -1.6150000000000001E-002    -9.3423312728564353E-007
  -1.6100000000000000E-002    -9.5327005811506335E-007
  -1.6049999999999998E-002    -9.7263918473083703E-007
  -1.6000000000000000E-002    -9.9234421829721698E-007
  -1.5949999999999999E-002    -1.0123898372024562E-006
  -1.5900000000000001E-002    -1.0327815357180850E-006
  -1.5850000000000000E-002    -1.0535248204824225E-006
  -1.5799999999999998E-002    -1.0746246193415943E-006
  -1.5750000000000000E-002    -1.0960844069678096E-006
  -1.5699999999999999E-002    -1.1179067297504518E-006
  -1.5650000000000001E-002    -1.1400931691858212E-006
  -1.5599999999999999E-002    -1.1626452917655155E-006
  -1.5550000000000001E-002    -1.1855651940947045E-006
  -1.5500000000000000E-002    -1.2088562823095939E-006
  -1.5449999999999998E-002    -1.2325233026805809E-006
  -1.5400000000000000E-002    -1.2565717295341557E-006
  -1.5349999999999999E-002    -1.2810077045173056E-006
  -1.5300000000000001E-002    -1.3058370787124160E-006
  -1.5250000000000000E-002    -1.3310647300156735E-006
  -1.5199999999999998E-002    -1.3566947588891736E-006
  -1.5150000000000000E-002    -1.3827300978524490E-006
  -1.5099999999999999E-002    -1.4091731383498286E-006
  -1.5050000000000001E-002    -1.4360261890894424E-006
  -1.4999999999999999E-002    -1.4632918367429856E-006
  -1.4949999999999998E-002    -1.4909736483798556E-006
  -1.4900000000000000E-002    -1.5190763472729948E-006
  -1.4849999999999999E-002    -1.5476057564537381E-006
  -1.4800000000000001E-002    -1.5765684044001913E-006
  -1.4749999999999999E-002    -1.6059708897852962E-006
  -1.4700000000000001E-002    -1.6358197943704965E-006
  -1.4650000000000000E-002    -1.6661210309658288E-006
  -1.4599999999999998E-002    -1.6968800303913728E-006
  -1.4550000000000000E-002    -1.7281013552330361E-006
  -1.4499999999999999E-002    -1.7597886713774580E-006
  -1.4450000000000001E-002    -1.7919454497808879E-006
  -1.4400000000000000E-002    -1.8245751413492730E-006
  -1.4349999999999998E-002    -1.8576812696268668E-006
  -1.4300000000000000E-002    -1.8912681739917617E-006
  -1.4249999999999999E-002    -1.9253407236836467E-006
  -1.4200000000000001E-002    -1.9599041227050982E-006
  -1.4149999999999999E-002    -1.9949642595590464E-006
  -1.4099999999999998E-002    -2.0305271587175215E-006
  -1.4050000000000000E-002    -2.0665985850653250E-006
  -1.3999999999999999E-002    -2.1031831836871548E-006
  -1.3950000000000001E-002    -2.1402847778210653E-006
  -1.3899999999999999E-002    -2.1779062268026470E-006
  -1.3850000000000001E-002    -2.2160495512230800E-006
  -1.3800000000000000E-002    -2.2547172471558475E-006
  -1.3749999999999998E-002    -2.2939115850112191E-006
  -1.3700000000000000E-002    -2.3336359590107671E-006
  -1.3649999999999999E-002    -2.3738945628648763E-006
  -1.3600000000000001E-002    -2.4146914753887505E-006
  -1.3550000000000000E-002    -2.4560310690863497E-006
  -1.3499999999999998E-002    -2.4979168443925972E-006
  -1.3450000000000000E-002    -2.5403507314835562E-006
  -1.3399999999999999E-002    -2.5833332039024854E-006
  -1.3350000000000001E-002    -2.6268628800726248E-006
  -1.3299999999999999E-002    -2.6709368272010297E-006
  -1.3249999999999998E-002    -2.7155521992444764E-006
  -1.3200000000000000E-002    -2.7607072963960403E-006
  -1.3149999999999998E-002    -2.8064022204448430E-006
  -1.3100000000000001E-002    -2.8526392528694108E-006
  -1.3049999999999999E-002    -2.8994230481020170E-006
  -1.3000000000000001E-002    -2.9467595524290994E-006
  -1.2950000000000000E-002    -2.9946559756478730E-006
  -1.2899999999999998E-002    -3.0431180241303642E-006
  -1.2850000000000000E-002    -3.0921505379829922E-006
  -1.2799999999999999E-002    -3.1417558175064836E-006