  -4.0000000000000001E-002     0.0000000000000000     
  -3.9949999999999999E-002     0.0000000000000000     
  -3.9899999999999998E-002     0.0000000000000000     
  -3.9850000000000003E-002     0.0000000000000000     
  -3.9800000000000002E-002     0.0000000000000000     
  -3.9750000000000001E-002     0.0000000000000000     
  -3.9699999999999999E-002     0.0000000000000000     
  -3.9649999999999998E-002     0.0000000000000000     
  -3.9600000000000003E-002     0.0000000000000000     
  -3.9550000000000002E-002     0.0000000000000000     
  -3.9500000000000000E-002     0.0000000000000000     
  -3.9449999999999999E-002     0.0000000000000000     
  -3.9399999999999998E-002     0.0000000000000000     
  -3.9350000000000003E-002     0.0000000000000000     
  -3.9300000000000002E-002     0.0000000000000000     
  -3.9250000000000000E-002     0.0000000000000000     
  -3.9199999999999999E-002     0.0000000000000000     
  -3.9150000000000004E-002     0.0000000000000000     
  -3.9100000000000003E-002     0.0000000000000000     
  -3.9050000000000001E-002     0.0000000000000000     
  -3.9000000000000000E-002     0.0000000000000000     
  -3.8949999999999999E-002     0.0000000000000000     
  -3.8900000000000004E-002     0.0000000000000000     
  -3.8850000000000003E-002     0.0000000000000000     
  -3.8800000000000001E-002     0.0000000000000000     
  -3.8750000000000000E-002     0.0000000000000000     
  -3.8699999999999998E-002     0.0000000000000000     
  -3.8650000000000004E-002     0.0000000000000000     
  -3.8600000000000002E-002     0.0000000000000000     
  -3.8550000000000001E-002     0.0000000000000000     
  -3.8500000000000000E-002     0.0000000000000000     
  -3.8449999999999998E-002     0.0000000000000000     
  -3.8400000000000004E-002     0.0000000000000000     
  -3.8350000000000002E-002     0.0000000000000000     
  -3.8300000000000001E-002     0.0000000000000000     
  -3.8249999999999999E-002     0.0000000000000000     
  -3.8199999999999998E-002     0.0000000000000000     
  -3.8150000000000003E-002     0.0000000000000000     
  -3.8100000000000002E-002     0.0000000000000000     
  -3.8050000000000000E-002     0.0000000000000000     
  -3.7999999999999999E-002     0.0000000000000000     
  -3.7949999999999998E-002     0.0000000000000000     
  -3.7900000000000003E-002     0.0000000000000000     
  -3.7850000000000002E-002     0.0000000000000000     
  -3.7800000000000000E-002     0.0000000000000000     
  -3.7749999999999999E-002     0.0000000000000000     
  -3.7699999999999997E-002     0.0000000000000000     
  -3.7650000000000003E-002     0.0000000000000000     
  -3.7600000000000001E-002     0.0000000000000000     
  -3.7550000000000000E-002     0.0000000000000000     
  -3.7499999999999999E-002     0.0000000000000000     
  -3.7449999999999997E-002     0.0000000000000000     
  -3.7400000000000003E-002     0.0000000000000000     
  -3.7350000000000001E-002     0.0000000000000000     
  -3.7300000000000000E-002     0.0000000000000000     
  -3.7249999999999998E-002     0.0000000000000000     
  -3.7200000000000004E-002     0.0000000000000000     
  -3.7150000000000002E-002     0.0000000000000000     
  -3.7100000000000001E-002     0.0000000000000000     
  -3.7050000000000000E-002     0.0000000000000000     
  -3.6999999999999998E-002     0.0000000000000000     
  -3.6950000000000004E-002     0.0000000000000000     
  -3.6900000000000002E-002     0.0000000000000000     
  -3.6850000000000001E-002     0.0000000000000000     
  -3.6799999999999999E-002     0.0000000000000000     
  -3.6749999999999998E-002     0.0000000000000000     
  -3.6700000000000003E-002     0.0000000000000000     
  -3.6650000000000002E-002     0.0000000000000000     
  -3.6600000000000001E-002     0.0000000000000000     
  -3.6549999999999999E-002     0.0000000000000000     
  -3.6499999999999998E-002     0.0000000000000000     
  -3.6450000000000003E-002     0.0000000000000000     
  -3.6400000000000002E-002     0.0000000000000000     
  -3.6350000000000000E-002     0.0000000000000000     
  -3.6299999999999999E-002     0.0000000000000000     
  -3.6249999999999998E-002     0.0000000000000000     
  -3.6200000000000003E-002     0.0000000000000000     
  -3.6150000000000002E-002     0.0000000000000000     
  -3.6100000000000000E-002     0.0000000000000000     
  -3.6049999999999999E-002     0.0000000000000000     
  -3.6000000000000004E-002     0.0000000000000000     
  -3.5950000000000003E-002     5.2949261985998675E-038
  -3.5900000000000001E-002     1.0473498662071145E-037
  -3.5850000000000000E-002     1.2634480260263447E-037
  -3.5799999999999998E-002     7.1355362156456006E-038
  -3.5750000000000004E-002    -1.0265917033798696E-037
  -3.5700000000000003E-002    -4.2164034951708917E-037
  -3.5650000000000001E-002    -8.3322327727525083E-037
  -3.5600000000000000E-002    -1.1395534890768777E-036
  -3.5549999999999998E-002    -9.9977188212836231E-037
  -3.5500000000000004E-002    -5.8517730613144919E-038
  -3.5450000000000002E-002     1.7717438430085897E-036
  -3.5400000000000001E-002     4.0231373078022301E-036
  -3.5349999999999999E-002     5.5939149516949581E-036
  -3.5299999999999998E-002     5.1005746663342293E-036
  -3.5250000000000004E-002     1.6862550405928921E-036
  -3.5200000000000002E-002    -4.0537282137978266E-036
  -3.5150000000000001E-002    -9.6897554801997335E-036
  -3.5099999999999999E-002    -1.1861489902921675E-035
  -3.5049999999999998E-002    -8.6569734904069644E-036
  -3.5000000000000003E-002    -2.4920214775451413E-036
  -3.4950000000000002E-002    -1.2045337391581836E-036
  -3.4900000000000000E-002    -1.4681462394430326E-035
  -3.4849999999999999E-002    -4.5998408343214871E-035
  -3.4799999999999998E-002    -8.0116230740025716E-035
  -3.4750000000000003E-002    -7.8115307470298384E-035
  -3.4700000000000002E-002     1.2770368589241784E-035
  -3.4650000000000000E-002     2.2755258673303709E-034
  -3.4599999999999999E-002     5.3740869613584285E-034
  -3.4549999999999997E-002     8.1323738944808679E-034
  -3.4500000000000003E-002     8.3344588221314892E-034
  -3.4450000000000001E-002     3.6155646316838160E-034
  -3.4400000000000000E-002    -7.1519918612634062E-034
  -3.4349999999999999E-002    -2.2440727149914878E-033
  -3.4299999999999997E-002    -3.7530816291069364E-033
  -3.4250000000000003E-002    -4.5583448505881286E-033
  -3.4200000000000001E-002    -4.0193046509452910E-033
  -3.4150000000000000E-002    -1.8076985389105379E-033
  -3.4099999999999998E-002     2.0122953510520725E-033
  -3.4049999999999997E-002     7.2084435999292042E-033
  -3.4000000000000002E-002     1.3748189605977888E-032
  -3.3950000000000001E-002     2.1802969302031969E-032
  -3.3900000000000000E-002     3.0764144774014284E-032
  -3.3849999999999998E-002     3.7101775546698614E-032
  -3.3799999999999997E-002     3.2052386665495691E-032
  -3.3750000000000002E-002     1.5669001741835231E-033
  -3.3700000000000001E-002    -6.8370142745026364E-032
  -3.3649999999999999E-002    -1.7938549256118961E-031
  -3.3599999999999998E-002    -3.0402381685571321E-031
  -3.3550000000000003E-002    -3.7377259700779922E-031
  -3.3500000000000002E-002    -2.8590201978524457E-031
  -3.3450000000000001E-002     5.8120648974429838E-032
  -3.3399999999999999E-002     6.8191273647133490E-031
  -3.3349999999999998E-002     1.4528780097349763E-030
  -3.3300000000000003E-002     2.0368580548901528E-030
  -3.3250000000000002E-002     1.9466837203289696E-030
  -3.3200000000000000E-002     7.2306749899023368E-031
  -3.3149999999999999E-002    -1.7724147079890561E-030
  -3.3099999999999997E-002    -5.0574363625484264E-030
  -3.3050000000000003E-002    -7.8994604637405249E-030
  -3.3000000000000002E-002    -8.5386262070848852E-030
  -3.2950000000000000E-002    -5.3387515328471014E-030
  -3.2899999999999999E-002     2.2705403133025474E-030
  -3.2850000000000004E-002     1.2941189964812812E-029
  -3.2800000000000003E-002     2.3162246129054471E-029
  -3.2750000000000001E-002     2.8035473310953334E-029
  -3.2700000000000000E-002     2.3080275240429258E-029
  -3.2649999999999998E-002     6.4950091537170523E-030
  -3.2600000000000004E-002    -1.9171344630724624E-029
  -3.2550000000000003E-002    -4.6997267735932013E-029
  -3.2500000000000001E-002    -6.7732711232007659E-029
  -3.2450000000000000E-002    -7.3186312888749308E-029
  -3.2399999999999998E-002    -5.9190146648649778E-029
  -3.2350000000000004E-002    -2.6231936214531907E-029
  -3.2300000000000002E-002     2.2871563115135675E-029
  -3.2250000000000001E-002     8.6466177634282616E-029
  -3.2199999999999999E-002     1.6472829092852664E-028
  -3.2149999999999998E-002     2.5355662163960020E-028
  -3.2100000000000004E-002     3.3150088427064741E-028
  -3.2050000000000002E-002     3.4653517489902027E-028
  -3.2000000000000001E-002     2.1631746616216053E-028
  -3.1949999999999999E-002    -1.4337146118222214E-028
  -3.1899999999999998E-002    -7.5716086870837566E-028
  -3.1850000000000003E-002    -1.5120689771608016E-027
  -3.1800000000000002E-002    -2.1049262586045744E-027
  -3.1750000000000000E-002    -2.0719518342477372E-027
  -3.1699999999999999E-002    -9.4383076189963352E-028
  -3.1649999999999998E-002     1.4811522163565477E-027
  -3.1600000000000003E-002     4.8322437417571055E-027
  -3.1550000000000002E-002     7.9902280494237884E-027
  -3.1500000000000000E-002     9.2222623830318138E-027
  -3.1449999999999999E-002     6.7354269127571726E-027
  -3.1399999999999997E-002    -4.2022712865760629E-028
  -3.1350000000000003E-002    -1.1399172584423794E-026
  -3.1300000000000001E-002    -2.3038223595280908E-026
  -3.1250000000000000E-002    -3.0247950045814303E-026
  -3.1199999999999999E-002    -2.7545882659790655E-026
  -3.1150000000000001E-002    -1.1471790158162904E-026
  -3.1100000000000003E-002     1.6930267739893008E-026
  -3.1050000000000001E-002     5.0734146982947017E-026
  -3.1000000000000000E-002     7.7923390557867910E-026
  -3.0949999999999998E-002     8.4742310385574158E-026
  -3.0900000000000000E-002     6.0908696212188788E-026
  -3.0850000000000002E-002     4.9181363654168875E-027
  -3.0800000000000001E-002    -7.2838676659701082E-026
  -3.0750000000000000E-002    -1.5096559333111601E-025
  -3.0699999999999998E-002    -2.0235573978651252E-025
  -3.0650000000000000E-002    -2.0243063226870194E-025
  -3.0600000000000002E-002    -1.3745186368280774E-025
  -3.0550000000000001E-002    -9.8917117798409282E-027
  -3.0499999999999999E-002     1.6077585522249287E-025
  -3.0449999999999998E-002     3.4124577085524803E-025
  -3.0400000000000000E-002     4.8911856105173520E-025
  -3.0350000000000002E-002     5.5690616749828197E-025
  -3.0300000000000001E-002     4.9544098538424216E-025
  -3.0249999999999999E-002     2.6039122585558755E-025
  -3.0200000000000001E-002    -1.7243144766045634E-025
  -3.0150000000000000E-002    -7.7989850856537616E-025
  -3.0100000000000002E-002    -1.4578943319770177E-024
  -3.0050000000000000E-002    -1.9983976653692326E-024
  -2.9999999999999999E-002    -2.1034703880705979E-024
  -2.9950000000000001E-002    -1.4598834447495325E-024
  -2.9899999999999999E-002     1.2157194574928905E-025
  -2.9850000000000002E-002     2.5335023305489543E-024
  -2.9800000000000000E-002     5.2367383400479772E-024
  -2.9749999999999999E-002     7.2557524907447083E-024
  -2.9700000000000001E-002     7.3819812796327433E-024
  -2.9650000000000003E-002     4.5971953935499142E-024
  -2.9600000000000001E-002    -1.3749032065193727E-024
  -2.9550000000000000E-002    -9.5875472293484023E-024
  -2.9499999999999998E-002    -1.7716086748159681E-023
  -2.9450000000000000E-002    -2.2443413031065306E-023
  -2.9400000000000003E-002    -2.0439215660320888E-023
  -2.9350000000000001E-002    -9.7390108897335523E-024
  -2.9300000000000000E-002     8.9215585098637101E-024
  -2.9249999999999998E-002     3.1400343275058221E-023
  -2.9200000000000000E-002     5.0580719946376385E-023
  -2.9150000000000002E-002     5.8135154897360399E-023
  -2.9100000000000001E-002     4.7319834021456877E-023
  -2.9049999999999999E-002     1.5995592157925327E-023
  -2.8999999999999998E-002    -3.1231886761913705E-023
  -2.8950000000000000E-002    -8.2785701344760038E-023
  -2.8900000000000002E-002    -1.2233840458252359E-022
  -2.8850000000000001E-002    -1.3320902145243949E-022
  -2.8799999999999999E-002    -1.0382955680082749E-022
  -2.8749999999999998E-002    -3.2628422999644567E-023
  -2.8700000000000000E-002     6.9335130661536929E-023
  -2.8650000000000002E-002     1.7908955035332804E-022
  -2.8600000000000000E-002     2.6598064793192651E-022
  -2.8549999999999999E-002     2.9858943145047469E-022
  -2.8500000000000001E-002     2.5284819645278644E-022
  -2.8450000000000000E-002     1.1968294731425586E-022
  -2.8400000000000002E-002    -8.9278089703601383E-023
  -2.8350000000000000E-002    -3.3908192677273338E-022
  -2.8299999999999999E-002    -5.7294838804102355E-022
  -2.8250000000000001E-002    -7.1903305834896107E-022
  -2.8200000000000003E-002    -7.0356790099687179E-022
  -2.8150000000000001E-002    -4.7065264189720987E-022
  -2.8100000000000000E-002    -6.7545173713154244E-024
  -2.8049999999999999E-002     6.3557101921850075E-022
  -2.8000000000000001E-002     1.3240089971935660E-021
  -2.7950000000000003E-002     1.8540912137594081E-021
  -2.7900000000000001E-002     1.9870609011240907E-021
  -2.7850000000000000E-002     1.5190520665973003E-021
  -2.7799999999999998E-002     3.6973559742378181E-022
  -2.7750000000000000E-002    -1.3356626310871170E-021
  -2.7700000000000002E-002    -3.2266290153324492E-021
  -2.7650000000000001E-002    -4.7239186183652364E-021
  -2.7600000000000000E-002    -5.1694369653753033E-021
  -2.7549999999999998E-002    -4.0354535288185805E-021
  -2.7500000000000000E-002    -1.1620674906277661E-021
  -2.7450000000000002E-002     3.0577563370396623E-021
  -2.7400000000000001E-002     7.6334472592509505E-021
  -2.7349999999999999E-002     1.1134738002300260E-020
  -2.7299999999999998E-002     1.2056629179403475E-020
  -2.7250000000000000E-002     9.3192203450012803E-021
  -2.7200000000000002E-002     2.7599236567001225E-021
  -2.7150000000000001E-002    -6.5593104207917959E-021
  -2.7099999999999999E-002    -1.6384648170608322E-020
  -2.7049999999999998E-002    -2.3713426392562666E-020
  -2.7000000000000000E-002    -2.5590018090284188E-020
  -2.6950000000000002E-002    -2.0063929763785716E-020
  -2.6900000000000000E-002    -7.0283404073614023E-021
  -2.6849999999999999E-002     1.1352666166378171E-020
  -2.6800000000000001E-002     3.0833952201783982E-020
  -2.6749999999999999E-002     4.5938079547720468E-020
  -2.6700000000000002E-002     5.1309428554121838E-020
  -2.6650000000000000E-002     4.3254608705370412E-020
  -2.6599999999999999E-002     2.1067202911584505E-020
  -2.6550000000000001E-002    -1.2239625118472360E-020
  -2.6500000000000003E-002    -5.0044788950976166E-020
  -2.6450000000000001E-002    -8.3144014034327828E-020
  -2.6400000000000000E-002    -1.0156406611791932E-019
  -2.6349999999999998E-002    -9.6881461293741984E-020
  -2.6300000000000000E-002    -6.4645315169058444E-020
  -2.6250000000000002E-002    -6.4292532331327381E-021
  -2.6200000000000001E-002     6.9004363126756833E-020
  -2.6150000000000000E-002     1.4594065162016415E-019
  -2.6099999999999998E-002     2.0376268316324338E-019
  -2.6050000000000000E-002     2.2096770386222250E-019
  -2.6000000000000002E-002     1.8082738169550022E-019
  -2.5950000000000001E-002     7.7717696291282895E-020
  -2.5899999999999999E-002    -7.7534159130524156E-020
  -2.5849999999999998E-002    -2.5536823268313640E-019
  -2.5800000000000000E-002    -4.1022321589432845E-019
  -2.5750000000000002E-002    -4.8929821863558283E-019
  -2.5700000000000001E-002    -4.4664661490324078E-019
  -2.5649999999999999E-002    -2.5975590884484736E-019
  -2.5599999999999998E-002     5.6139274758507878E-020
  -2.5550000000000000E-002     4.4159099039689324E-019
  -2.5500000000000002E-002     7.9895364283632674E-019
  -2.5450000000000000E-002     1.0125836342797445E-018
  -2.5399999999999999E-002     9.8049264542786691E-019
  -2.5349999999999998E-002     6.5001263911337083E-019
  -2.5300000000000000E-002     4.6697576752886198E-020
  -2.5250000000000002E-002    -7.1470410837567032E-019
  -2.5200000000000000E-002    -1.4449762728674715E-018
  -2.5149999999999999E-002    -1.9218104306355287E-018
  -2.5100000000000001E-002    -1.9502127109433026E-018
  -2.5049999999999999E-002    -1.4266606329491692E-018
  -2.5000000000000001E-002    -3.8774230800151541E-019
  -2.4950000000000000E-002     9.7433635371894101E-019
  -2.4899999999999999E-002     2.3394375850964545E-018
  -2.4850000000000001E-002     3.3286802504414839E-018
  -2.4800000000000003E-002     3.6008210176102049E-018
  -2.4750000000000001E-002     2.9519480782845673E-018
  -2.4700000000000000E-002     1.3912698138386645E-018
  -2.4649999999999998E-002    -8.2995807825482760E-019
  -2.4600000000000000E-002    -3.2485165229177449E-018
  -2.4550000000000002E-002    -5.2761417586674351E-018
  -2.4500000000000001E-002    -6.3271996311885523E-018
  -2.4450000000000000E-002    -5.9610708805087998E-018
  -2.4399999999999998E-002    -4.0091293620852614E-018
  -2.4350000000000000E-002    -6.5800087738516027E-019
  -2.4299999999999999E-002     3.5328892233945938E-018
  -2.4250000000000001E-002     7.6922287944551971E-018
  -2.4199999999999999E-002     1.0777767162052538E-017
  -2.4150000000000001E-002     1.1785580032149383E-017
  -2.4100000000000000E-002     1.0000146248720012E-017
  -2.4049999999999998E-002     5.2403207022408263E-018
  -2.4000000000000000E-002    -1.9591652867129640E-018
  -2.3949999999999999E-002    -1.0297781549548230E-017
  -2.3900000000000001E-002    -1.7847844466485163E-017
  -2.3850000000000000E-002    -2.2405627839625822E-017
  -2.3800000000000002E-002    -2.2023356245701791E-017
  -2.3750000000000000E-002    -1.5622596269819510E-017
  -2.3699999999999999E-002    -3.5294878567157757E-018
  -2.3650000000000001E-002     1.2255073685764068E-017
  -2.3599999999999999E-002     2.8209830120818534E-017
  -2.3550000000000001E-002     3.9941282762404897E-017
  -2.3500000000000000E-002     4.3254210598851227E-017
  -2.3449999999999999E-002     3.5418255864242491E-017
  -2.3400000000000001E-002     1.6284868501092741E-017
  -2.3349999999999999E-002    -1.1123507151403777E-017
  -2.3300000000000001E-002    -4.0845235661970196E-017
  -2.3250000000000000E-002    -6.5126153087786411E-017
  -2.3199999999999998E-002    -7.6306273307493930E-017
  -2.3150000000000000E-002    -6.9010752063013040E-017
  -2.3099999999999999E-002    -4.2043906396343239E-017
  -2.3050000000000001E-002     6.1592778309372249E-019
  -2.3000000000000000E-002     5.0136194476614807E-017
  -2.2950000000000002E-002     9.4543263238793440E-017
  -2.2900000000000000E-002     1.2151060852255322E-016
  -2.2849999999999999E-002     1.2156541420121854E-016
  -2.2800000000000001E-002     9.0885417630524748E-017
  -2.2749999999999999E-002     3.2912679466705068E-017
  -2.2700000000000001E-002    -4.1715896196241461E-017
  -2.2650000000000000E-002    -1.1700849605899861E-016
  -2.2599999999999999E-002    -1.7488043399337258E-016
  -2.2550000000000001E-002    -1.9915118371509929E-016
  -2.2499999999999999E-002    -1.7942690980753964E-016
  -2.2450000000000001E-002    -1.1405080259097440E-016
  -2.2400000000000000E-002    -1.1489877852412701E-017
  -2.2349999999999998E-002     1.1020193781821006E-016
  -2.2300000000000000E-002     2.2591353379073373E-016
  -2.2249999999999999E-002     3.0778538266194985E-016
  -2.2200000000000001E-002     3.3080101484430290E-016
  -2.2150000000000000E-002     2.7886529556252389E-016
  -2.2100000000000002E-002     1.5026255958194921E-016
  -2.2050000000000000E-002    -3.8853550183065016E-017
  -2.1999999999999999E-002    -2.5432087478949523E-016
  -2.1950000000000001E-002    -4.4822140714368352E-016
  -2.1899999999999999E-002    -5.6774956152296765E-016
  -2.1850000000000001E-002    -5.6767766960156944E-016
  -2.1800000000000000E-002    -4.2399097089629019E-016
  -2.1749999999999999E-002    -1.4513546915221893E-016
  -2.1700000000000001E-002     2.2302205447638317E-016
  -2.1649999999999999E-002     6.0158408084280387E-016
  -2.1600000000000001E-002     8.9334510892013965E-016
  -2.1550000000000000E-002     1.0058701537102028E-015
  -2.1499999999999998E-002     8.7791195686292949E-016
  -2.1450000000000000E-002     5.0203584550247257E-016
  -2.1399999999999999E-002    -6.3936455608698344E-017
  -2.1350000000000001E-002    -7.0200814825059610E-016
  -2.1299999999999999E-002    -1.2568562862561375E-015
  -2.1250000000000002E-002    -1.5725344542695009E-015
  -2.1200000000000000E-002    -1.5344228420825041E-015
  -2.1149999999999999E-002    -1.1051585087544047E-015
  -2.1100000000000001E-002    -3.4374997808589382E-016
  -2.1049999999999999E-002     5.9915108458093429E-016
  -2.1000000000000001E-002     1.5106675913185205E-015
  -2.0950000000000000E-002     2.1637979680456032E-015
  -2.0899999999999998E-002     2.3727194915188236E-015
  -2.0850000000000000E-002     2.0414144126615656E-015
  -2.0799999999999999E-002     1.1931591968643773E-015
  -2.0750000000000001E-002    -2.6796456386651228E-017
  -2.0700000000000000E-002    -1.3763796231355341E-015
  -2.0649999999999998E-002    -2.5641440671588488E-015
  -2.0600000000000000E-002    -3.3088245176822548E-015
  -2.0549999999999999E-002    -3.3989611052478476E-015
  -2.0500000000000001E-002    -2.7414420390628035E-015
  -2.0449999999999999E-002    -1.3905007211574474E-015
  -2.0400000000000001E-002     4.4803553635132040E-016
  -2.0350000000000000E-002     2.4394337122687036E-015
  -2.0299999999999999E-002     4.1691808696803917E-015
  -2.0250000000000001E-002     5.2150264256989060E-015
  -2.0199999999999999E-002     5.2343104012925711E-015
  -2.0150000000000001E-002     4.0535231794140269E-015
  -2.0100000000000000E-002     1.7414696698852140E-015
  -2.0049999999999998E-002    -1.3559815874579929E-015
  -2.0000000000000000E-002    -4.6397572233075699E-015
  -1.9949999999999999E-002    -7.3510118551631774E-015
  -1.9900000000000001E-002    -8.7284686924493822E-015
  -1.9850000000000000E-002    -8.2031236119692146E-015
  -1.9799999999999998E-002    -5.5847711302519851E-015
  -1.9750000000000000E-002    -1.1850530915591536E-015
  -1.9699999999999999E-002     4.1725791658647760E-015
  -1.9650000000000001E-002     9.2824214636901166E-015
  -1.9599999999999999E-002     1.2815098578123317E-014
  -1.9550000000000001E-002     1.3653537529094775E-014
  -1.9500000000000000E-002     1.1222287002129495E-014
  -1.9449999999999999E-002     5.7147017491960585E-015
  -1.9400000000000001E-002    -1.8608132240215559E-015
  -1.9349999999999999E-002    -9.8510211286547723E-015
  -1.9300000000000001E-002    -1.6320618969234597E-014
  -1.9250000000000000E-002    -1.9525378289566610E-014
  -1.9199999999999998E-002    -1.8374833108520360E-014
  -1.9150000000000000E-002    -1.2758232174176452E-014
  -1.9099999999999999E-002    -3.6389382446991997E-015
  -1.9050000000000001E-002     7.1172968302908764E-015
  -1.9000000000000000E-002     1.7143457267383526E-014
  -1.8949999999999998E-002     2.4104099589244456E-014
  -1.8900000000000000E-002     2.6229683030599971E-014
  -1.8849999999999999E-002     2.2726417441194281E-014
  -1.8800000000000001E-002     1.3972932477680691E-014
  -1.8749999999999999E-002     1.4711875974052343E-015
  -1.8700000000000001E-002    -1.2424597754714245E-014
  -1.8650000000000000E-002    -2.4936582204530822E-014
  -1.8599999999999998E-002    -3.3367653394034483E-014
  -1.8550000000000001E-002    -3.5602312656139723E-014
  -1.8499999999999999E-002    -3.0537496088691579E-014
  -1.8450000000000001E-002    -1.8387587730640115E-014
  -1.8400000000000000E-002    -8.1144888138191037E-016
  -1.8349999999999998E-002     1.9190268338710285E-014
  -1.8300000000000000E-002     3.7649499810095063E-014
  -1.8249999999999999E-002     5.0285303536141274E-014
  -1.8200000000000001E-002     5.3383346869514611E-014
  -1.8149999999999999E-002     4.4759701045386791E-014
  -1.8100000000000002E-002     2.4587679169161408E-014
  -1.8050000000000000E-002    -4.1734935379313370E-015
  -1.7999999999999999E-002    -3.5974410841736748E-014
  -1.7950000000000001E-002    -6.3598479510106748E-014
  -1.7899999999999999E-002    -7.9719800097181881E-014
  -1.7850000000000001E-002    -7.8787027086874711E-014
  -1.7800000000000000E-002    -5.8756791749756121E-014
  -1.7749999999999998E-002    -2.2151644600110036E-014
  -1.7700000000000000E-002     2.3971935344418473E-014
  -1.7649999999999999E-002     6.9298882496120207E-014
  -1.7600000000000001E-002     1.0257741785970817E-013
  -1.7550000000000000E-002     1.1445502206587632E-013
  -1.7499999999999998E-002     1.0008474897373748E-013
  -1.7450000000000000E-002     6.0753973466637357E-014
  -1.7399999999999999E-002     4.0100742008681439E-015
  -1.7350000000000001E-002    -5.7845458837409852E-014
  -1.7299999999999999E-002    -1.1056684268238165E-013
  -1.7250000000000001E-002    -1.4137309216084165E-013
  -1.7200000000000000E-002    -1.4207427281084234E-013
  -1.7149999999999999E-002    -1.1110962139498221E-013
  -1.7100000000000001E-002    -5.3999099164587019E-014
  -1.7049999999999999E-002     1.7856064391842674E-014
  -1.7000000000000001E-002     8.9662537106332402E-014
  -1.6950000000000000E-002     1.4636486738318216E-013
  -1.6899999999999998E-002     1.7568796894726346E-013
  -1.6850000000000000E-002     1.7048741704408371E-013
  -1.6799999999999999E-002     1.3005327609109940E-013
  -1.6750000000000001E-002     6.0282548809513503E-014
  -1.6700000000000000E-002    -2.7170814562030646E-014
  -1.6649999999999998E-002    -1.1657946201275304E-013
  -1.6600000000000000E-002    -1.9047827551355034E-013
  -1.6549999999999999E-002    -2.3248685420383663E-013
  -1.6500000000000001E-002    -2.3040076790881159E-013
  -1.6449999999999999E-002    -1.7917827323851027E-013
  -1.6400000000000001E-002    -8.3234458279728141E-014
  -1.6350000000000000E-002     4.2699554287338459E-014
  -1.6299999999999999E-002     1.7485044987407272E-013
  -1.6250000000000001E-002     2.8416258603981837E-013
  -1.6199999999999999E-002     3.4226183627701634E-013
  -1.6150000000000001E-002     3.2856334840347667E-013
  -1.6100000000000000E-002     2.3679799440734506E-013
  -1.6049999999999998E-002     7.8967716155182999E-014
  -1.6000000000000000E-002    -1.1492496949754016E-013
  -1.5949999999999999E-002    -3.0206943175091483E-013
  -1.5900000000000001E-002    -4.3628420104066534E-013
  -1.5850000000000000E-002    -4.7962713444968386E-013
  -1.5799999999999998E-002    -4.1315518714557520E-013
  -1.5750000000000000E-002    -2.4368587659903684E-013
  -1.5699999999999999E-002    -4.2513701706183710E-015
  -1.5650000000000001E-002     2.5242289270095697E-013
  -1.5599999999999999E-002     4.6610453127357565E-013
  -1.5550000000000001E-002     5.8387610068003082E-013
  -1.5500000000000000E-002     5.7366833722607979E-013
  -1.5449999999999998E-002     4.3282353612630886E-013
  -1.5400000000000000E-002     1.8934315649653949E-013
  -1.5349999999999999E-002    -1.0449864443814322E-013
  -1.5300000000000001E-002    -3.8440431393560459E-013
  -1.5250000000000000E-002    -5.8888674102017258E-013
  -1.5199999999999998E-002    -6.7291246359790780E-013
  -1.5150000000000000E-002    -6.1718745348812720E-013
  -1.5099999999999999E-002    -4.3133747441859160E-013
  -1.5050000000000001E-002    -1.5094619076807397E-013
  -1.4999999999999999E-002     1.7015966272734134E-013
  -1.4949999999999998E-002     4.7023642575291791E-013
  -1.4900000000000000E-002     6.9043132756158032E-013
  -1.4849999999999999E-002     7.8449134124566888E-013
  -1.4800000000000001E-002     7.2647291828042970E-013
  -1.4749999999999999E-002     5.1598737218702673E-013
  -1.4700000000000001E-002     1.8052944664344317E-013
  -1.4650000000000000E-002    -2.2583370178248796E-013
  -1.4599999999999998E-002    -6.2832481188476730E-013
  -1.4550000000000000E-002    -9.4246149513060873E-013
  -1.4499999999999999E-002    -1.0897331214482220E-012
  -1.4450000000000001E-002    -1.0158103741844671E-012
  -1.4400000000000000E-002    -7.0739838682956635E-013
  -1.4349999999999998E-002    -2.0279532718901760E-013
  -1.4300000000000000E-002     4.0841825364387740E-013
  -1.4249999999999999E-002     9.9904633177327895E-013
  -1.4200000000000001E-002     1.4302701818041941E-012
  -1.4149999999999999E-002     1.5849356332572895E-012
  -1.4099999999999998E-002     1.3999194598685039E-012
  -1.4050000000000000E-002     8.8827756998879903E-013
  -1.3999999999999999E-002     1.4357100035743142E-013
  -1.3950000000000001E-002    -6.7688785349365177E-013
  -1.3899999999999999E-002    -1.3872585805790871E-012
  -1.3850000000000001E-002    -1.8185951876359407E-012
  -1.3800000000000000E-002    -1.8625817034545467E-012
  -1.3749999999999998E-002    -1.5014372124061426E-012
  -1.3700000000000000E-002    -8.1521876922618919E-013
  -1.3649999999999999E-002     3.6121659049287436E-014
  -1.3600000000000001E-002     8.5152289950110593E-013
  -1.3550000000000000E-002     1.4382069753876570E-012
  -1.3499999999999998E-002     1.6586273370380877E-012
  -1.3450000000000000E-002     1.4629163765794706E-012
  -1.3399999999999999E-002     8.9916735081935206E-013
  -1.3350000000000001E-002     1.0017343671144679E-013
  -1.3299999999999999E-002    -7.4858012583806088E-013
  -1.3249999999999998E-002    -1.4506581699769150E-012
  -1.3200000000000000E-002    -1.8399043139744053E-012
  -1.3149999999999998E-002    -1.8126018264466581E-012
  -1.3100000000000001E-002    -1.3455888963828655E-012
  -1.3049999999999999E-002    -4.9930562072073026E-013
  -1.3000000000000001E-002     5.9228734113417336E-013
  -1.2950000000000000E-002     1.7416902338765472E-012
  -1.2899999999999998E-002     2.7346907290753952E-012
  -1.2850000000000000E-002     3.3617236598615374E-012
  -1.2799999999999999E-002     3.4516875035278671E-012