  -4.0000000000000001E-002     0.0000000000000000     
  -3.9949999999999999E-002     0.0000000000000000     
  -3.9899999999999998E-002     0.0000000000000000     
  -3.9850000000000003E-002     0.0000000000000000     
  -3.9800000000000002E-002     0.0000000000000000     
  -3.9750000000000001E-002     0.0000000000000000     
  -3.9699999999999999E-002     0.0000000000000000     
  -3.9649999999999998E-002     0.0000000000000000     
  -3.9600000000000003E-002     0.0000000000000000     
  -3.9550000000000002E-002     0.0000000000000000     
  -3.9500000000000000E-002     0.0000000000000000     
  -3.9449999999999999E-002     0.0000000000000000     
  -3.9399999999999998E-002     0.0000000000000000     
  -3.9350000000000003E-002    -1.0491280550875782E-036
  -3.9300000000000002E-002    -1.8189316151389222E-035
  -3.9250000000000000E-002    -1.4812813447584003E-034
  -3.9199999999999999E-002    -7.0857086659048613E-034
  -3.9150000000000004E-002    -1.8214937323213155E-033
  -3.9100000000000003E-002     9.5687117708034188E-034
  -3.9050000000000001E-002     3.4141113817246281E-032
  -3.9000000000000000E-002     1.8665219229641212E-031
  -3.8949999999999999E-002     6.4274203124222702E-031
  -3.8900000000000004E-002     1.5285364032415161E-030
  -3.8850000000000003E-002     2.1080234220047676E-030
  -3.8800000000000001E-002    -1.2958937885674146E-030
  -3.8750000000000000E-002    -1.8379833958052665E-029
  -3.8699999999999998E-002    -6.5058814054674983E-029
  -3.8650000000000004E-002    -1.4968235232838530E-028
  -3.8600000000000002E-002    -2.2717129994164479E-028
  -3.8550000000000001E-002    -1.1047909281529220E-028
  -3.8500000000000000E-002     6.2357381861715953E-028
  -3.8449999999999998E-002     2.5882671938277917E-027
  -3.8400000000000004E-002     6.1128247679858337E-027
  -3.8350000000000002E-002     1.0015878415734539E-026
  -3.8300000000000001E-002     9.6479330588807481E-027
  -3.8249999999999999E-002    -4.7489309456874043E-027
  -3.8199999999999998E-002    -4.6634001920515842E-026
  -3.8150000000000003E-002    -1.2453177271998528E-025
  -3.8100000000000002E-002    -2.2286992989172238E-025
  -3.8050000000000000E-002    -2.7504882452436502E-025
  -3.7999999999999999E-002    -1.4423154918531181E-025
  -3.7949999999999998E-002     3.5659820292772693E-025
  -3.7900000000000003E-002     1.3658620671059971E-024
  -3.7850000000000002E-002     2.7755969863297059E-024
  -3.7800000000000000E-002     3.9778842563084716E-024
  -3.7749999999999999E-002     3.7040311134627324E-024
  -3.7699999999999997E-002     2.0829284160024652E-025
  -3.7650000000000003E-002    -7.9433384733847656E-024
  -3.7600000000000001E-002    -2.0417684594832061E-023
  -3.7550000000000000E-002    -3.3395324305788674E-023
  -3.7499999999999999E-002    -3.8618442924272016E-023
  -3.7449999999999997E-002    -2.4687536449849426E-023
  -3.7400000000000003E-002     1.8161346004461671E-023
  -3.7350000000000001E-002     8.9984689078977859E-023
  -3.7300000000000000E-002     1.7251682532994165E-022
  -3.7249999999999998E-002     2.2556209626232809E-022
  -3.7200000000000004E-002     1.9508952811466354E-022
  -3.7150000000000002E-002     3.6989681853518543E-023
  -3.7100000000000001E-002    -2.4734401560489544E-022
  -3.7050000000000000E-002    -5.7871691318270133E-022
  -3.6999999999999998E-002    -7.9559266892982000E-022
  -3.6950000000000004E-002    -7.0111060783521324E-022
  -3.6900000000000002E-002    -1.6762019630813561E-022
  -3.6850000000000001E-002     7.3055767318528955E-022
  -3.6799999999999999E-002     1.6262594965579469E-021
  -3.6749999999999998E-002     1.9027927734528791E-021
  -3.6700000000000003E-002     9.3874515784300422E-022
  -3.6650000000000002E-002    -1.4666478414712548E-021
  -3.6600000000000001E-002    -4.6443331984123786E-021
  -3.6549999999999999E-002    -6.8644720704698120E-021
  -3.6499999999999998E-002    -5.7106466105114855E-021
  -3.6450000000000003E-002     8.3141632848795374E-022
  -3.6400000000000002E-002     1.2778241700701580E-020
  -3.6350000000000000E-002     2.6709531606757416E-020
  -3.6299999999999999E-002     3.5478808265669975E-020
  -3.6249999999999998E-002     2.9988941150825855E-020
  -3.6200000000000003E-002     3.2657923055379072E-021
  -3.6150000000000002E-002    -4.4163539735571008E-020
  -3.6100000000000000E-002    -9.9931079135358353E-020
  -3.6049999999999999E-002    -1.3961356405992717E-019
  -3.6000000000000004E-002    -1.3309970727696500E-019
  -3.5950000000000003E-002    -5.7619302102426345E-020
  -3.5900000000000001E-002     8.6164629731665715E-020
  -3.5850000000000000E-002     2.6216720812955327E-019
  -3.5799999999999998E-002     3.9956474992294705E-019
  -3.5750000000000004E-002     4.1211193427337146E-019
  -3.5700000000000003E-002     2.3495068052822451E-019
  -3.5650000000000001E-002    -1.3208092135080482E-019
  -3.5600000000000000E-002    -5.9417844109458215E-019
  -3.5549999999999998E-002    -9.6596358025753792E-019
  -3.5500000000000004E-002    -1.0238473674233300E-018
  -3.5450000000000002E-002    -6.0083299955650878E-019
  -3.5400000000000001E-002     3.0576472512336631E-019
  -3.5349999999999999E-002     1.4621104436895593E-018
  -3.5299999999999998E-002     2.4116800301807823E-018
  -3.5250000000000004E-002     2.6032881657878232E-018
  -3.5200000000000002E-002     1.6164099198693981E-018
  -3.5150000000000001E-002    -5.8695391855263157E-019
  -3.5099999999999999E-002    -3.4939368075966858E-018
  -3.5049999999999998E-002    -6.0664288946084581E-018
  -3.5000000000000003E-002    -7.0186822931478435E-018
  -3.4950000000000002E-002    -5.3069314231375664E-018
  -3.4900000000000000E-002    -6.7900389620396430E-019
  -3.4849999999999999E-002     5.9457764502020748E-018
  -3.4799999999999998E-002     1.2492076817498021E-017
  -3.4750000000000003E-002     1.6256113133052460E-017
  -3.4700000000000002E-002     1.4866799974990125E-017
  -3.4650000000000000E-002     7.3850887873825450E-018
  -3.4599999999999999E-002    -4.8998395479911519E-018
  -3.4549999999999997E-002    -1.8407920459180758E-017
  -3.4500000000000003E-002    -2.8163857393495957E-017
  -3.4450000000000001E-002    -2.9515906563472746E-017
  -3.4400000000000000E-002    -2.0148643013659619E-017
  -3.4349999999999999E-002    -1.5985194376843320E-018
  -3.4299999999999997E-002     2.0500614473421640E-017
  -3.4250000000000003E-002     3.7855294739131141E-017
  -3.4200000000000001E-002     4.2420995929935933E-017
  -3.4150000000000000E-002     2.9885363569047000E-017
  -3.4099999999999998E-002     2.3710116328019575E-018
  -3.4049999999999997E-002    -3.0982961572749790E-017
  -3.4000000000000002E-002    -5.6311909241774235E-017
  -3.3950000000000001E-002    -5.9896543762366791E-017
  -3.3900000000000000E-002    -3.4163246619838482E-017
  -3.3849999999999998E-002     1.7448474443984748E-017
  -3.3799999999999997E-002     7.9064887540820302E-017
  -3.3750000000000002E-002     1.2582281144557452E-016
  -3.3700000000000001E-002     1.3192551750144818E-016
  -3.3649999999999999E-002     8.1118550054605213E-017
  -3.3599999999999998E-002    -2.4076823461332049E-017
  -3.3550000000000003E-002    -1.5835427327208994E-016
  -3.3500000000000002E-002    -2.7762774176264239E-016
  -3.3450000000000001E-002    -3.3130613616680738E-016
  -3.3399999999999999E-002    -2.7994204982297004E-016
  -3.3349999999999998E-002    -1.1269612418024508E-016
  -3.3300000000000003E-002     1.4199577450580281E-016
  -3.3250000000000002E-002     4.1791137249952064E-016
  -3.3200000000000000E-002     6.2653737891576196E-016
  -3.3149999999999999E-002     6.8358216282153316E-016
  -3.3099999999999997E-002     5.3893393183403647E-016
  -3.3050000000000003E-002     1.9992288319016492E-016
  -3.3000000000000002E-002    -2.6151568910335382E-016
  -3.2950000000000000E-002    -7.2286835950262137E-016
  -3.2899999999999999E-002    -1.0444972494021563E-015
  -3.2850000000000004E-002    -1.1135005105117478E-015
  -3.2800000000000003E-002    -8.8392969319066488E-016
  -3.2750000000000001E-002    -3.9870306624729134E-016
  -3.2700000000000000E-002     2.1675733877480956E-016
  -3.2649999999999998E-002     7.9012926948575204E-016
  -3.2600000000000004E-002     1.1574106156890137E-015
  -3.2550000000000003E-002     1.2197020437902541E-015
  -3.2500000000000001E-002     9.8070158872249109E-016
  -3.2450000000000000E-002     5.4875222446879062E-016
  -3.2399999999999998E-002     9.8756678783071473E-017
  -3.2350000000000004E-002    -1.9585453111136242E-016
  -3.2300000000000002E-002    -2.3782338568848996E-016
  -3.2250000000000001E-002    -5.8123631534410175E-017
  -3.2199999999999999E-002     1.7951224182645066E-016
  -3.2149999999999998E-002     2.3167829222873929E-016
  -3.2100000000000004E-002    -1.2511499138847937E-016
  -3.2050000000000002E-002    -9.7996171911132604E-016
  -3.2000000000000001E-002    -2.2017231242361200E-015
  -3.1949999999999999E-002    -3.4227549978825843E-015
  -3.1899999999999998E-002    -4.1145227495496274E-015
  -3.1850000000000003E-002    -3.7470752769877577E-015
  -3.1800000000000002E-002    -1.9914502373403819E-015
  -3.1750000000000000E-002     1.0997643105077262E-015
  -3.1699999999999999E-002     5.0032348885873116E-015
  -3.1649999999999998E-002     8.7774298622929098E-015
  -3.1600000000000003E-002     1.1267293033281616E-014
  -3.1550000000000002E-002     1.1421392085773897E-014
  -3.1500000000000000E-002     8.6375875506750303E-015
  -3.1449999999999999E-002     3.0306850472434349E-015
  -3.1399999999999997E-002    -4.4747577747046771E-015
  -3.1350000000000003E-002    -1.2280469983112734E-014
  -3.1300000000000001E-002    -1.8467581637209987E-014
  -3.1250000000000000E-002    -2.1285551604299509E-014
  -3.1199999999999999E-002    -1.9644827020606079E-014
  -3.1150000000000001E-002    -1.3467621102895363E-014
  -3.1100000000000003E-002    -3.7827549046406069E-015
  -3.1050000000000001E-002     7.4792828269942078E-015
  -3.1000000000000000E-002     1.7945838582832831E-014
  -3.0949999999999998E-002     2.5390962649468801E-014
  -3.0900000000000000E-002     2.8284254528277244E-014
  -3.0850000000000002E-002     2.6138762436079669E-014
  -3.0800000000000001E-002     1.9558114908377074E-014
  -3.0750000000000000E-002     9.9789740154532872E-015
  -3.0699999999999998E-002    -7.9533417301861361E-016
  -3.0650000000000000E-002    -1.1104934664483626E-014
  -3.0600000000000002E-002    -1.9809127809769085E-014
  -3.0550000000000001E-002    -2.6400494110747355E-014
  -3.0499999999999999E-002    -3.0830212266698321E-014
  -3.0449999999999998E-002    -3.3133105788820625E-014
  -3.0400000000000000E-002    -3.3030267677176309E-014
  -3.0350000000000002E-002    -2.9714132619930427E-014
  -3.0300000000000001E-002    -2.1968851103226847E-014
  -3.0249999999999999E-002    -8.6585332228026841E-015
  -3.0200000000000001E-002     1.0535787680403264E-014
  -3.0150000000000000E-002     3.4380325013445811E-014
  -3.0100000000000002E-002     5.9662141279932033E-014
  -3.0050000000000000E-002     8.1334948555621605E-014
  -2.9999999999999999E-002     9.3351659008077013E-014
  -2.9950000000000001E-002     9.0083665274301650E-014
  -2.9899999999999999E-002     6.8010376687004423E-014
  -2.9850000000000002E-002     2.7215649951317371E-014
  -2.9800000000000000E-002    -2.7792306041514432E-014
  -2.9749999999999999E-002    -8.8293031511371886E-014
  -2.9700000000000001E-002    -1.4270121939395686E-013
  -2.9650000000000003E-002    -1.7884195585159759E-013
  -2.9600000000000001E-002    -1.8666643890678402E-013
  -2.9550000000000000E-002    -1.6075719409672061E-013
  -2.9499999999999998E-002    -1.0198090965706972E-013
  -2.9450000000000000E-002    -1.7833908061559160E-014
  -2.9400000000000003E-002     7.8657083417205401E-014
  -2.9350000000000001E-002     1.7125641364200124E-013
  -2.9300000000000000E-002     2.4354074643544066E-013
  -2.9249999999999998E-002     2.8194240207706433E-013
  -2.9200000000000000E-002     2.7816681383475719E-013
  -2.9150000000000002E-002     2.3053307685715102E-013
  -2.9100000000000001E-002     1.4408387508737014E-013
  -2.9049999999999999E-002     2.9611878556683460E-014
  -2.8999999999999998E-002    -9.8039418486239772E-014
  -2.8950000000000000E-002    -2.2197338991431279E-013
  -2.8900000000000002E-002    -3.2518978720545406E-013
  -2.8850000000000001E-002    -3.9231255475957551E-013
  -2.8799999999999999E-002    -4.1110352770549432E-013
  -2.8749999999999998E-002    -3.7387368308142428E-013
  -2.8700000000000000E-002    -2.7887202769617628E-013
  -2.8650000000000002E-002    -1.3157596654061813E-013
  -2.8600000000000000E-002     5.4418373881191728E-014
  -2.8549999999999999E-002     2.5738963232144508E-013
  -2.8500000000000001E-002     4.4888836186093081E-013
  -2.8450000000000000E-002     5.9687675809703526E-013
  -2.8400000000000002E-002     6.7055225371844907E-013
  -2.8350000000000000E-002     6.4627289383189178E-013
  -2.8299999999999999E-002     5.1349404324821699E-013
  -2.8250000000000001E-002     2.7931436310623791E-013
  -2.8200000000000003E-002    -2.9751045302848707E-014
  -2.8150000000000001E-002    -3.6974047458835599E-013
  -2.8100000000000000E-002    -6.8517816820339342E-013
  -2.8049999999999999E-002    -9.1826049859997304E-013
  -2.8000000000000001E-002    -1.0197132352365789E-012
  -2.7950000000000003E-002    -9.5915708652558251E-013
  -2.7900000000000001E-002    -7.3270890241361850E-013
  -2.7850000000000000E-002    -3.6597918919945908E-013
  -2.7799999999999998E-002     8.8485081731068178E-014
  -2.7750000000000000E-002     5.5910769619929968E-013
  -2.7700000000000002E-002     9.6718928242023038E-013
  -2.7650000000000001E-002     1.2405996790461221E-012
  -2.7600000000000000E-002     1.3266606213984351E-012
  -2.7549999999999998E-002     1.2018041909866993E-012
  -2.7500000000000000E-002     8.7626788233926848E-013
  -2.7450000000000002E-002     3.9308928763695482E-013
  -2.7400000000000001E-002    -1.7826040373245048E-013
  -2.7349999999999999E-002    -7.5234477907582921E-013
  -2.7299999999999998E-002    -1.2404821405904130E-012
  -2.7250000000000000E-002    -1.5636851151688984E-012
  -2.7200000000000002E-002    -1.6639747413784259E-012
  -2.7150000000000001E-002    -1.5126717285597488E-012
  -2.7099999999999999E-002    -1.1148357673401414E-012
  -2.7049999999999998E-002    -5.0956524600604919E-013
  -2.7000000000000000E-002     2.3367994156344502E-013
  -2.6950000000000002E-002     1.0222541809305227E-012
  -2.6900000000000000E-002     1.7503024298873075E-012
  -2.6849999999999999E-002     2.3106698473564400E-012
  -2.6800000000000001E-002     2.6077155139657070E-012
  -2.6749999999999999E-002     2.5698437063981176E-012
  -2.6700000000000002E-002     2.1604252896316033E-012
  -2.6650000000000000E-002     1.3857382830418527E-012
  -2.6599999999999999E-002     2.9866313795762884E-013
  -2.6550000000000001E-002    -1.0028302623380308E-012
  -2.6500000000000003E-002    -2.3828514037771406E-012
  -2.6450000000000001E-002    -3.6801918623592639E-012
  -2.6400000000000000E-002    -4.7253892277574432E-012
  -2.6349999999999998E-002    -5.3605668953145726E-012
  -2.6300000000000000E-002    -5.4598077575681439E-012
  -2.6250000000000002E-002    -4.9475135269822614E-012
  -2.6200000000000001E-002    -3.8122112083950765E-012
  -2.6150000000000000E-002    -2.1136438525111168E-012
  -2.6099999999999998E-002     1.8330977583140196E-014
  -2.6050000000000000E-002     2.3935256126366578E-012
  -2.6000000000000002E-002     4.7792311104274588E-012
  -2.5950000000000001E-002     6.9242004082660734E-012
  -2.5899999999999999E-002     8.5859296982652284E-012
  -2.5849999999999998E-002     9.5576497632942554E-012
  -2.5800000000000000E-002     9.6913070581629488E-012
  -2.5750000000000002E-002     8.9132327264503731E-012
  -2.5700000000000001E-002     7.2303688031824960E-012
  -2.5649999999999999E-002     4.7264835614656348E-012
  -2.5599999999999998E-002     1.5496977597366122E-012
  -2.5550000000000000E-002    -2.1056763998117194E-012
  -2.5500000000000002E-002    -6.0188106505288453E-012
  -2.5450000000000000E-002    -9.9590873694034505E-012
  -2.5399999999999999E-002    -1.3696069560169914E-011
  -2.5349999999999998E-002    -1.7000494214077403E-011
  -2.5300000000000000E-002    -1.9636180453081584E-011
  -2.5250000000000002E-002    -2.1344931857594781E-011
  -2.5200000000000000E-002    -2.1828216621269591E-011
  -2.5149999999999999E-002    -2.0730302040252485E-011
  -2.5100000000000001E-002    -1.7627282198926691E-011
  -2.5049999999999999E-002    -1.2025308517293570E-011
  -2.5000000000000001E-002    -3.3696008064975499E-012
  -2.4950000000000000E-002     8.9360181212500266E-012
  -2.4899999999999999E-002     2.5500896456520789E-011
  -2.4850000000000001E-002     4.6913232202530495E-011
  -2.4800000000000003E-002     7.3702476489296560E-011
  -2.4750000000000001E-002     1.0630118355186316E-010
  -2.4700000000000000E-002     1.4500870972575513E-010
  -2.4649999999999998E-002     1.8995904128990405E-010
  -2.4600000000000000E-002     2.4109584750752417E-010
  -2.4550000000000002E-002     2.9815874560892087E-010
  -2.4500000000000001E-002     3.6068460243210529E-010
  -2.4450000000000000E-002     4.2802862389517011E-010
  -2.4399999999999998E-002     4.9940783283286373E-010
  -2.4350000000000000E-002     5.7396561477178277E-010
  -2.4299999999999999E-002     6.5085414728301739E-010
  -2.4250000000000001E-002     7.2932325314037250E-010
  -2.4199999999999999E-002     8.0880370291125542E-010
  -2.4150000000000001E-002     8.8896979810505476E-010
  -2.4100000000000000E-002     9.6976764627020367E-010
  -2.4049999999999998E-002     1.0514022604586477E-009
  -2.4000000000000000E-002     1.1342816410102043E-009
  -2.3949999999999999E-002     1.2189281801488402E-009
  -2.3900000000000001E-002     1.3058722628839415E-009
  -2.3850000000000000E-002     1.3955502174188079E-009
  -2.3800000000000002E-002     1.4882252678214403E-009
  -2.3750000000000000E-002     1.5839486166688533E-009
  -2.3699999999999999E-002     1.6825667615555892E-009
  -2.3650000000000001E-002     1.7837704708859987E-009
  -2.3599999999999999E-002     1.8871727198547954E-009
  -2.3550000000000001E-002     1.9923950051141408E-009
  -2.3500000000000000E-002     2.0991427049891828E-009
  -2.3449999999999999E-002     2.2072532932646579E-009
  -2.3400000000000001E-002     2.3167084891625992E-009
  -2.3349999999999999E-002     2.4276146239405134E-009
  -2.3300000000000001E-002     2.5401613192622998E-009
  -2.3250000000000000E-002     2.6545737431717823E-009
  -2.3199999999999998E-002     2.7710748071370801E-009
  -2.3150000000000000E-002     2.8898650405852008E-009
  -2.3099999999999999E-002     3.0111257325531078E-009
  -2.3050000000000001E-002     3.1350355902577490E-009
  -2.3000000000000000E-002     3.2617928072871641E-009
  -2.2950000000000002E-002     3.3916276525766340E-009
  -2.2900000000000000E-002     3.5247983757780800E-009
  -2.2849999999999999E-002     3.6615691793723389E-009
  -2.2800000000000001E-002     3.8021752844677943E-009
  -2.2749999999999999E-002     3.9467896100689020E-009
  -2.2700000000000001E-002     4.0955093198581447E-009
  -2.2650000000000000E-002     4.2483596879010640E-009
  -2.2599999999999999E-002     4.4053330564839626E-009
  -2.2550000000000001E-002     4.5664413334901717E-009
  -2.2499999999999999E-002     4.7317694979171716E-009
  -2.2450000000000001E-002     4.9015090213427707E-009
  -2.2400000000000000E-002     5.0759542169152907E-009
  -2.2349999999999998E-002     5.2554546979461560E-009
  -2.2300000000000000E-002     5.4403308060862624E-009
  -2.2249999999999999E-002     5.6307749087262743E-009
  -2.2200000000000001E-002     5.8267711037205853E-009
  -2.2150000000000000E-002     6.0280639248543173E-009
  -2.2100000000000002E-002     6.2341943886518584E-009
  -2.2050000000000000E-002     6.4446130640187252E-009
  -2.1999999999999999E-002     6.6588457892469870E-009
  -2.1950000000000001E-002     6.8766750912868400E-009
  -2.1899999999999999E-002     7.0982933131169844E-009
  -2.1850000000000001E-002     7.3243737630879089E-009
  -2.1800000000000000E-002     7.5560384083692006E-009
  -2.1749999999999999E-002     7.7947055810875610E-009
  -2.1700000000000001E-002     8.0418538403360083E-009
  -2.1649999999999999E-002     8.2987434181475466E-009
  -2.1600000000000001E-002     8.5661711763779240E-009
  -2.1550000000000000E-002     8.8443157610150913E-009
  -2.1499999999999998E-002     9.1327119834868303E-009
  -2.1450000000000000E-002     9.4303813980193639E-009
  -2.1399999999999999E-002     9.7360826379391915E-009
  -2.1350000000000001E-002     1.0048627345699252E-008
  -2.1299999999999999E-002     1.0367193338875201E-008
  -2.1250000000000002E-002     1.0691542364793840E-008
  -2.1200000000000000E-002     1.1022110118100033E-008
  -2.1149999999999999E-002     1.1359917297296174E-008
  -2.1100000000000001E-002     1.1706350382014766E-008
  -2.1049999999999999E-002     1.2062845251989361E-008
  -2.1000000000000001E-002     1.2430572146921650E-008
  -2.0950000000000000E-002     1.2810194038571438E-008
  -2.0899999999999998E-002     1.3201778178484728E-008
  -2.0850000000000000E-002     1.3604871116969248E-008
  -2.0799999999999999E-002     1.4018733739458862E-008
  -2.0750000000000001E-002     1.4442679557173067E-008
  -2.0700000000000000E-002     1.4876414516567592E-008
  -2.0649999999999998E-002     1.5320295719289710E-008
  -2.0600000000000000E-002     1.5775432919723048E-008
  -2.0549999999999999E-002     1.6243579996646419E-008
  -2.0500000000000001E-002     1.6726843148112325E-008
  -2.0449999999999999E-002     1.7227253974304932E-008
  -2.0400000000000001E-002     1.7746324131392455E-008
  -2.0350000000000000E-002     1.8284675053789008E-008
  -2.0299999999999999E-002     1.8841853294727596E-008
  -2.0250000000000001E-002     1.9416394486661711E-008
  -2.0199999999999999E-002     2.0006139446261487E-008
  -2.0150000000000001E-002     2.0608742895043823E-008
  -2.0100000000000000E-002     2.1222265346383329E-008
  -2.0049999999999998E-002     2.1845722759424588E-008
  -2.0000000000000000E-002     2.2479442099443198E-008
  -1.9949999999999999E-002     2.3125158402598566E-008
  -1.9900000000000001E-002     2.3785775623742320E-008
  -1.9850000000000000E-002     2.4464871708345314E-008
  -1.9799999999999998E-002     2.5166021091266184E-008
  -1.9750000000000000E-002     2.5892114994034530E-008
  -1.9699999999999999E-002     2.6644809859476291E-008
  -1.9650000000000001E-002     2.7424278195625691E-008
  -1.9599999999999999E-002     2.8229293878501093E-008
  -1.9550000000000001E-002     2.9057670667910845E-008
  -1.9500000000000000E-002     2.9906941249797483E-008
  -1.9449999999999999E-002     3.0775113291601517E-008
  -1.9400000000000001E-002     3.1661316003197354E-008
  -1.9349999999999999E-002     3.2566184383283528E-008
  -1.9300000000000001E-002     3.3491860307791611E-008
  -1.9250000000000000E-002     3.4441572179803774E-008
  -1.9199999999999998E-002     3.5418951131772408E-008
  -1.9150000000000000E-002     3.6427184267278677E-008
  -1.9099999999999999E-002     3.7468264119929595E-008
  -1.9050000000000001E-002     3.8542544810812313E-008
  -1.9000000000000000E-002     3.9648697280595968E-008
  -1.8949999999999998E-002     4.0784155804754948E-008
  -1.8900000000000000E-002     4.1945890279889777E-008
  -1.8849999999999999E-002     4.3131414330019955E-008
  -1.8800000000000001E-002     4.4339668345200812E-008
  -1.8749999999999999E-002     4.5571608111551288E-008
  -1.8700000000000001E-002     4.6830305750333334E-008
  -1.8650000000000000E-002     4.8120496677068742E-008
  -1.8599999999999998E-002     4.9447674559469618E-008
  -1.8550000000000001E-002     5.0816938017309143E-008
  -1.8499999999999999E-002     5.2231901053814093E-008
  -1.8450000000000001E-002     5.3693921305267679E-008
  -1.8400000000000000E-002     5.5201911625767853E-008
  -1.8349999999999998E-002     5.6752752404970256E-008
  -1.8300000000000000E-002     5.8342283963137303E-008
  -1.8249999999999999E-002     5.9966586407322835E-008
  -1.8200000000000001E-002     6.1623270697673691E-008
  -1.8149999999999999E-002     6.3312415391528183E-008
  -1.8100000000000002E-002     6.5036837248192306E-008
  -1.8050000000000000E-002     6.6801709529322173E-008
  -1.7999999999999999E-002     6.8613496829982696E-008
  -1.7950000000000001E-002     7.0478496479602433E-008
  -1.7899999999999999E-002     7.2401400485053241E-008
  -1.7850000000000001E-002     7.4384221969934113E-008
  -1.7800000000000000E-002     7.6425907214057460E-008
  -1.7749999999999998E-002     7.8522756099414771E-008
  -1.7700000000000000E-002     8.0669636517103010E-008
  -1.7649999999999999E-002     8.2861652092065413E-008
  -1.7600000000000001E-002     8.5095797106787973E-008
  -1.7550000000000000E-002     8.7372265433078104E-008
  -1.7499999999999998E-002     8.9694966575385397E-008
  -1.7450000000000000E-002     9.2071030411268967E-008
  -1.7399999999999999E-002     9.4509481853948138E-008
  -1.7350000000000001E-002     9.7019273768929403E-008
  -1.7299999999999999E-002     9.9607251267293618E-008
  -1.7250000000000001E-002     1.0227656245549748E-007
  -1.7200000000000000E-002     1.0502593140020657E-007
  -1.7149999999999999E-002     1.0785004009597560E-007
  -1.7100000000000001E-002     1.1074106181674719E-007
  -1.7049999999999999E-002     1.1369092448497091E-007
  -1.7000000000000001E-002     1.1669376065016436E-007
  -1.6950000000000000E-002     1.1974801196061086E-007
  -1.6899999999999998E-002     1.2285747058217859E-007
  -1.6850000000000000E-002     1.2603107757070051E-007
  -1.6799999999999999E-002     1.2928138027745258E-007
  -1.6750000000000001E-002     1.3262196954477041E-007
  -1.6700000000000000E-002     1.3606456882253815E-007
  -1.6649999999999998E-002     1.3961643193711196E-007
  -1.6600000000000000E-002     1.4327869605197088E-007
  -1.6549999999999999E-002     1.4704635785063718E-007
  -1.6500000000000001E-002     1.5090965611124678E-007
  -1.6449999999999999E-002     1.5485681965821212E-007
  -1.6400000000000001E-002     1.5887738047617659E-007
  -1.6350000000000000E-002     1.6296534619255853E-007
  -1.6299999999999999E-002     1.6712139496832166E-007
  -1.6250000000000001E-002     1.7135338720426836E-007
  -1.6199999999999999E-002     1.7567512688938337E-007
  -1.6150000000000001E-002     1.8010365271437990E-007
  -1.6100000000000000E-002     1.8465548789834345E-007
  -1.6049999999999998E-002     1.8934308988349015E-007
  -1.6000000000000000E-002     1.9417209696287209E-007
  -1.5949999999999999E-002     1.9914031139226830E-007
  -1.5900000000000001E-002     2.0423872616311622E-007
  -1.5850000000000000E-002     2.0945424253381710E-007
  -1.5799999999999998E-002     2.1477359653398649E-007
  -1.5750000000000000E-002     2.2018747989016908E-007
  -1.5699999999999999E-002     2.2569362438530954E-007
  -1.5650000000000001E-002     2.3129829314498548E-007
  -1.5599999999999999E-002     2.3701557321212873E-007
  -1.5550000000000001E-002     2.4286447350869217E-007
  -1.5500000000000000E-002     2.4886482161050237E-007
  -1.5449999999999998E-002     2.5503275397732716E-007
  -1.5400000000000000E-002     2.6137702019882030E-007
  -1.5349999999999999E-002     2.6789705094680385E-007
  -1.5300000000000001E-002     2.7458357578812981E-007
  -1.5250000000000000E-002     2.8142124978395723E-007
  -1.5199999999999998E-002     2.8839330939673932E-007
  -1.5150000000000000E-002     2.9548633840333735E-007
  -1.5099999999999999E-002     3.0269471507564531E-007
  -1.5050000000000001E-002     3.1002296513014553E-007
  -1.4999999999999999E-002     3.1748561396068490E-007
  -1.4949999999999998E-002     3.2510458393080839E-007
  -1.4900000000000000E-002     3.3290453665187758E-007
  -1.4849999999999999E-002     3.4090767331323827E-007
  -1.4800000000000001E-002     3.4912890586533151E-007
  -1.4749999999999999E-002     3.5757296297712042E-007
  -1.4700000000000001E-002     3.6623399327945983E-007
  -1.4650000000000000E-002     3.7509810930407206E-007
  -1.4599999999999998E-002     3.8414776159791991E-007
  -1.4550000000000000E-002     3.9336732333197366E-007
  -1.4499999999999999E-002     4.0274807108116828E-007
  -1.4450000000000001E-002     4.1229137809327560E-007
  -1.4400000000000000E-002     4.2200944490426633E-007
  -1.4349999999999998E-002     4.3192308309412572E-007
  -1.4300000000000000E-002     4.4205731373663482E-007
  -1.4249999999999999E-002     4.5243589308813788E-007
  -1.4200000000000001E-002     4.6307617436666757E-007
  -1.4149999999999999E-002     4.7398559158336225E-007
  -1.4099999999999998E-002     4.8516091806745837E-007
  -1.4050000000000000E-002     4.9659016986380945E-007
  -1.3999999999999999E-002     5.0825710288479611E-007
  -1.3950000000000001E-002     5.2014647125099663E-007
  -1.3899999999999999E-002     5.3224927952292267E-007
  -1.3850000000000001E-002     5.4456645989658186E-007
  -1.3800000000000000E-002     5.5710952859515518E-007
  -1.3749999999999998E-002     5.6989891813567830E-007
  -1.3700000000000000E-002     5.8295957013109958E-007
  -1.3649999999999999E-002     5.9631570283411592E-007
  -1.3600000000000001E-002     6.0998558634250243E-007
  -1.3550000000000000E-002     6.2397782269403624E-007
  -1.3499999999999998E-002     6.3829041180431447E-007
  -1.3450000000000000E-002     6.5291256853332878E-007
  -1.3399999999999999E-002     6.6782877245694162E-007
  -1.3350000000000001E-002     6.8302417952179940E-007
  -1.3299999999999999E-002     6.9848942696198774E-007
  -1.3249999999999998E-002     7.1422419625033950E-007
  -1.3200000000000000E-002     7.3023825343905357E-007
  -1.3149999999999998E-002     7.4654991680790912E-007
  -1.3100000000000001E-002     7.6318183245080185E-007
  -1.3049999999999999E-002     7.8015643193373671E-007
  -1.3000000000000001E-002     7.9749093038106500E-007
  -1.2950000000000000E-002     8.1519458010572737E-007
  -1.2899999999999998E-002     8.3326774162155247E-007
  -1.2850000000000000E-002     8.5170381077869993E-007
  -1.2799999999999999E-002     8.7049314293577963E-007