  -4.0000000000000001E-002     0.0000000000000000     
  -3.9949999999999999E-002     0.0000000000000000     
  -3.9899999999999998E-002     0.0000000000000000     
  -3.9850000000000003E-002     0.0000000000000000     
  -3.9800000000000002E-002     0.0000000000000000     
  -3.9750000000000001E-002     0.0000000000000000     
  -3.9699999999999999E-002     0.0000000000000000     
  -3.9649999999999998E-002     0.0000000000000000     
  -3.9600000000000003E-002     0.0000000000000000     
  -3.9550000000000002E-002     0.0000000000000000     
  -3.9500000000000000E-002     0.0000000000000000     
  -3.9449999999999999E-002     0.0000000000000000     
  -3.9399999999999998E-002     0.0000000000000000     
  -3.9350000000000003E-002     0.0000000000000000     
  -3.9300000000000002E-002     0.0000000000000000     
  -3.9250000000000000E-002     0.0000000000000000     
  -3.9199999999999999E-002     0.0000000000000000     
  -3.9150000000000004E-002     0.0000000000000000     
  -3.9100000000000003E-002     0.0000000000000000     
  -3.9050000000000001E-002     0.0000000000000000     
  -3.9000000000000000E-002     0.0000000000000000     
  -3.8949999999999999E-002     0.0000000000000000     
  -3.8900000000000004E-002     0.0000000000000000     
  -3.8850000000000003E-002     0.0000000000000000     
  -3.8800000000000001E-002     0.0000000000000000     
  -3.8750000000000000E-002     0.0000000000000000     
  -3.8699999999999998E-002     0.0000000000000000     
  -3.8650000000000004E-002     0.0000000000000000     
  -3.8600000000000002E-002     0.0000000000000000     
  -3.8550000000000001E-002     0.0000000000000000     
  -3.8500000000000000E-002     0.0000000000000000     
  -3.8449999999999998E-002     0.0000000000000000     
  -3.8400000000000004E-002     0.0000000000000000     
  -3.8350000000000002E-002     0.0000000000000000     
  -3.8300000000000001E-002     0.0000000000000000     
  -3.8249999999999999E-002     0.0000000000000000     
  -3.8199999999999998E-002     0.0000000000000000     
  -3.8150000000000003E-002     0.0000000000000000     
  -3.8100000000000002E-002     0.0000000000000000     
  -3.8050000000000000E-002     0.0000000000000000     
  -3.7999999999999999E-002     0.0000000000000000     
  -3.7949999999999998E-002     0.0000000000000000     
  -3.7900000000000003E-002     0.0000000000000000     
  -3.7850000000000002E-002     0.0000000000000000     
  -3.7800000000000000E-002     0.0000000000000000     
  -3.7749999999999999E-002     0.0000000000000000     
  -3.7699999999999997E-002     0.0000000000000000     
  -3.7650000000000003E-002     0.0000000000000000     
  -3.7600000000000001E-002     0.0000000000000000     
  -3.7550000000000000E-002     0.0000000000000000     
  -3.7499999999999999E-002     0.0000000000000000     
  -3.7449999999999997E-002     0.0000000000000000     
  -3.7400000000000003E-002     0.0000000000000000     
  -3.7350000000000001E-002     0.0000000000000000     
  -3.7300000000000000E-002     0.0000000000000000     
  -3.7249999999999998E-002     0.0000000000000000     
  -3.7200000000000004E-002     0.0000000000000000     
  -3.7150000000000002E-002     0.0000000000000000     
  -3.7100000000000001E-002     0.0000000000000000     
  -3.7050000000000000E-002     0.0000000000000000     
  -3.6999999999999998E-002     0.0000000000000000     
  -3.6950000000000004E-002     0.0000000000000000     
  -3.6900000000000002E-002     0.0000000000000000     
  -3.6850000000000001E-002     0.0000000000000000     
  -3.6799999999999999E-002     0.0000000000000000     
  -3.6749999999999998E-002     0.0000000000000000     
  -3.6700000000000003E-002     0.0000000000000000     
  -3.6650000000000002E-002     0.0000000000000000     
  -3.6600000000000001E-002     0.0000000000000000     
  -3.6549999999999999E-002     0.0000000000000000     
  -3.6499999999999998E-002     0.0000000000000000     
  -3.6450000000000003E-002     0.0000000000000000     
  -3.6400000000000002E-002     0.0000000000000000     
  -3.6350000000000000E-002     0.0000000000000000     
  -3.6299999999999999E-002     0.0000000000000000     
  -3.6249999999999998E-002     0.0000000000000000     
  -3.6200000000000003E-002     0.0000000000000000     
  -3.6150000000000002E-002     0.0000000000000000     
  -3.6100000000000000E-002     0.0000000000000000     
  -3.6049999999999999E-002     0.0000000000000000     
  -3.6000000000000004E-002     0.0000000000000000     
  -3.5950000000000003E-002     0.0000000000000000     
  -3.5900000000000001E-002     0.0000000000000000     
  -3.5850000000000000E-002     0.0000000000000000     
  -3.5799999999999998E-002     0.0000000000000000     
  -3.5750000000000004E-002     0.0000000000000000     
  -3.5700000000000003E-002     0.0000000000000000     
  -3.5650000000000001E-002     0.0000000000000000     
  -3.5600000000000000E-002     0.0000000000000000     
  -3.5549999999999998E-002     0.0000000000000000     
  -3.5500000000000004E-002     0.0000000000000000     
  -3.5450000000000002E-002     0.0000000000000000     
  -3.5400000000000001E-002     0.0000000000000000     
  -3.5349999999999999E-002     0.0000000000000000     
  -3.5299999999999998E-002     0.0000000000000000     
  -3.5250000000000004E-002     0.0000000000000000     
  -3.5200000000000002E-002     0.0000000000000000     
  -3.5150000000000001E-002     0.0000000000000000     
  -3.5099999999999999E-002     0.0000000000000000     
  -3.5049999999999998E-002     0.0000000000000000     
  -3.5000000000000003E-002     0.0000000000000000     
  -3.4950000000000002E-002     0.0000000000000000     
  -3.4900000000000000E-002     0.0000000000000000     
  -3.4849999999999999E-002     0.0000000000000000     
  -3.4799999999999998E-002     0.0000000000000000     
  -3.4750000000000003E-002     0.0000000000000000     
  -3.4700000000000002E-002     0.0000000000000000     
  -3.4650000000000000E-002     0.0000000000000000     
  -3.4599999999999999E-002     0.0000000000000000     
  -3.4549999999999997E-002     0.0000000000000000     
  -3.4500000000000003E-002     0.0000000000000000     
  -3.4450000000000001E-002     0.0000000000000000     
  -3.4400000000000000E-002     0.0000000000000000     
  -3.4349999999999999E-002     0.0000000000000000     
  -3.4299999999999997E-002     0.0000000000000000     
  -3.4250000000000003E-002     0.0000000000000000     
  -3.4200000000000001E-002     0.0000000000000000     
  -3.4150000000000000E-002     0.0000000000000000     
  -3.4099999999999998E-002     0.0000000000000000     
  -3.4049999999999997E-002     0.0000000000000000     
  -3.4000000000000002E-002     0.0000000000000000     
  -3.3950000000000001E-002     0.0000000000000000     
  -3.3900000000000000E-002     0.0000000000000000     
  -3.3849999999999998E-002     0.0000000000000000     
  -3.3799999999999997E-002     0.0000000000000000     
  -3.3750000000000002E-002     0.0000000000000000     
  -3.3700000000000001E-002     0.0000000000000000     
  -3.3649999999999999E-002     0.0000000000000000     
  -3.3599999999999998E-002     0.0000000000000000     
  -3.3550000000000003E-002     0.0000000000000000     
  -3.3500000000000002E-002     0.0000000000000000     
  -3.3450000000000001E-002     0.0000000000000000     
  -3.3399999999999999E-002     0.0000000000000000     
  -3.3349999999999998E-002     0.0000000000000000     
  -3.3300000000000003E-002     0.0000000000000000     
  -3.3250000000000002E-002     0.0000000000000000     
  -3.3200000000000000E-002     0.0000000000000000     
  -3.3149999999999999E-002     0.0000000000000000     
  -3.3099999999999997E-002     0.0000000000000000     
  -3.3050000000000003E-002     0.0000000000000000     
  -3.3000000000000002E-002     0.0000000000000000     
  -3.2950000000000000E-002     0.0000000000000000     
  -3.2899999999999999E-002     0.0000000000000000     
  -3.2850000000000004E-002     0.0000000000000000     
  -3.2800000000000003E-002     0.0000000000000000     
  -3.2750000000000001E-002     0.0000000000000000     
  -3.2700000000000000E-002     0.0000000000000000     
  -3.2649999999999998E-002     0.0000000000000000     
  -3.2600000000000004E-002     0.0000000000000000     
  -3.2550000000000003E-002     0.0000000000000000     
  -3.2500000000000001E-002     0.0000000000000000     
  -3.2450000000000000E-002     0.0000000000000000     
  -3.2399999999999998E-002     0.0000000000000000     
  -3.2350000000000004E-002     0.0000000000000000     
  -3.2300000000000002E-002     0.0000000000000000     
  -3.2250000000000001E-002     0.0000000000000000     
  -3.2199999999999999E-002     0.0000000000000000     
  -3.2149999999999998E-002     0.0000000000000000     
  -3.2100000000000004E-002     0.0000000000000000     
  -3.2050000000000002E-002     0.0000000000000000     
  -3.2000000000000001E-002     0.0000000000000000     
  -3.1949999999999999E-002     0.0000000000000000     
  -3.1899999999999998E-002     0.0000000000000000     
  -3.1850000000000003E-002     0.0000000000000000     
  -3.1800000000000002E-002     0.0000000000000000     
  -3.1750000000000000E-002     0.0000000000000000     
  -3.1699999999999999E-002     0.0000000000000000     
  -3.1649999999999998E-002     0.0000000000000000     
  -3.1600000000000003E-002     0.0000000000000000     
  -3.1550000000000002E-002     0.0000000000000000     
  -3.1500000000000000E-002     0.0000000000000000     
  -3.1449999999999999E-002     0.0000000000000000     
  -3.1399999999999997E-002     0.0000000000000000     
  -3.1350000000000003E-002     0.0000000000000000     
  -3.1300000000000001E-002     0.0000000000000000     
  -3.1250000000000000E-002     0.0000000000000000     
  -3.1199999999999999E-002     0.0000000000000000     
  -3.1150000000000001E-002     0.0000000000000000     
  -3.1100000000000003E-002     0.0000000000000000     
  -3.1050000000000001E-002     0.0000000000000000     
  -3.1000000000000000E-002     0.0000000000000000     
  -3.0949999999999998E-002     0.0000000000000000     
  -3.0900000000000000E-002     0.0000000000000000     
  -3.0850000000000002E-002     0.0000000000000000     
  -3.0800000000000001E-002     0.0000000000000000     
  -3.0750000000000000E-002     0.0000000000000000     
  -3.0699999999999998E-002     0.0000000000000000     
  -3.0650000000000000E-002     0.0000000000000000     
  -3.0600000000000002E-002     0.0000000000000000     
  -3.0550000000000001E-002     0.0000000000000000     
  -3.0499999999999999E-002     0.0000000000000000     
  -3.0449999999999998E-002     0.0000000000000000     
  -3.0400000000000000E-002     0.0000000000000000     
  -3.0350000000000002E-002     0.0000000000000000     
  -3.0300000000000001E-002     0.0000000000000000     
  -3.0249999999999999E-002     0.0000000000000000     
  -3.0200000000000001E-002     0.0000000000000000     
  -3.0150000000000000E-002     0.0000000000000000     
  -3.0100000000000002E-002     0.0000000000000000     
  -3.0050000000000000E-002     0.0000000000000000     
  -2.9999999999999999E-002     0.0000000000000000     
  -2.9950000000000001E-002     0.0000000000000000     
  -2.9899999999999999E-002     0.0000000000000000     
  -2.9850000000000002E-002     0.0000000000000000     
  -2.9800000000000000E-002     0.0000000000000000     
  -2.9749999999999999E-002     0.0000000000000000     
  -2.9700000000000001E-002     0.0000000000000000     
  -2.9650000000000003E-002     0.0000000000000000     
  -2.9600000000000001E-002     0.0000000000000000     
  -2.9550000000000000E-002     0.0000000000000000     
  -2.9499999999999998E-002     0.0000000000000000     
  -2.9450000000000000E-002     0.0000000000000000     
  -2.9400000000000003E-002     0.0000000000000000     
  -2.9350000000000001E-002     0.0000000000000000     
  -2.9300000000000000E-002     0.0000000000000000     
  -2.9249999999999998E-002     0.0000000000000000     
  -2.9200000000000000E-002     0.0000000000000000     
  -2.9150000000000002E-002     0.0000000000000000     
  -2.9100000000000001E-002     0.0000000000000000     
  -2.9049999999999999E-002     0.0000000000000000     
  -2.8999999999999998E-002     0.0000000000000000     
  -2.8950000000000000E-002     0.0000000000000000     
  -2.8900000000000002E-002     0.0000000000000000     
  -2.8850000000000001E-002     0.0000000000000000     
  -2.8799999999999999E-002     0.0000000000000000     
  -2.8749999999999998E-002     0.0000000000000000     
  -2.8700000000000000E-002     0.0000000000000000     
  -2.8650000000000002E-002     0.0000000000000000     
  -2.8600000000000000E-002     0.0000000000000000     
  -2.8549999999999999E-002     0.0000000000000000     
  -2.8500000000000001E-002     0.0000000000000000     
  -2.8450000000000000E-002     0.0000000000000000     
  -2.8400000000000002E-002     0.0000000000000000     
  -2.8350000000000000E-002     0.0000000000000000     
  -2.8299999999999999E-002     0.0000000000000000     
  -2.8250000000000001E-002     0.0000000000000000     
  -2.8200000000000003E-002     0.0000000000000000     
  -2.8150000000000001E-002     0.0000000000000000     
  -2.8100000000000000E-002     0.0000000000000000     
  -2.8049999999999999E-002     0.0000000000000000     
  -2.8000000000000001E-002     0.0000000000000000     
  -2.7950000000000003E-002     0.0000000000000000     
  -2.7900000000000001E-002     0.0000000000000000     
  -2.7850000000000000E-002     0.0000000000000000     
  -2.7799999999999998E-002     0.0000000000000000     
  -2.7750000000000000E-002     0.0000000000000000     
  -2.7700000000000002E-002     0.0000000000000000     
  -2.7650000000000001E-002     0.0000000000000000     
  -2.7600000000000000E-002     0.0000000000000000     
  -2.7549999999999998E-002     0.0000000000000000     
  -2.7500000000000000E-002     0.0000000000000000     
  -2.7450000000000002E-002     0.0000000000000000     
  -2.7400000000000001E-002     0.0000000000000000     
  -2.7349999999999999E-002     0.0000000000000000     
  -2.7299999999999998E-002     0.0000000000000000     
  -2.7250000000000000E-002     0.0000000000000000     
  -2.7200000000000002E-002     0.0000000000000000     
  -2.7150000000000001E-002     0.0000000000000000     
  -2.7099999999999999E-002     0.0000000000000000     
  -2.7049999999999998E-002     0.0000000000000000     
  -2.7000000000000000E-002     0.0000000000000000     
  -2.6950000000000002E-002     0.0000000000000000     
  -2.6900000000000000E-002     0.0000000000000000     
  -2.6849999999999999E-002     0.0000000000000000     
  -2.6800000000000001E-002     0.0000000000000000     
  -2.6749999999999999E-002     0.0000000000000000     
  -2.6700000000000002E-002     0.0000000000000000     
  -2.6650000000000000E-002     0.0000000000000000     
  -2.6599999999999999E-002     0.0000000000000000     
  -2.6550000000000001E-002     0.0000000000000000     
  -2.6500000000000003E-002     0.0000000000000000     
  -2.6450000000000001E-002     0.0000000000000000     
  -2.6400000000000000E-002     0.0000000000000000     
  -2.6349999999999998E-002     0.0000000000000000     
  -2.6300000000000000E-002     0.0000000000000000     
  -2.6250000000000002E-002     0.0000000000000000     
  -2.6200000000000001E-002     0.0000000000000000     
  -2.6150000000000000E-002     0.0000000000000000     
  -2.6099999999999998E-002     0.0000000000000000     
  -2.6050000000000000E-002     0.0000000000000000     
  -2.6000000000000002E-002     0.0000000000000000     
  -2.5950000000000001E-002     0.0000000000000000     
  -2.5899999999999999E-002     0.0000000000000000     
  -2.5849999999999998E-002     0.0000000000000000     
  -2.5800000000000000E-002     0.0000000000000000     
  -2.5750000000000002E-002     0.0000000000000000     
  -2.5700000000000001E-002     0.0000000000000000     
  -2.5649999999999999E-002     0.0000000000000000     
  -2.5599999999999998E-002     0.0000000000000000     
  -2.5550000000000000E-002     0.0000000000000000     
  -2.5500000000000002E-002     0.0000000000000000     
  -2.5450000000000000E-002     0.0000000000000000     
  -2.5399999999999999E-002     0.0000000000000000     
  -2.5349999999999998E-002     0.0000000000000000     
  -2.5300000000000000E-002     0.0000000000000000     
  -2.5250000000000002E-002     0.0000000000000000     
  -2.5200000000000000E-002     0.0000000000000000     
  -2.5149999999999999E-002     0.0000000000000000     
  -2.5100000000000001E-002     0.0000000000000000     
  -2.5049999999999999E-002     0.0000000000000000     
  -2.5000000000000001E-002     0.0000000000000000     
  -2.4950000000000000E-002     0.0000000000000000     
  -2.4899999999999999E-002    -1.8230137777334143E-039
  -2.4850000000000001E-002    -4.0860878419283818E-039
  -2.4800000000000003E-002    -2.2331508075706136E-039
  -2.4750000000000001E-002     1.8868147204392987E-039
  -2.4700000000000000E-002     8.6864362770774782E-039
  -2.4649999999999998E-002     1.5919700519549710E-038
  -2.4600000000000000E-002     1.3879369927468464E-038
  -2.4550000000000002E-002     3.7351311031052421E-039
  -2.4500000000000001E-002    -7.2833663689152284E-039
  -2.4450000000000000E-002    -2.3845705082275044E-038
  -2.4399999999999998E-002    -4.1593736565765592E-038
  -2.4350000000000000E-002    -4.0269169128619198E-038
  -2.4299999999999999E-002    -3.0079381332998818E-038
  -2.4250000000000001E-002    -1.9139331036032448E-039
  -2.4199999999999999E-002     2.7380127146762889E-038
  -2.4150000000000001E-002     2.1075907383713734E-038
  -2.4100000000000000E-002     1.5859833373954429E-038
  -2.4049999999999998E-002     2.7800221587938775E-038
  -2.4000000000000000E-002     7.5227517382907173E-038
  -2.3949999999999999E-002     1.0676595304446991E-037
  -2.3900000000000001E-002     8.5146825113471039E-038
  -2.3850000000000000E-002     2.9718199370764774E-038
  -2.3800000000000002E-002     1.2317465090531568E-039
  -2.3750000000000000E-002     1.8353181517099698E-038
  -2.3699999999999999E-002     2.9904951346887853E-038
  -2.3650000000000001E-002    -6.5872795562013979E-038
  -2.3599999999999999E-002    -3.3334475085335323E-037
  -2.3550000000000001E-002    -7.3436024891633807E-037
  -2.3500000000000000E-002    -1.0588603890020205E-036
  -2.3449999999999999E-002    -1.0412750920588109E-036
  -2.3400000000000001E-002    -4.8068137574647711E-037
  -2.3349999999999999E-002     6.5655736517021290E-037
  -2.3300000000000001E-002     2.1930740211016708E-036
  -2.3250000000000000E-002     3.7323437331938115E-036
  -2.3199999999999998E-002     4.6846562417972935E-036
  -2.3150000000000000E-002     4.3593890636760939E-036
  -2.3099999999999999E-002     2.1646378671684145E-036
  -2.3050000000000001E-002    -2.0827037607175669E-036
  -2.3000000000000000E-002    -7.7990131145612564E-036
  -2.2950000000000002E-002    -1.3509986108036519E-035
  -2.2900000000000000E-002    -1.6994521037824403E-035
  -2.2849999999999999E-002    -1.5859663095650829E-035
  -2.2800000000000001E-002    -8.4198189022699241E-036
  -2.2749999999999999E-002     5.3684969375569723E-036
  -2.2700000000000001E-002     2.3246690814288031E-035
  -2.2650000000000000E-002     4.0593595300993136E-035
  -2.2599999999999999E-002     5.1181198681437254E-035
  -2.2550000000000001E-002     4.8761945236157420E-035
  -2.2499999999999999E-002     2.9221521562760710E-035
  -2.2450000000000001E-002    -7.2619163848796492E-036
  -2.2400000000000000E-002    -5.4812993280586706E-035
  -2.2349999999999998E-002    -1.0195233292515433E-034
  -2.2300000000000000E-002    -1.3361499650190449E-034
  -2.2249999999999999E-002    -1.3494831731652986E-034
  -2.2200000000000001E-002    -9.6075096364995746E-035
  -2.2150000000000000E-002    -1.6481755815066880E-035
  -2.2100000000000002E-002     9.2464566455343897E-035
  -2.2050000000000000E-002     2.0803462955085150E-034
  -2.1999999999999999E-002     3.0007422443087456E-034
  -2.1950000000000001E-002     3.3772427517310693E-034
  -2.1899999999999999E-002     2.9736817032548430E-034
  -2.1850000000000001E-002     1.6974958848291115E-034
  -2.1800000000000000E-002    -3.5628482355949753E-035
  -2.1749999999999999E-002    -2.8993448662171740E-034
  -2.1700000000000001E-002    -5.4822159876526750E-034
  -2.1649999999999999E-002    -7.5539983695009898E-034
  -2.1600000000000001E-002    -8.5357676924623038E-034
  -2.1550000000000000E-002    -7.8985765224173560E-034
  -2.1499999999999998E-002    -5.2479595630555868E-034
  -2.1450000000000000E-002    -4.2679240960899666E-035
  -2.1399999999999999E-002     6.3520518657527015E-034
  -2.1350000000000001E-002     1.4350085069171636E-033
  -2.1299999999999999E-002     2.2167461325962909E-033
  -2.1250000000000002E-002     2.7712684295567848E-033
  -2.1200000000000000E-002     2.8390931201578116E-033
  -2.1149999999999999E-002     2.1610037940998622E-033
  -2.1100000000000001E-002     5.6275610537234613E-034
  -2.1049999999999999E-002    -1.9375570123481146E-033
  -2.1000000000000001E-002    -5.0279740646284180E-033
  -2.0950000000000000E-002    -8.0499048730708996E-033
  -2.0899999999999998E-002    -1.0041205181251249E-032
  -2.0850000000000000E-002    -9.9091560155740444E-033
  -2.0799999999999999E-002    -6.7344531221624665E-033
  -2.0750000000000001E-002    -1.5855676653807888E-034
  -2.0700000000000000E-002     9.2457298235200273E-033
  -2.0649999999999998E-002     1.9758168621587773E-032
  -2.0600000000000000E-002     2.8589739929576722E-032
  -2.0549999999999999E-002     3.2349261095006704E-032
  -2.0500000000000001E-002     2.7892920036173764E-032
  -2.0449999999999999E-002     1.3418882886641362E-032
  -2.0400000000000001E-002    -1.0463570976993005E-032
  -2.0350000000000000E-002    -4.0047287495218347E-032
  -2.0299999999999999E-002    -6.8575335115745388E-032
  -2.0250000000000001E-002    -8.7254216213999014E-032
  -2.0199999999999999E-002    -8.7227303581506920E-032
  -2.0150000000000001E-002    -6.2200134809969498E-032
  -2.0100000000000000E-002    -1.1115606944113964E-032
  -2.0049999999999998E-002     5.9910093519974932E-032
  -2.0000000000000000E-002     1.3717522959786141E-031
  -1.9949999999999999E-002     2.0104595494191772E-031
  -1.9900000000000001E-002     2.2975502899727726E-031
  -1.9850000000000000E-002     2.0483110366209132E-031
  -1.9799999999999998E-002     1.1706340101168679E-031
  -1.9750000000000000E-002    -2.8492422097511171E-032
  -1.9699999999999999E-002    -2.1003420849081834E-031
  -1.9650000000000001E-002    -3.9029634718391171E-031
  -1.9599999999999999E-002    -5.2212270740771625E-031
  -1.9550000000000001E-002    -5.5789025464512039E-031
  -1.9500000000000000E-002    -4.6132021759012323E-031
  -1.9449999999999999E-002    -2.1937001783701435E-031
  -1.9400000000000001E-002     1.4856470249858970E-031
  -1.9349999999999999E-002     5.8685004206533228E-031
  -1.9300000000000001E-002     1.0073073881695516E-030
  -1.9250000000000000E-002     1.3013551097539911E-030
  -1.9199999999999998E-002     1.3600246311740152E-030
  -1.9150000000000000E-002     1.0995303125370016E-030
  -1.9099999999999999E-002     4.8832856436878976E-031
  -1.9050000000000001E-002    -4.2987804064251403E-031
  -1.9000000000000000E-002    -1.5235915807143491E-030
  -1.8949999999999998E-002    -2.5776728962683559E-030
  -1.8900000000000000E-002    -3.3188321927232898E-030
  -1.8849999999999999E-002    -3.4637626312533792E-030
  -1.8800000000000001E-002    -2.7861380908519194E-030
  -1.8749999999999999E-002    -1.1924654805768705E-030
  -1.8700000000000001E-002     1.2094656525877470E-030
  -1.8650000000000000E-002     4.0701387124099181E-030
  -1.8599999999999998E-002     6.8068862186922488E-030
  -1.8550000000000001E-002     8.6770405852938689E-030
  -1.8499999999999999E-002     8.9191101912866824E-030
  -1.8450000000000001E-002     6.9476107348421801E-030
  -1.8400000000000000E-002     2.5668317686079339E-030
  -1.8349999999999998E-002    -3.8489478935596255E-030
  -1.8300000000000000E-002    -1.1270018096789873E-029
  -1.8249999999999999E-002    -1.8075865602589289E-029
  -1.8200000000000001E-002    -2.2301075474456962E-029
  -1.8149999999999999E-002    -2.2052704266601559E-029
  -1.8100000000000002E-002    -1.6037988649724017E-029
  -1.8050000000000000E-002    -4.0913048599106643E-030
  -1.7999999999999999E-002     1.2444212636786628E-029
  -1.7950000000000001E-002     3.0627593502954387E-029
  -1.7899999999999999E-002     4.6232697687647530E-029
  -1.7850000000000001E-002     5.4492705076975222E-029
  -1.7800000000000000E-002     5.1197386682620891E-029
  -1.7749999999999998E-002     3.3947103902313277E-029
  -1.7700000000000000E-002     3.2732743388484692E-030
  -1.7649999999999999E-002    -3.6705222678811796E-029
  -1.7600000000000001E-002    -7.8382414643721135E-029
  -1.7550000000000000E-002    -1.1169032375165657E-028
  -1.7499999999999998E-002    -1.2601800044450153E-028
  -1.7450000000000000E-002    -1.1275622370639665E-028
  -1.7399999999999999E-002    -6.7975015585076633E-029
  -1.7350000000000001E-002     5.4083993569130137E-030
  -1.7299999999999999E-002     9.6636339215516852E-029
  -1.7250000000000001E-002     1.8781870053422114E-028
  -1.7200000000000000E-002     2.5657026168235335E-028
  -1.7149999999999999E-002     2.8038558941492068E-028
  -1.7100000000000001E-002     2.4209488525197717E-028
  -1.7049999999999999E-002     1.3533526840249601E-028
  -1.7000000000000001E-002    -3.1273056232665440E-029
  -1.6950000000000000E-002    -2.3254702740753592E-028
  -1.6899999999999998E-002    -4.2874160113077562E-028
  -1.6850000000000000E-002    -5.7150108871005819E-028
  -1.6799999999999999E-002    -6.1329079193512472E-028
  -1.6750000000000001E-002    -5.1891660359633597E-028
  -1.6700000000000000E-002    -2.7692273451850425E-028
  -1.6649999999999998E-002     9.1840694298275046E-029
  -1.6600000000000000E-002     5.3118466477245426E-028
  -1.6549999999999999E-002     9.5415744175721414E-028
  -1.6500000000000001E-002     1.2560367037988294E-027
  -1.6449999999999999E-002     1.3347704351821944E-027
  -1.6400000000000001E-002     1.1159013333428302E-027
  -1.6350000000000000E-002     5.7719139923582104E-028
  -1.6299999999999999E-002    -2.3298606800845132E-028
  -1.6250000000000001E-002    -1.1894664526516654E-027
  -1.6199999999999999E-002    -2.1009183615746685E-027
  -1.6150000000000001E-002    -2.7390152749034520E-027
  -1.6100000000000000E-002    -2.8838633171397007E-027
  -1.6049999999999998E-002    -2.3788601301429264E-027
  -1.6000000000000000E-002    -1.1841020387311579E-027
  -1.5949999999999999E-002     5.8499255064430432E-028
  -1.5900000000000001E-002     2.6469626199781475E-027
  -1.5850000000000000E-002     4.5811115095800987E-027
  -1.5799999999999998E-002     5.8946884015296256E-027
  -1.5750000000000000E-002     6.1240616180794415E-027
  -1.5699999999999999E-002     4.9535672842761578E-027
  -1.5650000000000001E-002     2.3273272471205438E-027
  -1.5599999999999999E-002    -1.4749737029201179E-027
  -1.5550000000000001E-002    -5.8255217778010001E-027
  -1.5500000000000000E-002    -9.8171495822731120E-027
  -1.5449999999999998E-002    -1.2415932118815455E-026
  -1.5400000000000000E-002    -1.2680087937508850E-026
  -1.5349999999999999E-002    -1.0007354351631713E-026
  -1.5300000000000001E-002    -4.3574052443685183E-027
  -1.5250000000000000E-002     3.6102925047713645E-027
  -1.5199999999999998E-002     1.2535573326452080E-026
  -1.5150000000000000E-002     2.0524537028541687E-026
  -1.5099999999999999E-002     2.5481462882229726E-026
  -1.5050000000000001E-002     2.5562335886888888E-026
  -1.4999999999999999E-002     1.9667922927661584E-026
  -1.4949999999999998E-002     7.8672242085496119E-027
  -1.4900000000000000E-002    -8.3645982381636285E-027
  -1.4849999999999999E-002    -2.6190047490600308E-026
  -1.4800000000000001E-002    -4.1784315568305674E-026
  -1.4749999999999999E-002    -5.1022879592221506E-026
  -1.4700000000000001E-002    -5.0385206717794526E-026
  -1.4650000000000000E-002    -3.7907192906879283E-026
  -1.4599999999999998E-002    -1.3968928514181619E-026
  -1.4550000000000000E-002     1.8300806346892062E-026
  -1.4499999999999999E-002     5.3177099158409436E-026
  -1.4450000000000001E-002     8.3127904711496077E-026
  -1.4400000000000000E-002     1.0018663844430447E-025
  -1.4349999999999998E-002     9.7709592047814042E-026
  -1.4300000000000000E-002     7.2189319096427585E-026
  -1.4249999999999999E-002     2.4715394037044699E-026
  -1.4200000000000001E-002    -3.8327707612184639E-026
  -1.4149999999999999E-002    -1.0564267895963399E-025
  -1.4099999999999998E-002    -1.6261452609565006E-025
  -1.4050000000000000E-002    -1.9399862612443533E-025
  -1.3999999999999999E-002    -1.8730533759746695E-025
  -1.3950000000000001E-002    -1.3624322368616757E-025
  -1.3899999999999999E-002    -4.3439235563296166E-026
  -1.3850000000000001E-002     7.8338846339210792E-026
  -1.3800000000000000E-002     2.0704655193719818E-025
  -1.3749999999999998E-002     3.1454111057391252E-025
  -1.3700000000000000E-002     3.7181496370220147E-025
  -1.3649999999999999E-002     3.5549808463673340E-025
  -1.3600000000000001E-002     2.5438773226795178E-025
  -1.3550000000000000E-002     7.4504537494181467E-026
  -1.3499999999999998E-002    -1.5879451043778383E-025
  -1.3450000000000000E-002    -4.0273401084656653E-025
  -1.3399999999999999E-002    -6.0344754786137762E-025
  -1.3350000000000001E-002    -7.0614821729499644E-025
  -1.3299999999999999E-002    -6.6756963567429122E-025
  -1.3249999999999998E-002    -4.6825916991558084E-025
  -1.3200000000000000E-002    -1.2184705737393393E-025
  -1.3149999999999998E-002     3.2146387334741159E-025
  -1.3100000000000001E-002     7.7915906291889425E-025
  -1.3049999999999999E-002     1.1489906280128206E-024
  -1.3000000000000001E-002     1.3286237451122931E-024
  -1.2950000000000000E-002     1.2392087220858067E-024
  -1.2899999999999998E-002     8.4820204541048525E-025
  -1.2850000000000000E-002     1.8600323405419271E-025
  -1.2799999999999999E-002    -6.4866256681518854E-025