  -4.0000000000000001E-002     0.0000000000000000     
  -3.9949999999999999E-002     0.0000000000000000     
  -3.9899999999999998E-002     0.0000000000000000     
  -3.9850000000000003E-002     0.0000000000000000     
  -3.9800000000000002E-002     0.0000000000000000     
  -3.9750000000000001E-002     0.0000000000000000     
  -3.9699999999999999E-002     0.0000000000000000     
  -3.9649999999999998E-002     0.0000000000000000     
  -3.9600000000000003E-002     0.0000000000000000     
  -3.9550000000000002E-002     0.0000000000000000     
  -3.9500000000000000E-002     0.0000000000000000     
  -3.9449999999999999E-002     0.0000000000000000     
  -3.9399999999999998E-002     0.0000000000000000     
  -3.9350000000000003E-002     0.0000000000000000     
  -3.9300000000000002E-002     0.0000000000000000     
  -3.9250000000000000E-002     0.0000000000000000     
  -3.9199999999999999E-002     0.0000000000000000     
  -3.9150000000000004E-002     0.0000000000000000     
  -3.9100000000000003E-002     0.0000000000000000     
  -3.9050000000000001E-002     0.0000000000000000     
  -3.9000000000000000E-002     0.0000000000000000     
  -3.8949999999999999E-002     0.0000000000000000     
  -3.8900000000000004E-002     0.0000000000000000     
  -3.8850000000000003E-002     0.0000000000000000     
  -3.8800000000000001E-002     0.0000000000000000     
  -3.8750000000000000E-002     0.0000000000000000     
  -3.8699999999999998E-002     0.0000000000000000     
  -3.8650000000000004E-002     0.0000000000000000     
  -3.8600000000000002E-002     0.0000000000000000     
  -3.8550000000000001E-002     0.0000000000000000     
  -3.8500000000000000E-002     0.0000000000000000     
  -3.8449999999999998E-002     0.0000000000000000     
  -3.8400000000000004E-002     0.0000000000000000     
  -3.8350000000000002E-002     0.0000000000000000     
  -3.8300000000000001E-002     0.0000000000000000     
  -3.8249999999999999E-002     0.0000000000000000     
  -3.8199999999999998E-002     0.0000000000000000     
  -3.8150000000000003E-002     0.0000000000000000     
  -3.8100000000000002E-002     0.0000000000000000     
  -3.8050000000000000E-002     0.0000000000000000     
  -3.7999999999999999E-002     0.0000000000000000     
  -3.7949999999999998E-002     0.0000000000000000     
  -3.7900000000000003E-002     0.0000000000000000     
  -3.7850000000000002E-002     0.0000000000000000     
  -3.7800000000000000E-002     0.0000000000000000     
  -3.7749999999999999E-002     0.0000000000000000     
  -3.7699999999999997E-002     0.0000000000000000     
  -3.7650000000000003E-002     0.0000000000000000     
  -3.7600000000000001E-002     0.0000000000000000     
  -3.7550000000000000E-002     0.0000000000000000     
  -3.7499999999999999E-002     0.0000000000000000     
  -3.7449999999999997E-002     0.0000000000000000     
  -3.7400000000000003E-002     0.0000000000000000     
  -3.7350000000000001E-002     0.0000000000000000     
  -3.7300000000000000E-002     0.0000000000000000     
  -3.7249999999999998E-002     0.0000000000000000     
  -3.7200000000000004E-002     0.0000000000000000     
  -3.7150000000000002E-002     0.0000000000000000     
  -3.7100000000000001E-002     0.0000000000000000     
  -3.7050000000000000E-002     0.0000000000000000     
  -3.6999999999999998E-002     0.0000000000000000     
  -3.6950000000000004E-002     0.0000000000000000     
  -3.6900000000000002E-002     0.0000000000000000     
  -3.6850000000000001E-002     0.0000000000000000     
  -3.6799999999999999E-002     0.0000000000000000     
  -3.6749999999999998E-002     0.0000000000000000     
  -3.6700000000000003E-002     0.0000000000000000     
  -3.6650000000000002E-002     0.0000000000000000     
  -3.6600000000000001E-002     0.0000000000000000     
  -3.6549999999999999E-002     0.0000000000000000     
  -3.6499999999999998E-002     0.0000000000000000     
  -3.6450000000000003E-002     0.0000000000000000     
  -3.6400000000000002E-002     0.0000000000000000     
  -3.6350000000000000E-002     0.0000000000000000     
  -3.6299999999999999E-002     0.0000000000000000     
  -3.6249999999999998E-002     0.0000000000000000     
  -3.6200000000000003E-002     0.0000000000000000     
  -3.6150000000000002E-002     0.0000000000000000     
  -3.6100000000000000E-002     0.0000000000000000     
  -3.6049999999999999E-002     0.0000000000000000     
  -3.6000000000000004E-002     0.0000000000000000     
  -3.5950000000000003E-002     0.0000000000000000     
  -3.5900000000000001E-002     0.0000000000000000     
  -3.5850000000000000E-002     0.0000000000000000     
  -3.5799999999999998E-002     0.0000000000000000     
  -3.5750000000000004E-002     0.0000000000000000     
  -3.5700000000000003E-002     0.0000000000000000     
  -3.5650000000000001E-002     0.0000000000000000     
  -3.5600000000000000E-002     0.0000000000000000     
  -3.5549999999999998E-002     0.0000000000000000     
  -3.5500000000000004E-002     0.0000000000000000     
  -3.5450000000000002E-002     0.0000000000000000     
  -3.5400000000000001E-002     0.0000000000000000     
  -3.5349999999999999E-002     0.0000000000000000     
  -3.5299999999999998E-002     0.0000000000000000     
  -3.5250000000000004E-002     0.0000000000000000     
  -3.5200000000000002E-002     0.0000000000000000     
  -3.5150000000000001E-002     0.0000000000000000     
  -3.5099999999999999E-002     0.0000000000000000     
  -3.5049999999999998E-002     0.0000000000000000     
  -3.5000000000000003E-002     0.0000000000000000     
  -3.4950000000000002E-002     0.0000000000000000     
  -3.4900000000000000E-002     0.0000000000000000     
  -3.4849999999999999E-002     0.0000000000000000     
  -3.4799999999999998E-002     0.0000000000000000     
  -3.4750000000000003E-002     0.0000000000000000     
  -3.4700000000000002E-002     0.0000000000000000     
  -3.4650000000000000E-002     0.0000000000000000     
  -3.4599999999999999E-002     0.0000000000000000     
  -3.4549999999999997E-002     0.0000000000000000     
  -3.4500000000000003E-002     0.0000000000000000     
  -3.4450000000000001E-002     0.0000000000000000     
  -3.4400000000000000E-002     0.0000000000000000     
  -3.4349999999999999E-002     0.0000000000000000     
  -3.4299999999999997E-002     0.0000000000000000     
  -3.4250000000000003E-002     0.0000000000000000     
  -3.4200000000000001E-002     0.0000000000000000     
  -3.4150000000000000E-002     0.0000000000000000     
  -3.4099999999999998E-002     0.0000000000000000     
  -3.4049999999999997E-002     0.0000000000000000     
  -3.4000000000000002E-002     0.0000000000000000     
  -3.3950000000000001E-002     0.0000000000000000     
  -3.3900000000000000E-002     0.0000000000000000     
  -3.3849999999999998E-002     0.0000000000000000     
  -3.3799999999999997E-002     0.0000000000000000     
  -3.3750000000000002E-002     0.0000000000000000     
  -3.3700000000000001E-002     0.0000000000000000     
  -3.3649999999999999E-002     0.0000000000000000     
  -3.3599999999999998E-002     0.0000000000000000     
  -3.3550000000000003E-002     0.0000000000000000     
  -3.3500000000000002E-002     0.0000000000000000     
  -3.3450000000000001E-002     0.0000000000000000     
  -3.3399999999999999E-002     0.0000000000000000     
  -3.3349999999999998E-002     0.0000000000000000     
  -3.3300000000000003E-002     0.0000000000000000     
  -3.3250000000000002E-002     0.0000000000000000     
  -3.3200000000000000E-002    -3.4477308946559990E-040
  -3.3149999999999999E-002    -6.8158949551350685E-040
  -3.3099999999999997E-002    -4.5704033101870291E-040
  -3.3050000000000003E-002     4.0889599420756129E-040
  -3.3000000000000002E-002     2.2048909988499787E-039
  -3.2950000000000000E-002     4.4976086358656827E-039
  -3.2899999999999999E-002     5.0592569017891992E-039
  -3.2850000000000004E-002     1.7205029329723437E-039
  -3.2800000000000003E-002    -6.1730611598406812E-039
  -3.2750000000000001E-002    -4.3335175938165579E-038
  -3.2700000000000000E-002    -8.3660197856153656E-038
  -3.2649999999999998E-002    -5.3904637554338675E-038
  -3.2600000000000004E-002     6.0446823051090940E-038
  -3.2550000000000003E-002     2.2367973843390484E-037
  -3.2500000000000001E-002     3.3511322365612851E-037
  -3.2450000000000000E-002     2.8229971280868172E-037
  -3.2399999999999998E-002    -2.5766404124386579E-039
  -3.2350000000000004E-002    -4.6047210609569268E-037
  -3.2300000000000002E-002    -9.3434519302264737E-037
  -3.2250000000000001E-002    -1.1843101930456288E-036
  -3.2199999999999999E-002    -9.2762021729909413E-037
  -3.2149999999999998E-002     4.7743932381939208E-038
  -3.2100000000000004E-002     1.7063662603450137E-036
  -3.2050000000000002E-002     3.5754943158808783E-036
  -3.2000000000000001E-002     4.7040686369410578E-036
  -3.1949999999999999E-002     3.8394208620320438E-036
  -3.1899999999999998E-002     3.1455761362960907E-038
  -3.1850000000000003E-002    -6.5605712864692480E-036
  -3.1800000000000002E-002    -1.3982206827234663E-035
  -3.1750000000000000E-002    -1.8443603551393896E-035
  -3.1699999999999999E-002    -1.5349690111530316E-035
  -3.1649999999999998E-002    -1.4498134700497866E-036
  -3.1600000000000003E-002     2.2465396794136044E-035
  -3.1550000000000002E-002     4.9529809758950067E-035
  -3.1500000000000000E-002     6.6944999124466931E-035
  -3.1449999999999999E-002     5.9459128691657100E-035
  -3.1399999999999997E-002     1.6145213826138347E-035
  -3.1350000000000003E-002    -6.1376996146367076E-035
  -3.1300000000000001E-002    -1.5290152512655332E-034
  -3.1250000000000000E-002    -2.2013393057600842E-034
  -3.1199999999999999E-002    -2.1679499632609762E-034
  -3.1150000000000001E-002    -1.0781051851932308E-034
  -3.1100000000000003E-002     1.0798075387237031E-034
  -3.1050000000000001E-002     3.8158630828130500E-034
  -3.1000000000000000E-002     6.1513484992064028E-034
  -3.0949999999999998E-002     6.8735204995477390E-034
  -3.0900000000000000E-002     5.0018997337662924E-034
  -3.0850000000000002E-002     3.1567415558682932E-035
  -3.0800000000000001E-002    -6.2939256808321559E-034
  -3.0750000000000000E-002    -1.2873420153498891E-033
  -3.0699999999999998E-002    -1.6951799932992288E-033
  -3.0650000000000000E-002    -1.6443252762262537E-033
  -3.0600000000000002E-002    -1.0543724133393395E-033
  -3.0550000000000001E-002    -1.6709502229234992E-035
  -3.0499999999999999E-002     1.2381544472994966E-033
  -3.0449999999999998E-002     2.4409074971760224E-033
  -3.0400000000000000E-002     3.3960396728336949E-033
  -3.0350000000000002E-002     4.0250519030155521E-033
  -3.0300000000000001E-002     4.2804717970613374E-033
  -3.0249999999999999E-002     3.9496433260707005E-033
  -3.0200000000000001E-002     2.4766178866163801E-033
  -3.0150000000000000E-002    -9.9182049525807593E-034
  -3.0100000000000002E-002    -7.1600335891963383E-033
  -3.0050000000000000E-002    -1.5745917663638488E-032
  -2.9999999999999999E-002    -2.4568458895784455E-032
  -2.9950000000000001E-002    -2.9175566722975257E-032
  -2.9899999999999999E-002    -2.3707803793172670E-032
  -2.9850000000000002E-002    -3.3635349865817266E-033
  -2.9800000000000000E-002     3.1956182480959374E-032
  -2.9749999999999999E-002     7.4273540869886309E-032
  -2.9700000000000001E-002     1.0665989344774582E-031
  -2.9650000000000003E-002     1.0698997531534787E-031
  -2.9600000000000001E-002     5.7012098631938593E-032
  -2.9550000000000000E-002    -4.5285270357475090E-032
  -2.9499999999999998E-002    -1.7514238000047781E-031
  -2.9450000000000000E-002    -2.7940369424714636E-031
  -2.9400000000000003E-002    -2.8986350048056935E-031
  -2.9350000000000001E-002    -1.5262802585414609E-031
  -2.9300000000000000E-002     1.3386282089731536E-031
  -2.9249999999999998E-002     4.8845165645397194E-031
  -2.9200000000000000E-002     7.4564234985599606E-031
  -2.9150000000000002E-002     6.9974466423036303E-031
  -2.9100000000000001E-002     1.9622488793244755E-031
  -2.9049999999999999E-002    -7.5294247919263972E-031
  -2.8999999999999998E-002    -1.8784721703901641E-030
  -2.8950000000000000E-002    -2.6491791162284583E-030
  -2.8900000000000002E-002    -2.4031354244798672E-030
  -2.8850000000000001E-002    -6.2033390013733144E-031
  -2.8799999999999999E-002     2.7262321138796191E-030
  -2.8749999999999998E-002     6.8758422205019024E-030
  -2.8700000000000000E-002     1.0216854575253216E-029
  -2.8650000000000002E-002     1.0604808637307866E-029
  -2.8600000000000000E-002     6.1020739049271643E-030
  -2.8549999999999999E-002    -4.0006803912480863E-030
  -2.8500000000000001E-002    -1.8218329835079871E-029
  -2.8450000000000000E-002    -3.2428310929724118E-029
  -2.8400000000000002E-002    -4.0394144197028216E-029
  -2.8350000000000000E-002    -3.5464152159747052E-029
  -2.8299999999999999E-002    -1.3227490976464389E-029
  -2.8250000000000001E-002     2.5598404468806499E-029
  -2.8200000000000003E-002     7.3174371650457570E-029
  -2.8150000000000001E-002     1.1464190804642894E-028
  -2.8100000000000000E-002     1.3112166888331001E-028
  -2.8049999999999999E-002     1.0552197162371861E-028
  -2.8000000000000001E-002     2.9895483058428289E-029
  -2.7950000000000003E-002    -8.7997549389362247E-029
  -2.7900000000000001E-002    -2.2176990739450216E-028
  -2.7850000000000000E-002    -3.2952426607543542E-028
  -2.7799999999999998E-002    -3.6384308160916092E-028
  -2.7750000000000000E-002    -2.8711027378399993E-028
  -2.7700000000000002E-002    -8.8110762460953173E-029
  -2.7650000000000001E-002     2.0584646955795374E-028
  -2.7600000000000000E-002     5.2702801767896181E-028
  -2.7549999999999998E-002     7.7914803398186703E-028
  -2.7500000000000000E-002     8.6242708431495565E-028
  -2.7450000000000002E-002     7.0625014994607757E-028
  -2.7400000000000001E-002     2.9965537761646654E-028
  -2.7349999999999999E-002    -2.9167130427332783E-028
  -2.7299999999999998E-002    -9.3091401639729472E-028
  -2.7250000000000000E-002    -1.4409564458135593E-027
  -2.7200000000000002E-002    -1.6546418905482755E-027
  -2.7150000000000001E-002    -1.4701880818005129E-027
  -2.7099999999999999E-002    -8.9267386447281099E-028
  -2.7049999999999998E-002    -4.3976005848519911E-029
  -2.7000000000000000E-002     8.6785696460734814E-028
  -2.6950000000000002E-002     1.6147470384703578E-027
  -2.6900000000000000E-002     2.0299599759334991E-027
  -2.6849999999999999E-002     2.0737762898552365E-027
  -2.6800000000000001E-002     1.8519569685636861E-027
  -2.6749999999999999E-002     1.5678884043119909E-027
  -2.6700000000000002E-002     1.4132278936393519E-027
  -2.6650000000000000E-002     1.4309299295129253E-027
  -2.6599999999999999E-002     1.4084069607254300E-027
  -2.6550000000000001E-002     8.6590514266086897E-028
  -2.6500000000000003E-002    -8.1247128841342587E-028
  -2.6450000000000001E-002    -4.1017275521900307E-027
  -2.6400000000000000E-002    -8.9718009435677576E-027
  -2.6349999999999998E-002    -1.4557559956851744E-026
  -2.6300000000000000E-002    -1.9022870013493234E-026
  -2.6250000000000002E-002    -1.9769705148604808E-026
  -2.6200000000000001E-002    -1.4072466703432546E-026
  -2.6150000000000000E-002    -8.7931518969641092E-029
  -2.6099999999999998E-002     2.1972261703776333E-026
  -2.6050000000000000E-002     4.8870459887370447E-026
  -2.6000000000000002E-002     7.4016839693803591E-026
  -2.5950000000000001E-002     8.8185254773583913E-026
  -2.5899999999999999E-002     8.1464357579304941E-026
  -2.5849999999999998E-002     4.6287389856384248E-026
  -2.5800000000000000E-002    -1.9045995648076966E-026
  -2.5750000000000002E-002    -1.0733652455340993E-025
  -2.5700000000000001E-002    -2.0113393909979787E-025
  -2.5649999999999999E-002    -2.7415496427334192E-025
  -2.5599999999999998E-002    -2.9605683783307518E-025
  -2.5550000000000000E-002    -2.4028058122306573E-025
  -2.5500000000000002E-002    -9.3595155965813759E-026
  -2.5450000000000000E-002     1.3504359396833762E-025
  -2.5399999999999999E-002     4.0930172455423439E-025
  -2.5349999999999998E-002     6.6677746489349107E-025
  -2.5300000000000000E-002     8.2855588056544622E-025
  -2.5250000000000002E-002     8.1677481325338297E-025
  -2.5200000000000000E-002     5.7745369831147439E-025
  -2.5149999999999999E-002     1.0341589503435503E-025
  -2.5100000000000001E-002    -5.4941426483556735E-025
  -2.5049999999999999E-002    -1.2590054475668900E-024
  -2.5000000000000001E-002    -1.8520940424217526E-024
  -2.4950000000000000E-002    -2.1375242754955132E-024
  -2.4899999999999999E-002    -1.9534274468756303E-024
  -2.4850000000000001E-002    -1.2184788034934635E-024
  -2.4800000000000003E-002     2.6043243412953260E-026
  -2.4750000000000001E-002     1.5971185244779206E-024
  -2.4700000000000000E-002     3.1840976271078459E-024
  -2.4649999999999998E-002     4.3993342574479568E-024
  -2.4600000000000000E-002     4.8592440941262020E-024
  -2.4550000000000002E-002     4.2803285700872427E-024
  -2.4500000000000001E-002     2.5680245795361289E-024
  -2.4450000000000000E-002    -1.2536064092296753E-025
  -2.4399999999999998E-002    -3.3927383137787995E-024
  -2.4350000000000000E-002    -6.6230580617217572E-024
  -2.4299999999999999E-002    -9.1057281750500177E-024
  -2.4250000000000001E-002    -1.0169797363637221E-023
  -2.4199999999999999E-002    -9.3293977849292453E-024
  -2.4150000000000001E-002    -6.4043266299942039E-024
  -2.4100000000000000E-002    -1.5899625180552551E-024
  -2.4049999999999998E-002     4.5374711015042397E-024
  -2.4000000000000000E-002     1.1079798277057700E-023
  -2.3949999999999999E-002     1.6926998763991825E-023
  -2.3900000000000001E-002     2.0899245423516022E-023
  -2.3850000000000000E-002     2.1902973092187856E-023
  -2.3800000000000002E-002     1.9090310403475442E-023
  -2.3750000000000000E-002     1.2019480409221185E-023
  -2.3699999999999999E-002     8.1636156638191834E-025
  -2.3650000000000001E-002    -1.3670722772850056E-023
  -2.3599999999999999E-002    -2.9750845435056609E-023
  -2.3550000000000001E-002    -4.4859232720717938E-023
  -2.3500000000000000E-002    -5.5690418478697611E-023
  -2.3449999999999999E-002    -5.8572313079763246E-023
  -2.3400000000000001E-002    -5.0124848197242802E-023
  -2.3349999999999999E-002    -2.8174605269197524E-023
  -2.3300000000000001E-002     7.2065925477189721E-024
  -2.3250000000000000E-002     5.2782253297348452E-023
  -2.3199999999999998E-002     1.0167553926119561E-022
  -2.3150000000000000E-002     1.4367260276868884E-022
  -2.3099999999999999E-002     1.6654629812777318E-022
  -2.3050000000000001E-002     1.5843419200010166E-022
  -2.3000000000000000E-002     1.1100524308475827E-022
  -2.2950000000000002E-002     2.2821804526263504E-023
  -2.2900000000000000E-002    -9.7963688076364720E-023
  -2.2849999999999999E-002    -2.3254213095330501E-022
  -2.2800000000000001E-002    -3.5283457610802543E-022
  -2.2749999999999999E-002    -4.2573387851613069E-022
  -2.2700000000000001E-002    -4.1994002408476224E-022
  -2.2650000000000000E-002    -3.1434470678865379E-022
  -2.2599999999999999E-002    -1.0620374654106555E-022
  -2.2550000000000001E-002     1.8309389213161862E-022
  -2.2499999999999999E-002     5.0680184040958503E-022
  -2.2450000000000001E-002     7.9763953561639406E-022
  -2.2400000000000000E-002     9.7896950543075742E-022
  -2.2349999999999998E-002     9.8106566430043402E-022
  -2.2300000000000000E-002     7.5960693340722312E-022
  -2.2249999999999999E-002     3.1230411535717823E-022
  -2.2200000000000001E-002    -3.1087382527634354E-022
  -2.2150000000000000E-002    -1.0077863637113263E-021
  -2.2100000000000002E-002    -1.6366920791423979E-021
  -2.2050000000000000E-002    -2.0408415615290626E-021
  -2.1999999999999999E-002    -2.0816048597206609E-021
  -2.1950000000000001E-002    -1.6739178241219523E-021
  -2.1899999999999999E-002    -8.1613607544334049E-022
  -2.1850000000000001E-002     3.9368145305537656E-022
  -2.1800000000000000E-002     1.7611941805053397E-021
  -2.1749999999999999E-002     3.0214504426529104E-021
  -2.1700000000000001E-002     3.8846088882154832E-021
  -2.1649999999999999E-002     4.0946089649100337E-021
  -2.1600000000000001E-002     3.4897515034181255E-021
  -2.1550000000000000E-002     2.0522309568318713E-021
  -2.1499999999999998E-002    -6.5591066931297614E-023
  -2.1450000000000000E-002    -2.5468068965175984E-021
  -2.1399999999999999E-002    -4.9503218779398336E-021
  -2.1350000000000001E-002    -6.7818245870943263E-021
  -2.1299999999999999E-002    -7.5845375818924428E-021
  -2.1250000000000002E-002    -7.0339760034214962E-021
  -2.1200000000000000E-002    -5.0187933260529601E-021
  -2.1149999999999999E-002    -1.6910311586150971E-021
  -2.1100000000000001E-002     2.5264526749948734E-021
  -2.1049999999999999E-002     6.9808349483232151E-021
  -2.1000000000000001E-002     1.0875969230427455E-020
  -2.0950000000000000E-002     1.3394679173689859E-020
  -2.0899999999999998E-002     1.3840311438979050E-020
  -2.0850000000000000E-002     1.1777038376069607E-020
  -2.0799999999999999E-002     7.1468593203543781E-021
  -2.0750000000000001E-002     3.4211929101161094E-022
  -2.0700000000000000E-002    -7.7843426170733050E-021
  -2.0649999999999998E-002    -1.5983750571082115E-020
  -2.0600000000000000E-002    -2.2754960726401690E-020
  -2.0549999999999999E-002    -2.6560740548944891E-020
  -2.0500000000000001E-002    -2.6097552279227782E-020
  -2.0449999999999999E-002    -2.0585237373220624E-020
  -2.0400000000000001E-002    -1.0029494946449969E-020
  -2.0350000000000000E-002     4.5994684869404636E-021
  -2.0299999999999999E-002     2.1329902703857305E-020
  -2.0250000000000001E-002     3.7340021090005497E-020
  -2.0199999999999999E-002     4.9319533045220393E-020
  -2.0150000000000001E-002     5.4023561406681545E-020
  -2.0100000000000000E-002     4.8953304797172742E-020
  -2.0049999999999998E-002     3.3049883419557691E-020
  -2.0000000000000000E-002     7.2523602508158740E-021
  -1.9949999999999999E-002    -2.5239384923189186E-020
  -1.9900000000000001E-002    -5.9130789055621990E-020
  -1.9850000000000000E-002    -8.7697012355160124E-020
  -1.9799999999999998E-002    -1.0391603750355917E-019
  -1.9750000000000000E-002    -1.0192401891084943E-019
  -1.9699999999999999E-002    -7.8535529412813362E-020
  -1.9650000000000001E-002    -3.4496443330287622E-020
  -1.9599999999999999E-002     2.4875545965331611E-020
  -1.9550000000000001E-002     8.9939734353991191E-020
  -1.9500000000000000E-002     1.4799854654548163E-019
  -1.9449999999999999E-002     1.8549718675410091E-019
  -1.9400000000000001E-002     1.9083809912663773E-019
  -1.9349999999999999E-002     1.5728546973251910E-019
  -1.9300000000000001E-002     8.5313570542504086E-020
  -1.9250000000000000E-002    -1.6236919677992963E-020
  -1.9199999999999998E-002    -1.3066963599769188E-019
  -1.9150000000000000E-002    -2.3578194934169672E-019
  -1.9099999999999999E-002    -3.0782974898334836E-019
  -1.9050000000000001E-002    -3.2647495350935902E-019
  -1.9000000000000000E-002    -2.7975539653889192E-019
  -1.8949999999999998E-002    -1.6796107036812872E-019
  -1.8900000000000000E-002    -5.3806196280813738E-021
  -1.8849999999999999E-002     1.8078592196502990E-019
  -1.8800000000000001E-002     3.5450999181336037E-019
  -1.8749999999999999E-002     4.7751934878004917E-019
  -1.8700000000000001E-002     5.1726055282300873E-019
  -1.8650000000000000E-002     4.5465705558539664E-019
  -1.8599999999999998E-002     2.8992580451971804E-019
  -1.8550000000000001E-002     4.4935409332221147E-020
  -1.8499999999999999E-002    -2.3882733522161765E-019
  -1.8450000000000001E-002    -5.0675118213413665E-019
  -1.8400000000000000E-002    -7.0115228991727660E-019
  -1.8349999999999998E-002    -7.7310907272324373E-019
  -1.8300000000000000E-002    -6.9373311854750358E-019
  -1.8249999999999999E-002    -4.6241627971773585E-019
  -1.8200000000000001E-002    -1.1000577244413244E-019
  -1.8149999999999999E-002     3.0425585980599418E-019
  -1.8100000000000002E-002     7.0197978289587152E-019
  -1.8050000000000000E-002     9.9973004848576529E-019
  -1.7999999999999999E-002     1.1255241260537830E-018
  -1.7950000000000001E-002     1.0346022051229067E-018
  -1.7899999999999999E-002     7.2123696515784471E-019
  -1.7850000000000001E-002     2.2390494944559109E-019
  -1.7800000000000000E-002    -3.7775998562293249E-019
  -1.7749999999999998E-002    -9.7434127073215723E-019
  -1.7700000000000000E-002    -1.4448862696466630E-018
  -1.7649999999999999E-002    -1.6791933740016113E-018
  -1.7600000000000001E-002    -1.6003604782668819E-018
  -1.7550000000000000E-002    -1.1834905687316310E-018
  -1.7499999999999998E-002    -4.6678708580474799E-019
  -1.7450000000000000E-002     4.4774262282157768E-019
  -1.7399999999999999E-002     1.4052623351419910E-018
  -1.7350000000000001E-002     2.2202278360011851E-018
  -1.7299999999999999E-002     2.7072122900827991E-018
  -1.7250000000000001E-002     2.7162286084294389E-018
  -1.7200000000000000E-002     2.1669854221571929E-018
  -1.7149999999999999E-002     1.0757955580043719E-018
  -1.7100000000000001E-002    -4.3097576887633757E-019
  -1.7049999999999999E-002    -2.1218495902277759E-018
  -1.7000000000000001E-002    -3.6861766564365975E-018
  -1.6950000000000000E-002    -4.7804035924238267E-018
  -1.6899999999999998E-002    -5.0899917041544869E-018
  -1.6850000000000000E-002    -4.3982351267801765E-018
  -1.6799999999999999E-002    -2.6498188850714536E-018
  -1.6750000000000001E-002     4.8571632999632809E-021
  -1.6700000000000000E-002     3.1979181829292829E-018
  -1.6649999999999998E-002     6.3745519532700111E-018
  -1.6600000000000000E-002     8.8689517662589267E-018
  -1.6549999999999999E-002     1.0019830593400502E-017
  -1.6500000000000001E-002     9.3098131842375070E-018
  -1.6449999999999999E-002     6.5042441173691935E-018
  -1.6400000000000001E-002     1.7595361873732859E-018
  -1.6350000000000000E-002    -4.3287923031724012E-018
  -1.6299999999999999E-002    -1.0761610912274765E-017
  -1.6250000000000001E-002    -1.6265082803202320E-017
  -1.6199999999999999E-002    -1.9504451980434415E-017
  -1.6150000000000001E-002    -1.9353819469680496E-017
  -1.6100000000000000E-002    -1.5174885329555484E-017
  -1.6049999999999998E-002    -7.0463116554332291E-018
  -1.6000000000000000E-002     4.1151782084465636E-018
  -1.5949999999999999E-002     1.6588463831318483E-017
  -1.5900000000000001E-002     2.8058066664162443E-017
  -1.5850000000000000E-002     3.5987915934794077E-017
  -1.5799999999999998E-002     3.8108607190356289E-017
  -1.5750000000000000E-002     3.2934809342792741E-017
  -1.5699999999999999E-002     2.0208818673240481E-017
  -1.5650000000000001E-002     1.1646114494677757E-018
  -1.5599999999999999E-002    -2.1472446326062761E-017
  -1.5550000000000001E-002    -4.3792814745826049E-017
  -1.5500000000000000E-002    -6.1301799420754070E-017
  -1.5449999999999998E-002    -6.9732089592364380E-017
  -1.5400000000000000E-002    -6.5935729293082339E-017
  -1.5349999999999999E-002    -4.8685521547315840E-017
  -1.5300000000000001E-002    -1.9210628850064066E-017
  -1.5250000000000000E-002     1.8679229710664897E-017
  -1.5199999999999998E-002     5.8962743943894984E-017
  -1.5150000000000000E-002     9.4262840526236102E-017
  -1.5099999999999999E-002     1.1708520905047768E-016
  -1.5050000000000001E-002     1.2124657087553239E-016
  -1.4999999999999999E-002     1.0323917164615325E-016
  -1.4949999999999998E-002     6.3260011657894548E-017
  -1.4900000000000000E-002     5.6666937473328170E-018
  -1.4849999999999999E-002    -6.1295748047549002E-017
  -1.4800000000000001E-002    -1.2653135878303528E-016
  -1.4749999999999999E-002    -1.7778779309559120E-016
  -1.4700000000000001E-002    -2.0376956832622879E-016
  -1.4650000000000000E-002    -1.9632798571551602E-016
  -1.4599999999999998E-002    -1.5233650312272543E-016
  -1.4550000000000000E-002    -7.4876768658189026E-017
  -1.4499999999999999E-002     2.6553658149915157E-017
  -1.4450000000000001E-002     1.3695630077801736E-016
  -1.4400000000000000E-002     2.3783033393104974E-016
  -1.4349999999999998E-002     3.1002262353725208E-016
  -1.4300000000000000E-002     3.3702533435421798E-016
  -1.4249999999999999E-002     3.0819847464646275E-016
  -1.4200000000000001E-002     2.2135237796450761E-016
  -1.4149999999999999E-002     8.4173051320829960E-017
  -1.4099999999999998E-002    -8.5887553761132329E-017
  -1.4050000000000000E-002    -2.6341882896300394E-016
  -1.3999999999999999E-002    -4.1845150108874298E-016
  -1.3950000000000001E-002    -5.2106624407483911E-016
  -1.3899999999999999E-002    -5.4657531813417884E-016
  -1.3850000000000001E-002    -4.8046696156587485E-016
  -1.3800000000000000E-002    -3.2223673138959326E-016
  -1.3749999999999998E-002    -8.7303532219866348E-017
  -1.3700000000000000E-002     1.9357392564254643E-016
  -1.3649999999999999E-002     4.7761594854157526E-016
  -1.3600000000000001E-002     7.1587326972837541E-016
  -1.3550000000000000E-002     8.6094094097407339E-016
  -1.3499999999999998E-002     8.7544214752234497E-016
  -1.3450000000000000E-002     7.3990120735913570E-016
  -1.3399999999999999E-002     4.5853045813831084E-016
  -1.3350000000000001E-002     6.1618618668667411E-017
  -1.3299999999999999E-002    -3.9637431758431639E-016
  -1.3249999999999998E-002    -8.4326454445421178E-016
  -1.3200000000000000E-002    -1.1995987183859768E-015
  -1.3149999999999998E-002    -1.3917787046685310E-015
  -1.3100000000000001E-002    -1.3658487113247023E-015
  -1.3049999999999999E-002    -1.0995431945463807E-015
  -1.3000000000000001E-002    -6.1019213546664788E-016
  -1.2950000000000000E-002     4.3481500974052210E-017
  -1.2899999999999998E-002     7.6676585002424307E-016
  -1.2850000000000000E-002     1.4414779344187482E-015
  -1.2799999999999999E-002     1.9441886680794578E-015