  -4.0000000000000001E-002     0.0000000000000000     
  -3.9949999999999999E-002     0.0000000000000000     
  -3.9899999999999998E-002     0.0000000000000000     
  -3.9850000000000003E-002     0.0000000000000000     
  -3.9800000000000002E-002     0.0000000000000000     
  -3.9750000000000001E-002     0.0000000000000000     
  -3.9699999999999999E-002     0.0000000000000000     
  -3.9649999999999998E-002     0.0000000000000000     
  -3.9600000000000003E-002     0.0000000000000000     
  -3.9550000000000002E-002     0.0000000000000000     
  -3.9500000000000000E-002     0.0000000000000000     
  -3.9449999999999999E-002     0.0000000000000000     
  -3.9399999999999998E-002     0.0000000000000000     
  -3.9350000000000003E-002     0.0000000000000000     
  -3.9300000000000002E-002     0.0000000000000000     
  -3.9250000000000000E-002     0.0000000000000000     
  -3.9199999999999999E-002     0.0000000000000000     
  -3.9150000000000004E-002     0.0000000000000000     
  -3.9100000000000003E-002     0.0000000000000000     
  -3.9050000000000001E-002     0.0000000000000000     
  -3.9000000000000000E-002     0.0000000000000000     
  -3.8949999999999999E-002     0.0000000000000000     
  -3.8900000000000004E-002     0.0000000000000000     
  -3.8850000000000003E-002     0.0000000000000000     
  -3.8800000000000001E-002     0.0000000000000000     
  -3.8750000000000000E-002     0.0000000000000000     
  -3.8699999999999998E-002     0.0000000000000000     
  -3.8650000000000004E-002     0.0000000000000000     
  -3.8600000000000002E-002     0.0000000000000000     
  -3.8550000000000001E-002     0.0000000000000000     
  -3.8500000000000000E-002     0.0000000000000000     
  -3.8449999999999998E-002     0.0000000000000000     
  -3.8400000000000004E-002     0.0000000000000000     
  -3.8350000000000002E-002     0.0000000000000000     
  -3.8300000000000001E-002     0.0000000000000000     
  -3.8249999999999999E-002     0.0000000000000000     
  -3.8199999999999998E-002     0.0000000000000000     
  -3.8150000000000003E-002     0.0000000000000000     
  -3.8100000000000002E-002     0.0000000000000000     
  -3.8050000000000000E-002     0.0000000000000000     
  -3.7999999999999999E-002     0.0000000000000000     
  -3.7949999999999998E-002     0.0000000000000000     
  -3.7900000000000003E-002     0.0000000000000000     
  -3.7850000000000002E-002     0.0000000000000000     
  -3.7800000000000000E-002     0.0000000000000000     
  -3.7749999999999999E-002     0.0000000000000000     
  -3.7699999999999997E-002     0.0000000000000000     
  -3.7650000000000003E-002     0.0000000000000000     
  -3.7600000000000001E-002     0.0000000000000000     
  -3.7550000000000000E-002     0.0000000000000000     
  -3.7499999999999999E-002     0.0000000000000000     
  -3.7449999999999997E-002     0.0000000000000000     
  -3.7400000000000003E-002     0.0000000000000000     
  -3.7350000000000001E-002     0.0000000000000000     
  -3.7300000000000000E-002     0.0000000000000000     
  -3.7249999999999998E-002     0.0000000000000000     
  -3.7200000000000004E-002     0.0000000000000000     
  -3.7150000000000002E-002     0.0000000000000000     
  -3.7100000000000001E-002     0.0000000000000000     
  -3.7050000000000000E-002     0.0000000000000000     
  -3.6999999999999998E-002     0.0000000000000000     
  -3.6950000000000004E-002     0.0000000000000000     
  -3.6900000000000002E-002     0.0000000000000000     
  -3.6850000000000001E-002     0.0000000000000000     
  -3.6799999999999999E-002     0.0000000000000000     
  -3.6749999999999998E-002     0.0000000000000000     
  -3.6700000000000003E-002     0.0000000000000000     
  -3.6650000000000002E-002     0.0000000000000000     
  -3.6600000000000001E-002     0.0000000000000000     
  -3.6549999999999999E-002     0.0000000000000000     
  -3.6499999999999998E-002     0.0000000000000000     
  -3.6450000000000003E-002     0.0000000000000000     
  -3.6400000000000002E-002     0.0000000000000000     
  -3.6350000000000000E-002     0.0000000000000000     
  -3.6299999999999999E-002     0.0000000000000000     
  -3.6249999999999998E-002     0.0000000000000000     
  -3.6200000000000003E-002     0.0000000000000000     
  -3.6150000000000002E-002     0.0000000000000000     
  -3.6100000000000000E-002     0.0000000000000000     
  -3.6049999999999999E-002     0.0000000000000000     
  -3.6000000000000004E-002     0.0000000000000000     
  -3.5950000000000003E-002     0.0000000000000000     
  -3.5900000000000001E-002     0.0000000000000000     
  -3.5850000000000000E-002     0.0000000000000000     
  -3.5799999999999998E-002     0.0000000000000000     
  -3.5750000000000004E-002     0.0000000000000000     
  -3.5700000000000003E-002     0.0000000000000000     
  -3.5650000000000001E-002     0.0000000000000000     
  -3.5600000000000000E-002     0.0000000000000000     
  -3.5549999999999998E-002     0.0000000000000000     
  -3.5500000000000004E-002     0.0000000000000000     
  -3.5450000000000002E-002     0.0000000000000000     
  -3.5400000000000001E-002     0.0000000000000000     
  -3.5349999999999999E-002     0.0000000000000000     
  -3.5299999999999998E-002     0.0000000000000000     
  -3.5250000000000004E-002     0.0000000000000000     
  -3.5200000000000002E-002     0.0000000000000000     
  -3.5150000000000001E-002     0.0000000000000000     
  -3.5099999999999999E-002     0.0000000000000000     
  -3.5049999999999998E-002     0.0000000000000000     
  -3.5000000000000003E-002     0.0000000000000000     
  -3.4950000000000002E-002     0.0000000000000000     
  -3.4900000000000000E-002     0.0000000000000000     
  -3.4849999999999999E-002     0.0000000000000000     
  -3.4799999999999998E-002     0.0000000000000000     
  -3.4750000000000003E-002     0.0000000000000000     
  -3.4700000000000002E-002     0.0000000000000000     
  -3.4650000000000000E-002     0.0000000000000000     
  -3.4599999999999999E-002     0.0000000000000000     
  -3.4549999999999997E-002     0.0000000000000000     
  -3.4500000000000003E-002     0.0000000000000000     
  -3.4450000000000001E-002     0.0000000000000000     
  -3.4400000000000000E-002     0.0000000000000000     
  -3.4349999999999999E-002     0.0000000000000000     
  -3.4299999999999997E-002     0.0000000000000000     
  -3.4250000000000003E-002     0.0000000000000000     
  -3.4200000000000001E-002     0.0000000000000000     
  -3.4150000000000000E-002     0.0000000000000000     
  -3.4099999999999998E-002     0.0000000000000000     
  -3.4049999999999997E-002     0.0000000000000000     
  -3.4000000000000002E-002     0.0000000000000000     
  -3.3950000000000001E-002     0.0000000000000000     
  -3.3900000000000000E-002     0.0000000000000000     
  -3.3849999999999998E-002     0.0000000000000000     
  -3.3799999999999997E-002     0.0000000000000000     
  -3.3750000000000002E-002     0.0000000000000000     
  -3.3700000000000001E-002     0.0000000000000000     
  -3.3649999999999999E-002     0.0000000000000000     
  -3.3599999999999998E-002     0.0000000000000000     
  -3.3550000000000003E-002     0.0000000000000000     
  -3.3500000000000002E-002     0.0000000000000000     
  -3.3450000000000001E-002     0.0000000000000000     
  -3.3399999999999999E-002     0.0000000000000000     
  -3.3349999999999998E-002     0.0000000000000000     
  -3.3300000000000003E-002     0.0000000000000000     
  -3.3250000000000002E-002     0.0000000000000000     
  -3.3200000000000000E-002     0.0000000000000000     
  -3.3149999999999999E-002     0.0000000000000000     
  -3.3099999999999997E-002     0.0000000000000000     
  -3.3050000000000003E-002     0.0000000000000000     
  -3.3000000000000002E-002     0.0000000000000000     
  -3.2950000000000000E-002     0.0000000000000000     
  -3.2899999999999999E-002     0.0000000000000000     
  -3.2850000000000004E-002     0.0000000000000000     
  -3.2800000000000003E-002     0.0000000000000000     
  -3.2750000000000001E-002     0.0000000000000000     
  -3.2700000000000000E-002     0.0000000000000000     
  -3.2649999999999998E-002     0.0000000000000000     
  -3.2600000000000004E-002     0.0000000000000000     
  -3.2550000000000003E-002     0.0000000000000000     
  -3.2500000000000001E-002     0.0000000000000000     
  -3.2450000000000000E-002     0.0000000000000000     
  -3.2399999999999998E-002     0.0000000000000000     
  -3.2350000000000004E-002     0.0000000000000000     
  -3.2300000000000002E-002     0.0000000000000000     
  -3.2250000000000001E-002     0.0000000000000000     
  -3.2199999999999999E-002     0.0000000000000000     
  -3.2149999999999998E-002     0.0000000000000000     
  -3.2100000000000004E-002     0.0000000000000000     
  -3.2050000000000002E-002     0.0000000000000000     
  -3.2000000000000001E-002     0.0000000000000000     
  -3.1949999999999999E-002     0.0000000000000000     
  -3.1899999999999998E-002     0.0000000000000000     
  -3.1850000000000003E-002     0.0000000000000000     
  -3.1800000000000002E-002     0.0000000000000000     
  -3.1750000000000000E-002     0.0000000000000000     
  -3.1699999999999999E-002     0.0000000000000000     
  -3.1649999999999998E-002     0.0000000000000000     
  -3.1600000000000003E-002     0.0000000000000000     
  -3.1550000000000002E-002     0.0000000000000000     
  -3.1500000000000000E-002     9.6710012758968179E-054
  -3.1449999999999999E-002    -4.2821911408609439E-054
  -3.1399999999999997E-002    -1.8345659360682904E-053
  -3.1350000000000003E-002    -1.0588912423167387E-052
  -3.1300000000000001E-002    -9.1055054501298896E-039
  -3.1250000000000000E-002    -2.3384606691598271E-038
  -3.1199999999999999E-002    -2.5885424005011139E-038
  -3.1150000000000001E-002     5.0434546028808431E-052
  -3.1100000000000003E-002     3.8877192818754665E-038
  -3.1050000000000001E-002     8.6499415667096255E-038
  -3.1000000000000000E-002     9.9981838599913294E-038
  -3.0949999999999998E-002     5.9769498999566190E-038
  -3.0900000000000000E-002    -2.8870743364513591E-038
  -3.0850000000000002E-002    -1.3126218216564209E-037
  -3.0800000000000001E-002    -1.8923276742455717E-037
  -3.0750000000000000E-002    -1.5809338790370771E-037
  -3.0699999999999998E-002    -1.8139706209632155E-038
  -3.0650000000000000E-002     1.9488928374992885E-037
  -3.0600000000000002E-002     3.6681735381065331E-037
  -3.0550000000000001E-002     3.5669299533136907E-037
  -3.0499999999999999E-002     3.2797826520933692E-038
  -3.0449999999999998E-002    -6.0390575125411162E-037
  -3.0400000000000000E-002    -1.3125561283212560E-036
  -3.0350000000000002E-002    -1.6681560781474445E-036
  -3.0300000000000001E-002    -1.1640385992880242E-036
  -3.0249999999999999E-002     4.9915361105139474E-037
  -3.0200000000000001E-002     3.0941790822707285E-036
  -3.0150000000000000E-002     5.7009779951718449E-036
  -3.0100000000000002E-002     6.8253828593613418E-036
  -3.0050000000000000E-002     4.9677399350896579E-036
  -2.9999999999999999E-002    -5.3709295412955845E-037
  -2.9950000000000001E-002    -8.7048391697447562E-036
  -2.9899999999999999E-002    -1.6616777726691611E-035
  -2.9850000000000002E-002    -2.0117130280961853E-035
  -2.9800000000000000E-002    -1.5565119062255980E-035
  -2.9749999999999999E-002    -2.1436033803913442E-036
  -2.9700000000000001E-002     1.6379669557205997E-035
  -2.9650000000000003E-002     3.1792562095595977E-035
  -2.9600000000000001E-002     3.4391079961953393E-035
  -2.9550000000000000E-002     1.8411416275234887E-035
  -2.9499999999999998E-002    -1.2132819352286302E-035
  -2.9450000000000000E-002    -4.0713436175882845E-035
  -2.9400000000000003E-002    -4.2238020688394182E-035
  -2.9350000000000001E-002     4.8152119299598857E-036
  -2.9300000000000000E-002     1.0080787888386599E-034
  -2.9249999999999998E-002     2.0966305107581348E-034
  -2.9200000000000000E-002     2.5695851995207416E-034
  -2.9150000000000002E-002     1.5107533717054398E-034
  -2.9100000000000001E-002    -1.7079400457681820E-034
  -2.9049999999999999E-002    -6.8345239260703509E-034
  -2.8999999999999998E-002    -1.2275124541428862E-033
  -2.8950000000000000E-002    -1.5103935235656867E-033
  -2.8900000000000002E-002    -1.1821723177233620E-033
  -2.8850000000000001E-002     1.1174895809250260E-035
  -2.8799999999999999E-002     2.0345970813686365E-033
  -2.8749999999999998E-002     4.4095466770708572E-033
  -2.8700000000000000E-002     6.1984660932887929E-033
  -2.8650000000000002E-002     6.2091781045209550E-033
  -2.8600000000000000E-002     3.4305421001777308E-033
  -2.8549999999999999E-002    -2.3979706187230904E-033
  -2.8500000000000001E-002    -1.0291575675794454E-032
  -2.8450000000000000E-002    -1.7869345114356810E-032
  -2.8400000000000002E-002    -2.1772958959272131E-032
  -2.8350000000000000E-002    -1.8710631134650227E-032
  -2.8299999999999999E-002    -6.9134049249529524E-033
  -2.8250000000000001E-002     1.2487027153814341E-032
  -2.8200000000000003E-002     3.4808625226156407E-032
  -2.8150000000000001E-002     5.2464729231017697E-032
  -2.8100000000000000E-002     5.7094453923367016E-032
  -2.8049999999999999E-002     4.2760504608477819E-032
  -2.8000000000000001E-002     9.1638716259043425E-033
  -2.7950000000000003E-002    -3.6547333314272061E-032
  -2.7900000000000001E-002    -8.0637618391798638E-032
  -2.7850000000000000E-002    -1.0676956448565589E-031
  -2.7799999999999998E-002    -1.0227316612695788E-031
  -2.7750000000000000E-002    -6.4508746031491464E-032
  -2.7700000000000002E-002    -4.3611226731528127E-033
  -2.7650000000000001E-002     5.5718771532725661E-032
  -2.7600000000000000E-002     8.9946816624788790E-032
  -2.7549999999999998E-002     8.1741126051903641E-032
  -2.7500000000000000E-002     3.5724874880746818E-032
  -2.7450000000000002E-002    -1.7211144336315916E-032
  -2.7400000000000001E-002    -2.7238853919475190E-032
  -2.7349999999999999E-002     5.3222559468955649E-032
  -2.7299999999999998E-002     2.3930283249222355E-031
  -2.7250000000000000E-002     4.8582586534502305E-031
  -2.7200000000000002E-002     6.7698431170230523E-031
  -2.7150000000000001E-002     6.4700356318108269E-031
  -2.7099999999999999E-002     2.3662925387252868E-031
  -2.7049999999999998E-002    -6.2408160152215352E-031
  -2.7000000000000000E-002    -1.8321643756882940E-030
  -2.6950000000000002E-002    -3.0641821679938680E-030
  -2.6900000000000000E-002    -3.8016702465468561E-030
  -2.6849999999999999E-002    -3.4513426846342727E-030
  -2.6800000000000001E-002    -1.5518536031933777E-030
  -2.6749999999999999E-002     1.9790708457380693E-030
  -2.6700000000000002E-002     6.6371731302598386E-030
  -2.6650000000000000E-002     1.1259280606058555E-029
  -2.6599999999999999E-002     1.4166276077987983E-029
  -2.6550000000000001E-002     1.3551677000717776E-029
  -2.6500000000000003E-002     8.0682895501923623E-030
  -2.6450000000000001E-002    -2.5212882459405453E-030
  -2.6400000000000000E-002    -1.6832368307663931E-029
  -2.6349999999999998E-002    -3.1706205338110304E-029
  -2.6300000000000000E-002    -4.2591868454097927E-029
  -2.6250000000000002E-002    -4.4514555430408909E-029
  -2.6200000000000001E-002    -3.3508538660637394E-029
  -2.6150000000000000E-002    -8.2066155312334243E-030
  -2.6099999999999998E-002     2.8864649050444346E-029
  -2.6050000000000000E-002     7.0775945766966087E-029
  -2.6000000000000002E-002     1.0686490262214537E-028
  -2.5950000000000001E-002     1.2472847957210760E-028
  -2.5899999999999999E-002     1.1332167262218781E-028
  -2.5849999999999998E-002     6.6554486872851591E-029
  -2.5800000000000000E-002    -1.3532940265333487E-029
  -2.5750000000000002E-002    -1.1505401193007244E-028
  -2.5700000000000001E-002    -2.1689071546069932E-028
  -2.5649999999999999E-002    -2.9204616451773539E-028
  -2.5599999999999998E-002    -3.1344168688744379E-028
  -2.5550000000000000E-002    -2.6109064939271776E-028
  -2.5500000000000002E-002    -1.2895518867372628E-028
  -2.5450000000000000E-002     7.0457670645237334E-029
  -2.5399999999999999E-002     3.0542001417890480E-028
  -2.5349999999999998E-002     5.2905037336945226E-028
  -2.5300000000000000E-002     6.8772769504429005E-028
  -2.5250000000000002E-002     7.3218590243412884E-028
  -2.5200000000000000E-002     6.2873117631920233E-028
  -2.5149999999999999E-002     3.6786322139895934E-028
  -2.5100000000000001E-002    -3.1682701107127569E-029
  -2.5049999999999999E-002    -5.2401509611760309E-028
  -2.5000000000000001E-002    -1.0411942434528774E-027
  -2.4950000000000000E-002    -1.5001663269686219E-027
  -2.4899999999999999E-002    -1.8093870260334471E-027
  -2.4850000000000001E-002    -1.8744915744206904E-027
  -2.4800000000000003E-002    -1.6048480175864922E-027
  -2.4750000000000001E-002    -9.2517964538969673E-028
  -2.4700000000000000E-002     2.0294113299157259E-028
  -2.4649999999999998E-002     1.7474783656849214E-027
  -2.4600000000000000E-002     3.5641573069659976E-027
  -2.4550000000000002E-002     5.3592478645726728E-027
  -2.4500000000000001E-002     6.6779925681322043E-027
  -2.4450000000000000E-002     6.9433543195492974E-027
  -2.4399999999999998E-002     5.5642603621680952E-027
  -2.4350000000000000E-002     2.1154165609489183E-027
  -2.4299999999999999E-002    -3.4367365965082174E-027
  -2.4250000000000001E-002    -1.0519043116989684E-026
  -2.4199999999999999E-002    -1.7829994614442192E-026
  -2.4150000000000001E-002    -2.3399900248080098E-026
  -2.4100000000000000E-002    -2.4897485446020132E-026
  -2.4049999999999998E-002    -2.0190043146326209E-026
  -2.4000000000000000E-002    -8.0802181788993673E-027
  -2.3949999999999999E-002     1.0948355103433376E-026
  -2.3900000000000001E-002     3.4212986110101137E-026
  -2.3850000000000000E-002     5.6792371575238037E-026
  -2.3800000000000002E-002     7.2153236370581769E-026
  -2.3750000000000000E-002     7.3484440598835405E-026
  -2.3699999999999999E-002     5.5571959815040703E-026
  -2.3650000000000001E-002     1.6826576326513164E-026
  -2.3599999999999999E-002    -3.9091846607516969E-026
  -2.3550000000000001E-002    -1.0265524145216897E-025
  -2.3500000000000000E-002    -1.5933008160955202E-025
  -2.3449999999999999E-002    -1.9209567180890229E-025
  -2.3400000000000001E-002    -1.8535713455576956E-025
  -2.3349999999999999E-002    -1.2952480710865104E-025
  -2.3300000000000001E-002    -2.5162754738640451E-026
  -2.3250000000000000E-002     1.1453073040733608E-025
  -2.3199999999999998E-002     2.6396944437221351E-025
  -2.3150000000000000E-002     3.8869978850138597E-025
  -2.3099999999999999E-002     4.5198038680815974E-025
  -2.3050000000000001E-002     4.2335959937094819E-025
  -2.3000000000000000E-002     2.8747700887714856E-025
  -2.2950000000000002E-002     5.0950842226516027E-026
  -2.2900000000000000E-002    -2.5465796303549293E-025
  -2.2849999999999999E-002    -5.7516342467900101E-025
  -2.2800000000000001E-002    -8.4164771021677057E-025
  -2.2749999999999999E-002    -9.8297676010748770E-025
  -2.2700000000000001E-002    -9.4084094520913041E-025
  -2.2650000000000000E-002    -6.8446532524789398E-025
  -2.2599999999999999E-002    -2.2194503660416863E-025
  -2.2550000000000001E-002     3.9442072013635951E-025
  -2.2499999999999999E-002     1.0704892075753745E-024
  -2.2450000000000001E-002     1.6808042379627320E-024
  -2.2400000000000000E-002     2.0864925690895105E-024
  -2.2349999999999998E-002     2.1586030184037746E-024
  -2.2300000000000000E-002     1.8040737215695402E-024
  -2.2249999999999999E-002     9.9085975918490553E-025
  -2.2200000000000001E-002    -2.3174869889500875E-025
  -2.2150000000000000E-002    -1.7219200332280390E-024
  -2.2100000000000002E-002    -3.2475743313695328E-024
  -2.2050000000000000E-002    -4.5060369462767812E-024
  -2.1999999999999999E-002    -5.1633917226849156E-024
  -2.1950000000000001E-002    -4.9129406266709630E-024
  -2.1899999999999999E-002    -3.5477338144988050E-024
  -2.1850000000000001E-002    -1.0366096647246131E-024
  -2.1800000000000000E-002     2.4122930457433491E-024
  -2.1749999999999999E-002     6.3203136946706974E-024
  -2.1700000000000001E-002     9.9590133792865350E-024
  -2.1649999999999999E-002     1.2436981326460224E-023
  -2.1600000000000001E-002     1.2855018385108228E-023
  -2.1550000000000000E-002     1.0514873068846062E-023
  -2.1499999999999998E-002     5.1473531535047624E-024
  -2.1450000000000000E-002    -2.8914096597686592E-024
  -2.1399999999999999E-002    -1.2515612892955250E-023
  -2.1350000000000001E-002    -2.1952900045231735E-023
  -2.1299999999999999E-002    -2.8969524216244826E-023
  -2.1250000000000002E-002    -3.1275241350011218E-023
  -2.1200000000000000E-002    -2.7058326384887563E-023
  -2.1149999999999999E-002    -1.5553167049605892E-023
  -2.1100000000000001E-002     2.4929389675887205E-024
  -2.1049999999999999E-002     2.4597732785013417E-023
  -2.1000000000000001E-002     4.6686627985772465E-023
  -2.0950000000000000E-002     6.3658704580612803E-023
  -2.0899999999999998E-002     7.0342867182443230E-023
  -2.0850000000000000E-002     6.2705241193508404E-023
  -2.0799999999999999E-002     3.9073251115107141E-023
  -2.0750000000000001E-002     1.0830409846608475E-024
  -2.0700000000000000E-002    -4.5941617635926892E-023
  -2.0649999999999998E-002    -9.3396536710720064E-023
  -2.0600000000000000E-002    -1.3066422912570943E-022
  -2.0549999999999999E-002    -1.4712337292727197E-022
  -2.0500000000000001E-002    -1.3458163844680170E-022
  -2.0449999999999999E-002    -8.9648926919924516E-023
  -2.0400000000000001E-002    -1.5488450647208836E-023
  -2.0350000000000000E-002     7.7577925813617930E-023
  -2.0299999999999999E-002     1.7296516537610476E-022
  -2.0250000000000001E-002     2.5029581630019755E-022
  -2.0199999999999999E-002     2.8917540430327117E-022
  -2.0150000000000001E-002     2.7366183618537713E-022
  -2.0100000000000000E-002     1.9656173187230265E-022
  -2.0049999999999998E-002     6.2583265021344868E-023
  -2.0000000000000000E-002    -1.1053027648140359E-022
  -1.9949999999999999E-002    -2.9346202806959562E-022
  -1.9900000000000001E-002    -4.4948966761865328E-022
  -1.9850000000000000E-002    -5.4091518672836170E-022
  -1.9799999999999998E-002    -5.3677449914248095E-022
  -1.9750000000000000E-002    -4.2043411870120033E-022
  -1.9699999999999999E-002    -1.9550103712706417E-022
  -1.9650000000000001E-002     1.1142238858913799E-022
  -1.9599999999999999E-002     4.5219315905281568E-022
  -1.9550000000000001E-002     7.6317516929813511E-022
  -1.9500000000000000E-002     9.7542080796360821E-022
  -1.9449999999999999E-002     1.0276549362848272E-021
  -1.9400000000000001E-002     8.7997356082967489E-022
  -1.9349999999999999E-002     5.2569292242885806E-022
  -1.9300000000000001E-002    -1.2970157979500597E-024
  -1.9250000000000000E-002    -6.2591903459280811E-022
  -1.9199999999999998E-002    -1.2393878711900166E-021
  -1.9150000000000000E-002    -1.7148216211881016E-021
  -1.9099999999999999E-002    -1.9294502474340404E-021
  -1.9050000000000001E-002    -1.7902854049538932E-021
  -1.9000000000000000E-002    -1.2587927194893592E-021
  -1.8949999999999998E-002    -3.6937816246995072E-022
  -1.8900000000000000E-002     7.6334673033404065E-022
  -1.8849999999999999E-002     1.9523454782264152E-021
  -1.8800000000000001E-002     2.9625249263293861E-021
  -1.8749999999999999E-002     3.5501104135592337E-021
  -1.8700000000000001E-002     3.5119234323724348E-021
  -1.8650000000000000E-002     2.7362207332120754E-021
  -1.8599999999999998E-002     1.2445793516017987E-021
  -1.8550000000000001E-002    -7.8606604851999903E-022
  -1.8499999999999999E-002    -3.0301934648755901E-021
  -1.8450000000000001E-002    -5.0538532224427784E-021
  -1.8400000000000000E-002    -6.3864351536411567E-021
  -1.8349999999999998E-002    -6.6148700725617816E-021
  -1.8300000000000000E-002    -5.4841580798734556E-021
  -1.8249999999999999E-002    -2.9833343266313012E-021
  -1.8200000000000001E-002     6.0510866041635401E-022
  -1.8149999999999999E-002     4.7106098745857617E-021
  -1.8100000000000002E-002     8.5443976742112527E-021
  -1.8050000000000000E-002     1.1230896702537845E-020
  -1.7999999999999999E-002     1.1983310196196016E-020
  -1.7950000000000001E-002     1.0292661577456646E-020
  -1.7899999999999999E-002     6.0906309554457556E-021
  -1.7850000000000001E-002    -1.5510663645265806E-022
  -1.7800000000000000E-002    -7.4468740626617756E-021
  -1.7749999999999998E-002    -1.4381565851125030E-020
  -1.7700000000000000E-002    -1.9387512818841678E-020
  -1.7649999999999999E-002    -2.1040918687801180E-020
  -1.7600000000000001E-002    -1.8405436670547900E-020
  -1.7550000000000000E-002    -1.1323242049644928E-020
  -1.7499999999999998E-002    -5.8433669910363748E-022
  -1.7450000000000000E-002     1.2084604602802337E-020
  -1.7399999999999999E-002     2.4240305528646390E-020
  -1.7350000000000001E-002     3.3138501547456782E-020
  -1.7299999999999999E-002     3.6286093236366992E-020
  -1.7250000000000001E-002     3.2030634607973948E-020
  -1.7200000000000000E-002     2.0063395170805284E-020
  -1.7149999999999999E-002     1.7110868167736031E-021
  -1.7100000000000001E-002    -2.0082431696176875E-020
  -1.7049999999999999E-002    -4.1130996729727526E-020
  -1.7000000000000001E-002    -5.6713494402438461E-020
  -1.6950000000000000E-002    -6.2513396504831443E-020
  -1.6899999999999998E-002    -5.5623831044616086E-020
  -1.6850000000000000E-002    -3.5411001113463476E-020
  -1.6799999999999999E-002    -4.0268264987614122E-021
  -1.6750000000000001E-002     3.3595666209384858E-020
  -1.6700000000000000E-002     7.0346051920090157E-020
  -1.6649999999999998E-002     9.8105900576240260E-020
  -1.6600000000000000E-002     1.0932511402455818E-019
  -1.6549999999999999E-002     9.8735064100422436E-020
  -1.6500000000000001E-002     6.4857248049469885E-020
  -1.6449999999999999E-002     1.0955192523200763E-020
  -1.6400000000000001E-002    -5.4861347626433614E-020
  -1.6350000000000000E-002    -1.2054010563031909E-019
  -1.6299999999999999E-002    -1.7197304615619650E-019
  -1.6250000000000001E-002    -1.9563291895426205E-019
  -1.6199999999999999E-002    -1.8153246643433904E-019
  -1.6150000000000001E-002    -1.2594259169316303E-019
  -1.6100000000000000E-002    -3.3262632361532151E-020
  -1.6049999999999998E-002     8.3489453496999821E-020
  -1.6000000000000000E-002     2.0390326524065018E-019
  -1.5949999999999999E-002     3.0315721841703102E-019
  -1.5900000000000001E-002     3.5643826523381692E-019
  -1.5850000000000000E-002     3.4413256641155140E-019
  -1.5799999999999998E-002     2.5684570410980671E-019
  -1.5750000000000000E-002     9.9182858782526734E-020
  -1.5699999999999999E-002    -1.0871051666852604E-019
  -1.5650000000000001E-002    -3.3256028707642896E-019
  -1.5599999999999999E-002    -5.2855571251407575E-019
  -1.5550000000000001E-002    -6.5073411401126931E-019
  -1.5500000000000000E-002    -6.6012477059728006E-019
  -1.5449999999999998E-002    -5.3407385473423321E-019
  -1.5400000000000000E-002    -2.7385552449424565E-019
  -1.5349999999999999E-002     9.1305415899148686E-020
  -1.5300000000000001E-002     5.0526268290126971E-019
  -1.5250000000000000E-002     8.9170701583905268E-019
  -1.5199999999999998E-002     1.1662675656126930E-018
  -1.5150000000000000E-002     1.2524008859838563E-018
  -1.5099999999999999E-002     1.0984603642170363E-018
  -1.5050000000000001E-002     6.9264756780889018E-019
  -1.4999999999999999E-002     7.2412455157987944E-020
  -1.4949999999999998E-002    -6.7457508441381677E-019
  -1.4900000000000000E-002    -1.4195226865841504E-018
  -1.4849999999999999E-002    -2.0115373899560406E-018
  -1.4800000000000001E-002    -2.3043771419055261E-018
  -1.4749999999999999E-002    -2.1867933882293019E-018
  -1.4700000000000001E-002    -1.6109146301349037E-018
  -1.4650000000000000E-002    -6.1260355427080103E-019
  -1.4599999999999998E-002     6.8164453805378103E-019
  -1.4550000000000000E-002     2.0648521236877655E-018
  -1.4499999999999999E-002     3.2774946836966103E-018
  -1.4450000000000001E-002     4.0505023109726296E-018
  -1.4400000000000000E-002     4.1571507680213574E-018
  -1.4349999999999998E-002     3.4649214375314252E-018
  -1.4300000000000000E-002     1.9770129227615604E-018
  -1.4249999999999999E-002    -1.4635918057861351E-019
  -1.4200000000000001E-002    -2.5942589816089446E-018
  -1.4149999999999999E-002    -4.9419827054154790E-018
  -1.4099999999999998E-002    -6.7161488982821425E-018
  -1.4050000000000000E-002    -7.4794844839192399E-018
  -1.3999999999999999E-002    -6.9217209184383718E-018
  -1.3950000000000001E-002    -4.9397703611069408E-018
  -1.3899999999999999E-002    -1.6899183209899616E-018
  -1.3850000000000001E-002     2.4023476797876348E-018
  -1.3800000000000000E-002     6.6831537896747445E-018
  -1.3749999999999998E-002     1.0361375230933634E-017
  -1.3700000000000000E-002     1.2639968531971449E-017
  -1.3649999999999999E-002     1.2868122169173384E-017
  -1.3600000000000001E-002     1.0687990934336134E-017
  -1.3550000000000000E-002     6.1470141857240311E-018
  -1.3499999999999998E-002    -2.5077951542232145E-019
  -1.3450000000000000E-002    -7.5731914094171046E-018
  -1.3399999999999999E-002    -1.4574133248132969E-017
  -1.3350000000000001E-002    -1.9884314787987893E-017
  -1.3299999999999999E-002    -2.2252969086950956E-017
  -1.3249999999999998E-002    -2.0801850872937288E-017
  -1.3200000000000000E-002    -1.5244965898476137E-017
  -1.3149999999999998E-002    -6.0274471300237493E-018
  -1.3100000000000001E-002     5.6541691479827893E-018
  -1.3049999999999999E-002     1.7970688348782171E-017
  -1.3000000000000001E-002     2.8714939085418653E-017
  -1.2950000000000000E-002     3.5663071427518034E-017
  -1.2899999999999998E-002     3.6988939184600807E-017
  -1.2850000000000000E-002     3.1660743436206029E-017
  -1.2799999999999999E-002     1.9742770761311616E-017