  -4.0000000000000001E-002     0.0000000000000000     
  -3.9949999999999999E-002     0.0000000000000000     
  -3.9899999999999998E-002     0.0000000000000000     
  -3.9850000000000003E-002     0.0000000000000000     
  -3.9800000000000002E-002     0.0000000000000000     
  -3.9750000000000001E-002     0.0000000000000000     
  -3.9699999999999999E-002     0.0000000000000000     
  -3.9649999999999998E-002     0.0000000000000000     
  -3.9600000000000003E-002     0.0000000000000000     
  -3.9550000000000002E-002     0.0000000000000000     
  -3.9500000000000000E-002     0.0000000000000000     
  -3.9449999999999999E-002     0.0000000000000000     
  -3.9399999999999998E-002     0.0000000000000000     
  -3.9350000000000003E-002     0.0000000000000000     
  -3.9300000000000002E-002     0.0000000000000000     
  -3.9250000000000000E-002     0.0000000000000000     
  -3.9199999999999999E-002     0.0000000000000000     
  -3.9150000000000004E-002     0.0000000000000000     
  -3.9100000000000003E-002     0.0000000000000000     
  -3.9050000000000001E-002     0.0000000000000000     
  -3.9000000000000000E-002     0.0000000000000000     
  -3.8949999999999999E-002     0.0000000000000000     
  -3.8900000000000004E-002     0.0000000000000000     
  -3.8850000000000003E-002     0.0000000000000000     
  -3.8800000000000001E-002     0.0000000000000000     
  -3.8750000000000000E-002     0.0000000000000000     
  -3.8699999999999998E-002     0.0000000000000000     
  -3.8650000000000004E-002     0.0000000000000000     
  -3.8600000000000002E-002     0.0000000000000000     
  -3.8550000000000001E-002     0.0000000000000000     
  -3.8500000000000000E-002     0.0000000000000000     
  -3.8449999999999998E-002     0.0000000000000000     
  -3.8400000000000004E-002     0.0000000000000000     
  -3.8350000000000002E-002     0.0000000000000000     
  -3.8300000000000001E-002     0.0000000000000000     
  -3.8249999999999999E-002     0.0000000000000000     
  -3.8199999999999998E-002     0.0000000000000000     
  -3.8150000000000003E-002     0.0000000000000000     
  -3.8100000000000002E-002     0.0000000000000000     
  -3.8050000000000000E-002     0.0000000000000000     
  -3.7999999999999999E-002     0.0000000000000000     
  -3.7949999999999998E-002     0.0000000000000000     
  -3.7900000000000003E-002     0.0000000000000000     
  -3.7850000000000002E-002     0.0000000000000000     
  -3.7800000000000000E-002     0.0000000000000000     
  -3.7749999999999999E-002     0.0000000000000000     
  -3.7699999999999997E-002     0.0000000000000000     
  -3.7650000000000003E-002     0.0000000000000000     
  -3.7600000000000001E-002     0.0000000000000000     
  -3.7550000000000000E-002     0.0000000000000000     
  -3.7499999999999999E-002     0.0000000000000000     
  -3.7449999999999997E-002     0.0000000000000000     
  -3.7400000000000003E-002     0.0000000000000000     
  -3.7350000000000001E-002     0.0000000000000000     
  -3.7300000000000000E-002     0.0000000000000000     
  -3.7249999999999998E-002     0.0000000000000000     
  -3.7200000000000004E-002     0.0000000000000000     
  -3.7150000000000002E-002     0.0000000000000000     
  -3.7100000000000001E-002     0.0000000000000000     
  -3.7050000000000000E-002     4.3943712834217859E-041
  -3.6999999999999998E-002     1.2348615849361017E-040
  -3.6950000000000004E-002     1.9515562505025947E-040
  -3.6900000000000002E-002     0.0000000000000000     
  -3.6850000000000001E-002    -6.1613358212417427E-040
  -3.6799999999999999E-002    -1.7529317725176935E-039
  -3.6749999999999998E-002    -3.0650682258649207E-039
  -3.6700000000000003E-002    -2.8339631779889049E-039
  -3.6650000000000002E-002     1.1396869062067207E-039
  -3.6600000000000001E-002    -8.4501586877493906E-039
  -3.6549999999999999E-002    -3.0212382169685961E-038
  -3.6499999999999998E-002    -5.6906145789485217E-038
  -3.6450000000000003E-002    -2.3878938924900188E-038
  -3.6400000000000002E-002     1.0539311052191296E-037
  -3.6350000000000000E-002     3.5480430943652843E-037
  -3.6299999999999999E-002     6.6873685115992013E-037
  -3.6249999999999998E-002     8.6730126517479664E-037
  -3.6200000000000003E-002     6.4657051147556241E-037
  -3.6150000000000002E-002    -3.1883807581436719E-037
  -3.6100000000000000E-002    -2.1382747060872149E-036
  -3.6049999999999999E-002    -4.3850186664533360E-036
  -3.6000000000000004E-002    -5.8861425885342549E-036
  -3.5950000000000003E-002    -4.9424227950036801E-036
  -3.5900000000000001E-002    -2.8140542994024623E-037
  -3.5850000000000000E-002     7.3084044427176142E-036
  -3.5799999999999998E-002     1.3461526589219461E-035
  -3.5750000000000004E-002     1.0556823645151938E-035
  -3.5700000000000003E-002    -8.0092684084701645E-036
  -3.5650000000000001E-002    -3.8692447535092587E-035
  -3.5600000000000000E-002    -5.6601411156978546E-035
  -3.5549999999999998E-002    -1.0833628457677584E-035
  -3.5500000000000004E-002     1.5992305788126299E-034
  -3.5450000000000002E-002     4.7897872912609816E-034
  -3.5400000000000001E-002     8.5208077254749800E-034
  -3.5349999999999999E-002     9.8868430834374425E-034
  -3.5299999999999998E-002     3.9513704582686477E-034
  -3.5250000000000004E-002    -1.4644848892341866E-033
  -3.5200000000000002E-002    -4.7710201794461894E-033
  -3.5150000000000001E-002    -8.7611573305746297E-033
  -3.5099999999999999E-002    -1.1194819472103785E-032
  -3.5049999999999998E-002    -8.3548302354857303E-033
  -3.5000000000000003E-002     3.8446908885588478E-033
  -3.4950000000000002E-002     2.7296344880019716E-032
  -3.4900000000000000E-002     5.8058030988526957E-032
  -3.4849999999999999E-002     8.3152543906493962E-032
  -3.4799999999999998E-002     8.0472911945467068E-032
  -3.4750000000000003E-002     2.4778647552434856E-032
  -3.4700000000000002E-002    -9.8702807583790042E-032
  -3.4650000000000000E-002    -2.7536651096318889E-031
  -3.4599999999999999E-002    -4.4484747411427144E-031
  -3.4549999999999997E-002    -4.9994083869112482E-031
  -3.4500000000000003E-002    -3.1412504117471797E-031
  -3.4450000000000001E-002     1.9681412245610396E-031
  -3.4400000000000000E-002     9.9107358909715673E-031
  -3.4349999999999999E-002     1.8302953116756961E-030
  -3.4299999999999997E-002     2.2756175773053878E-030
  -3.4250000000000003E-002     1.8013169622721176E-030
  -3.4200000000000001E-002     4.0651037374835004E-032
  -3.4150000000000000E-002    -2.8928616812194738E-030
  -3.4099999999999998E-002    -6.1510177655897069E-030
  -3.4049999999999997E-002    -8.1610137752129892E-030
  -3.4000000000000002E-002    -7.0676254663257637E-030
  -3.3950000000000001E-002    -1.6214436053370713E-030
  -3.3900000000000000E-002     7.7350269224993382E-030
  -3.3849999999999998E-002     1.8108921633992889E-029
  -3.3799999999999997E-002     2.4381219129122743E-029
  -3.3750000000000002E-002     2.0876012162518561E-029
  -3.3700000000000001E-002     4.3411086023384058E-030
  -3.3649999999999999E-002    -2.2773652908465390E-029
  -3.3599999999999998E-002    -5.0545399125745268E-029
  -3.3550000000000003E-002    -6.3278173505692334E-029
  -3.3500000000000002E-002    -4.5680906463238557E-029
  -3.3450000000000001E-002     7.6205091380125562E-030
  -3.3399999999999999E-002     8.3112619426067083E-029
  -3.3349999999999998E-002     1.4581194644603754E-028
  -3.3300000000000003E-002     1.4846130212219503E-028
  -3.3250000000000002E-002     5.3854522923478409E-029
  -3.3200000000000000E-002    -1.3562387371738952E-028
  -3.3149999999999999E-002    -3.5510324169775611E-028
  -3.3099999999999997E-002    -4.7903371624330155E-028
  -3.3050000000000003E-002    -3.6149672139579537E-028
  -3.3000000000000002E-002     8.6214369861389045E-029
  -3.2950000000000000E-002     8.0498406653457074E-028
  -3.2899999999999999E-002     1.5303670699504972E-027
  -3.2850000000000004E-002     1.8215962990106438E-027
  -3.2800000000000003E-002     1.2108527175876711E-027
  -3.2750000000000001E-002    -5.4350211797454667E-028
  -3.2700000000000000E-002    -3.1842243845182154E-027
  -3.2649999999999998E-002    -5.8048483596140724E-027
  -3.2600000000000004E-002    -6.9720278305277867E-027
  -3.2550000000000003E-002    -5.2005395096536229E-027
  -3.2500000000000001E-002     2.8948989390556338E-028
  -3.2450000000000000E-002     8.7915189419988626E-027
  -3.2399999999999998E-002     1.7707665154473523E-026
  -3.2350000000000004E-002     2.2916142920424066E-026
  -3.2300000000000002E-002     2.0091214291051664E-026
  -3.2250000000000001E-002     6.7436709647974878E-027
  -3.2199999999999999E-002    -1.5729308738953827E-026
  -3.2149999999999998E-002    -4.1019200309814400E-026
  -3.2100000000000004E-002    -5.8868388400844495E-026
  -3.2050000000000002E-002    -5.8379680049485155E-026
  -3.2000000000000001E-002    -3.2987400497978288E-026
  -3.1949999999999999E-002     1.4728155626645933E-026
  -3.1899999999999998E-002     7.0867116094491741E-026
  -3.1850000000000003E-002     1.1282113699536801E-025
  -3.1800000000000002E-002     1.1722807715170927E-025
  -3.1750000000000000E-002     7.1312908708767857E-026
  -3.1699999999999999E-002    -1.6865187760261374E-026
  -3.1649999999999998E-002    -1.1496697112203096E-025
  -3.1600000000000003E-002    -1.7421106039013436E-025
  -3.1550000000000002E-002    -1.4894930657836567E-025
  -3.1500000000000000E-002    -2.2546980685682504E-026
  -3.1449999999999999E-002     1.7133411190852080E-025
  -3.1399999999999997E-002     3.4504881128923497E-025
  -3.1350000000000003E-002     3.8020579929241859E-025
  -3.1300000000000001E-002     1.7729198015068470E-025
  -3.1250000000000000E-002    -2.8238833255697069E-025
  -3.1199999999999999E-002    -8.8844207653719050E-025
  -3.1150000000000001E-002    -1.3965538746915340E-024
  -3.1100000000000003E-002    -1.4876008709427174E-024
  -3.1050000000000001E-002    -8.8852336319780426E-025
  -3.1000000000000000E-002     4.7744888251491040E-025
  -3.0949999999999998E-002     2.3697018126188052E-024
  -3.0900000000000000E-002     4.2050024609738321E-024
  -3.0850000000000002E-002     5.1752286643917940E-024
  -3.0800000000000001E-002     4.5073185765515879E-024
  -3.0750000000000000E-002     1.8011634532219635E-024
  -3.0699999999999998E-002    -2.6742022449743742E-024
  -3.0650000000000000E-002    -7.8655119206246866E-024
  -3.0600000000000002E-002    -1.2105072726577915E-023
  -3.0550000000000001E-002    -1.3577786333610627E-023
  -3.0499999999999999E-002    -1.0974899024122446E-023
  -3.0449999999999998E-002    -4.1153394115020771E-024
  -3.0400000000000000E-002     5.7269464106099904E-024
  -3.0350000000000002E-002     1.5991349052599560E-023
  -3.0300000000000001E-002     2.3533753547809096E-023
  -3.0249999999999999E-002     2.5684500222716477E-023
  -3.0200000000000001E-002     2.1289123090768749E-023
  -3.0150000000000000E-002     1.1287854404825461E-023
  -3.0100000000000002E-002    -1.4992105546198384E-024
  -3.0050000000000000E-002    -1.3425335246815048E-023
  -2.9999999999999999E-002    -2.1573249612102934E-023
  -2.9950000000000001E-002    -2.5161316349537642E-023
  -2.9899999999999999E-002    -2.6057162010948264E-023
  -2.9850000000000002E-002    -2.7899116976374068E-023
  -2.9800000000000000E-002    -3.3881650767791125E-023
  -2.9749999999999999E-002    -4.3958658841503424E-023
  -2.9700000000000001E-002    -5.2772273327735560E-023
  -2.9650000000000003E-002    -4.9720334521832235E-023
  -2.9600000000000001E-002    -2.2043483297435355E-023
  -2.9550000000000000E-002     3.9315137219543037E-023
  -2.9499999999999998E-002     1.3272660401076839E-022
  -2.9450000000000000E-002     2.4055636571762045E-022
  -2.9400000000000003E-002     3.2858760048478290E-022
  -2.9350000000000001E-002     3.5232855268748513E-022
  -2.9300000000000000E-002     2.7019994875396293E-022
  -2.9249999999999998E-002     6.0785960391689480E-023
  -2.9200000000000000E-002    -2.6119074936340171E-022
  -2.9150000000000002E-002    -6.3665033181133228E-022
  -2.9100000000000001E-002    -9.6712032262599759E-022
  -2.9049999999999999E-002    -1.1349188190356091E-021
  -2.8999999999999998E-002    -1.0356037929755421E-021
  -2.8950000000000000E-002    -6.1467134883467138E-022
  -2.8900000000000002E-002     1.0277597747579846E-022
  -2.8850000000000001E-002     1.0005721243949587E-021
  -2.8799999999999999E-002     1.8853736472957442E-021
  -2.8749999999999998E-002     2.5258229622986333E-021
  -2.8700000000000000E-002     2.7086914821120662E-021
  -2.8650000000000002E-002     2.2972593638025798E-021
  -2.8600000000000000E-002     1.2751023452700426E-021
  -2.8549999999999999E-002    -2.3807161208758768E-022
  -2.8500000000000001E-002    -2.0035920350750530E-021
  -2.8450000000000000E-002    -3.7086974957193551E-021
  -2.8400000000000002E-002    -5.0252357379325446E-021
  -2.8350000000000000E-002    -5.6650963351394664E-021
  -2.8299999999999999E-002    -5.4190548486168288E-021
  -2.8250000000000001E-002    -4.1752628768186649E-021
  -2.8200000000000003E-002    -1.9248862471565995E-021
  -2.8150000000000001E-002     1.2302318650024302E-021
  -2.8100000000000000E-002     5.0543056053955140E-021
  -2.8049999999999999E-002     9.1368223534665256E-021
  -2.8000000000000001E-002     1.2851188092738842E-020
  -2.7950000000000003E-002     1.5348186618116141E-020
  -2.7900000000000001E-002     1.5627582296227689E-020
  -2.7850000000000000E-002     1.2720211531800252E-020
  -2.7799999999999998E-002     5.9802575151648359E-021
  -2.7750000000000000E-002    -4.5610554865246170E-021
  -2.7700000000000002E-002    -1.7878724022178051E-020
  -2.7650000000000001E-002    -3.1803532944509709E-020
  -2.7600000000000000E-002    -4.3160869651214817E-020
  -2.7549999999999998E-002    -4.8268275294651278E-020
  -2.7500000000000000E-002    -4.3765471933571410E-020
  -2.7450000000000002E-002    -2.7634317173279242E-020
  -2.7400000000000001E-002    -1.6354978330397050E-022
  -2.7349999999999999E-002     3.5438132962688243E-020
  -2.7299999999999998E-002     7.3048542786678422E-020
  -2.7250000000000000E-002     1.0440958886302806E-019
  -2.7200000000000002E-002     1.2064240426412415E-019
  -2.7150000000000001E-002     1.1425660405870544E-019
  -2.7099999999999999E-002     8.1234089459063704E-020
  -2.7049999999999998E-002     2.2680577973649902E-020
  -2.7000000000000000E-002    -5.4423868758679752E-020
  -2.6950000000000002E-002    -1.3768090355930634E-019
  -2.6900000000000000E-002    -2.1098715808927348E-019
  -2.6849999999999999E-002    -2.5727300979630194E-019
  -2.6800000000000001E-002    -2.6179593480280655E-019
  -2.6749999999999999E-002    -2.1538260008420171E-019
  -2.6700000000000002E-002    -1.1700752571035660E-019
  -2.6650000000000000E-002     2.4787934452052142E-020
  -2.6599999999999999E-002     1.9194195302889409E-019
  -2.6550000000000001E-002     3.5847590742714978E-019
  -2.6500000000000003E-002     4.9355866683915055E-019
  -2.6450000000000001E-002     5.6578783117915694E-019
  -2.6400000000000000E-002     5.4832310769450427E-019
  -2.6349999999999998E-002     4.2437597526769202E-019
  -2.6300000000000000E-002     1.9238860736611773E-019
  -2.6250000000000002E-002    -1.2996960034596377E-019
  -2.6200000000000001E-002    -5.0403916114792833E-019
  -2.6150000000000000E-002    -8.7173343721833997E-019
  -2.6099999999999998E-002    -1.1612963476987788E-018
  -2.6050000000000000E-002    -1.2975360994276302E-018
  -2.6000000000000002E-002    -1.2158692535374393E-018
  -2.5950000000000001E-002    -8.7833080982878530E-019
  -2.5899999999999999E-002    -2.8856881619544194E-019
  -2.5849999999999998E-002     4.9789721722991667E-019
  -2.5800000000000000E-002     1.3718679763214974E-018
  -2.5750000000000002E-002     2.1798393559006232E-018
  -2.5700000000000001E-002     2.7453406872397098E-018
  -2.5649999999999999E-002     2.9003677774754929E-018
  -2.5599999999999998E-002     2.5222384070664635E-018
  -2.5550000000000000E-002     1.5689283269881771E-018
  -2.5500000000000002E-002     1.0487324701347948E-019
  -2.5450000000000000E-002    -1.6901890309960331E-018
  -2.5399999999999999E-002    -3.5343749866765092E-018
  -2.5349999999999998E-002    -5.0800004048498668E-018
  -2.5300000000000000E-002    -5.9696571878689334E-018
  -2.5250000000000002E-002    -5.9040313908464709E-018
  -2.5200000000000000E-002    -4.7100433890955544E-018
  -2.5149999999999999E-002    -2.3962953038580201E-018
  -2.5100000000000001E-002     8.1649001646311072E-019
  -2.5049999999999999E-002     4.4993703375366826E-018
  -2.5000000000000001E-002     8.0578577650818938E-018
  -2.4950000000000000E-002     1.0811648383384352E-017
  -2.4899999999999999E-002     1.2103205478467009E-017
  -2.4850000000000001E-002     1.1420936127209828E-017
  -2.4800000000000003E-002     8.5180822650086880E-018
  -2.4750000000000001E-002     3.5059712502127492E-018
  -2.4700000000000000E-002    -3.0993251249664076E-018
  -2.4649999999999998E-002    -1.0393999621624289E-017
  -2.4600000000000000E-002    -1.7176747560531811E-017
  -2.4550000000000002E-002    -2.2110842929382118E-017
  -2.4500000000000001E-002    -2.3943328272550429E-017
  -2.4450000000000000E-002    -2.1752593436841194E-017
  -2.4399999999999998E-002    -1.5183829838118924E-017
  -2.4350000000000000E-002    -4.6249412538463127E-018
  -2.4299999999999999E-002     8.7232887182584321E-018
  -2.4250000000000001E-002     2.2918132618686664E-017
  -2.4199999999999999E-002     3.5501517276602352E-017
  -2.4150000000000001E-002     4.3868461649250372E-017
  -2.4100000000000000E-002     4.5732130910515735E-017
  -2.4049999999999998E-002     3.9611971257767914E-017
  -2.4000000000000000E-002     2.5253194050206828E-017
  -2.3949999999999999E-002     3.8834977702585799E-018
  -2.3900000000000001E-002    -2.1770315480979103E-017
  -2.3850000000000000E-002    -4.7747868956622813E-017
  -2.3800000000000002E-002    -6.9395574786977023E-017
  -2.3750000000000000E-002    -8.2119621940345661E-017
  -2.3699999999999999E-002    -8.2239399102731318E-017
  -2.3650000000000001E-002    -6.7794853940453063E-017
  -2.3599999999999999E-002    -3.9151110642723266E-017
  -2.3550000000000001E-002     7.3761186978613864E-019
  -2.3500000000000000E-002     4.6496359813673402E-017
  -2.3449999999999999E-002     9.0953246864951254E-017
  -2.3400000000000001E-002     1.2616269884221498E-016
  -2.3349999999999999E-002     1.4469482212447377E-016
  -2.3300000000000001E-002     1.4099688079799601E-016
  -2.3250000000000000E-002     1.1259908629839185E-016
  -2.3199999999999998E-002     6.0939593027755412E-017
  -2.3150000000000000E-002    -8.3763256076971055E-018
  -2.3099999999999999E-002    -8.5992991136394264E-017
  -2.3050000000000001E-002    -1.5990623704503190E-016
  -2.3000000000000000E-002    -2.1714727853210497E-016
  -2.2950000000000002E-002    -2.4583758575196628E-016
  -2.2900000000000000E-002    -2.3731797884039922E-016
  -2.2849999999999999E-002    -1.8800865863067849E-016
  -2.2800000000000001E-002    -1.0065943003669058E-016
  -2.2749999999999999E-002     1.5291223110485206E-017
  -2.2700000000000001E-002     1.4441779182114623E-016
  -2.2650000000000000E-002     2.6708679912762412E-016
  -2.2599999999999999E-002     3.6215578992223431E-016
  -2.2550000000000001E-002     4.1026453395425449E-016
  -2.2499999999999999E-002     3.9725419165137497E-016
  -2.2450000000000001E-002     3.1717130075317634E-016
  -2.2400000000000000E-002     1.7431372054021985E-016
  -2.2349999999999998E-002    -1.6137209504442222E-017
  -2.2300000000000000E-002    -2.2918294806586439E-016
  -2.2249999999999999E-002    -4.3281956198538036E-016
  -2.2200000000000001E-002    -5.9236691056075484E-016
  -2.2150000000000000E-002    -6.7581250471070279E-016
  -2.2100000000000002E-002    -6.5943555284272361E-016
  -2.2050000000000000E-002    -5.3282877605965422E-016
  -2.1999999999999999E-002    -3.0240914241121802E-016
  -2.1950000000000001E-002     7.3772669530498808E-018
  -2.1899999999999999E-002     3.5568799775367497E-016
  -2.1850000000000001E-002     6.8989334545997596E-016
  -2.1800000000000000E-002     9.5281825088668901E-016
  -2.1749999999999999E-002     1.0917694728655923E-015
  -2.1700000000000001E-002     1.0680559795877135E-015
  -2.1649999999999999E-002     8.6542160679836313E-016
  -2.1600000000000001E-002     4.9575108635705131E-016
  -2.1550000000000000E-002     6.5023693069935088E-019
  -2.1499999999999998E-002    -5.5196569656547244E-016
  -2.1450000000000000E-002    -1.0763515750268664E-015
  -2.1399999999999999E-002    -1.4816298469675844E-015
  -2.1350000000000001E-002    -1.6869505334518051E-015
  -2.1299999999999999E-002    -1.6366585538556183E-015
  -2.1250000000000002E-002    -1.3126992394764596E-015
  -2.1200000000000000E-002    -7.4167106967758346E-016
  -2.1149999999999999E-002     5.3435614723580143E-018
  -2.1100000000000001E-002     8.2087887536807988E-016
  -2.1049999999999999E-002     1.5763903159492416E-015
  -2.1000000000000001E-002     2.1426074444778317E-015
  -2.0950000000000000E-002     2.4116418191726458E-015
  -2.0899999999999998E-002     2.3169658128510453E-015
  -2.0850000000000000E-002     1.8475170725018923E-015
  -2.0799999999999999E-002     1.0530342813316754E-015
  -2.0750000000000001E-002     3.9212341566329055E-017
  -2.0700000000000000E-002    -1.0469372220143951E-015
  -2.0649999999999998E-002    -2.0393279535827809E-015
  -2.0600000000000000E-002    -2.7790198132757149E-015
  -2.0549999999999999E-002    -3.1400125743393426E-015
  -2.0500000000000001E-002    -3.0502290139469910E-015
  -2.0449999999999999E-002    -2.5041368612727228E-015
  -2.0400000000000001E-002    -1.5649112928016886E-015
  -2.0350000000000000E-002    -3.5584999683017313E-016
  -2.0299999999999999E-002     9.5745046035499897E-016
  -2.0250000000000001E-002     2.1911788063223846E-015
  -2.0199999999999999E-002     3.1697844994271316E-015
  -2.0150000000000001E-002     3.7507838164178259E-015
  -2.0100000000000000E-002     3.8443220892965204E-015
  -2.0049999999999998E-002     3.4249390827312366E-015
  -2.0000000000000000E-002     2.5343222139763742E-015
  -1.9949999999999999E-002     1.2752186536484688E-015
  -1.9900000000000001E-002    -2.0211309083135820E-016
  -1.9850000000000000E-002    -1.7186778017187084E-015
  -1.9799999999999998E-002    -3.0881005196407769E-015
  -1.9750000000000000E-002    -4.1379452139455235E-015
  -1.9699999999999999E-002    -4.7287651569560901E-015
  -1.9650000000000001E-002    -4.7692418404566186E-015
  -1.9599999999999999E-002    -4.2264310237225488E-015
  -1.9550000000000001E-002    -3.1306792055184196E-015
  -1.9500000000000000E-002    -1.5751576096584151E-015
  -1.9449999999999999E-002     2.8990043155887933E-016
  -1.9400000000000001E-002     2.2681480843365198E-015
  -1.9349999999999999E-002     4.1331628675161000E-015
  -1.9300000000000001E-002     5.6493303756302491E-015
  -1.9250000000000000E-002     6.5968758914368383E-015
  -1.9199999999999998E-002     6.7995448500647733E-015
  -1.9150000000000000E-002     6.1523462933931461E-015
  -1.9099999999999999E-002     4.6456368705176979E-015
  -1.9050000000000001E-002     2.3810132454447131E-015
  -1.9000000000000000E-002    -4.2559113392609887E-016
  -1.8949999999999998E-002    -3.4572428705305157E-015
  -1.8900000000000000E-002    -6.3272347805939310E-015
  -1.8849999999999999E-002    -8.6265072720180777E-015
  -1.8800000000000001E-002    -9.9819542389074155E-015
  -1.8749999999999999E-002    -1.0117044527476968E-014
  -1.8700000000000001E-002    -8.9041880258077648E-015
  -1.8650000000000000E-002    -6.3982791330593395E-015
  -1.8599999999999998E-002    -2.8432584368361079E-015
  -1.8550000000000001E-002     1.3519405924604780E-015
  -1.8499999999999999E-002     5.6657918309143164E-015
  -1.8450000000000001E-002     9.5367538927153558E-015
  -1.8400000000000000E-002     1.2443391506031138E-014
  -1.8349999999999998E-002     1.3977627970048105E-014
  -1.8300000000000000E-002     1.3898274457052485E-014
  -1.8249999999999999E-002     1.2156637607318554E-014
  -1.8200000000000001E-002     8.8925603574528204E-015
  -1.8149999999999999E-002     4.4060881578328280E-015
  -1.8100000000000002E-002    -8.8507937732911448E-016
  -1.8050000000000000E-002    -6.4904835217864077E-015
  -1.7999999999999999E-002    -1.1884500326272987E-014
  -1.7950000000000001E-002    -1.6532548236985288E-014
  -1.7899999999999999E-002    -1.9908962684330339E-014
  -1.7850000000000001E-002    -2.1515763399297632E-014
  -1.7800000000000000E-002    -2.0914394623636346E-014
  -1.7749999999999998E-002    -1.7780166076277696E-014
  -1.7700000000000000E-002    -1.1981520488604050E-014
  -1.7649999999999999E-002    -3.6748225716229831E-015
  -1.7600000000000001E-002     6.6067488398448947E-015
  -1.7550000000000000E-002     1.7900511108112905E-014
  -1.7499999999999998E-002     2.8829975469495894E-014
  -1.7450000000000000E-002     3.7713707673080257E-014
  -1.7399999999999999E-002     4.2775266611247158E-014
  -1.7350000000000001E-002     4.2438410357502324E-014
  -1.7299999999999999E-002     3.5666145677541797E-014
  -1.7250000000000001E-002     2.2280906364836994E-014
  -1.7200000000000000E-002     3.1924090804082800E-015
  -1.7149999999999999E-002    -1.9535767804732392E-014
  -1.7100000000000001E-002    -4.2828810684382203E-014
  -1.7049999999999999E-002    -6.2964855820133971E-014
  -1.7000000000000001E-002    -7.6128950696486959E-014
  -1.6950000000000000E-002    -7.9080677564933385E-014
  -1.6899999999999998E-002    -6.9824472952059012E-014
  -1.6850000000000000E-002    -4.8154594858106808E-014
  -1.6799999999999999E-002    -1.5953254954077745E-014
  -1.6750000000000001E-002     2.2848133907431657E-014
  -1.6700000000000000E-002     6.2681966769009950E-014
  -1.6649999999999998E-002     9.7103052113683367E-014
  -1.6600000000000000E-002     1.1979656817182680E-013
  -1.6549999999999999E-002     1.2568214332304773E-013
  -1.6500000000000001E-002     1.1192683683301948E-013
  -1.6449999999999999E-002     7.8676918302463015E-014
  -1.6400000000000001E-002     2.9349740095102564E-014
  -1.6350000000000000E-002    -2.9609328070054964E-014
  -1.6299999999999999E-002    -8.9513820275307718E-014
  -1.6250000000000001E-002    -1.4068009104521488E-013
  -1.6199999999999999E-002    -1.7395347458635948E-013
  -1.6150000000000001E-002    -1.8227759420812220E-013
  -1.6100000000000000E-002    -1.6204176144167851E-013
  -1.6049999999999998E-002    -1.1395993099208677E-013
  -1.6000000000000000E-002    -4.3298669715921711E-014
  -1.5949999999999999E-002     4.0628207895273408E-014
  -1.5900000000000001E-002     1.2566030970184264E-013
  -1.5850000000000000E-002     1.9852821608666674E-013
  -1.5799999999999998E-002     2.4687156339266453E-013
  -1.5750000000000000E-002     2.6122404120164392E-013
  -1.5699999999999999E-002     2.3664573867884856E-013
  -1.5650000000000001E-002     1.7373233532669625E-013
  -1.5599999999999999E-002     7.8824999137265080E-014
  -1.5550000000000001E-002    -3.6631554737604581E-014
  -1.5500000000000000E-002    -1.5750348312147263E-013
  -1.5449999999999998E-002    -2.6695835704810809E-013
  -1.5400000000000000E-002    -3.4875224018585902E-013
  -1.5349999999999999E-002    -3.8949431244952992E-013
  -1.5300000000000001E-002    -3.8057959905873804E-013
  -1.5250000000000000E-002    -3.1953102049033382E-013
  -1.5199999999999998E-002    -2.1057411162667262E-013
  -1.5150000000000000E-002    -6.4367156810421612E-014
  -1.5099999999999999E-002     1.0308974194055730E-013
  -1.5050000000000001E-002     2.7224841810415624E-013
  -1.4999999999999999E-002     4.2231230211502374E-013
  -1.4949999999999998E-002     5.3378513037886523E-013
  -1.4900000000000000E-002     5.9097407826319963E-013
  -1.4849999999999999E-002     5.8413916249764114E-013
  -1.4800000000000001E-002     5.1099778288091903E-013
  -1.4749999999999999E-002     3.7734246437117816E-013
  -1.4700000000000001E-002     1.9661812231724163E-013
  -1.4650000000000000E-002    -1.1573624061078280E-014
  -1.4599999999999998E-002    -2.2392527878042390E-013
  -1.4550000000000000E-002    -4.1655407184759404E-013
  -1.4499999999999999E-002    -5.6839576993340946E-013
  -1.4450000000000001E-002    -6.6434946970569329E-013
  -1.4400000000000000E-002    -6.9763914967925078E-013
  -1.4349999999999998E-002    -6.7092615955426298E-013
  -1.4300000000000000E-002    -5.9586743843970080E-013
  -1.4249999999999999E-002    -4.9105447988483581E-013
  -1.4200000000000001E-002    -3.7854814843327194E-013
  -1.4149999999999999E-002    -2.7950172184890575E-013
  -1.4099999999999998E-002    -2.0958493266181577E-013
  -1.4050000000000000E-002    -1.7503696179328533E-013
  -1.3999999999999999E-002    -1.7015702666981407E-013
  -1.3950000000000001E-002    -1.7687530756114626E-013
  -1.3899999999999999E-002    -1.6675175098351580E-013
  -1.3850000000000001E-002    -1.0536517851851414E-013
  -1.3800000000000000E-002     4.1361379648786924E-014
  -1.3749999999999998E-002     2.9973482750707012E-013
  -1.3700000000000000E-002     6.8088139312491865E-013
  -1.3649999999999999E-002     1.1745949139019404E-012
  -1.3600000000000001E-002     1.7456261360420317E-012
  -1.3550000000000000E-002     2.3333455195262129E-012
  -1.3499999999999998E-002     2.8552894336389420E-012
  -1.3450000000000000E-002     3.2145673699989050E-012
  -1.3399999999999999E-002     3.3105244398515820E-012
  -1.3350000000000001E-002     3.0515210249660409E-012
  -1.3299999999999999E-002     2.3682934530562213E-012
  -1.3249999999999998E-002     1.2261624477701140E-012
  -1.3200000000000000E-002    -3.6557205229027046E-013
  -1.3149999999999998E-002    -2.3483851162359191E-012
  -1.3100000000000001E-002    -4.6141979314405881E-012
  -1.3049999999999999E-002    -7.0100221492084876E-012
  -1.3000000000000001E-002    -9.3468899867002217E-012
  -1.2950000000000000E-002    -1.1411712587086765E-011
  -1.2899999999999998E-002    -1.2980285397033475E-011
  -1.2850000000000000E-002    -1.3829518688783020E-011
  -1.2799999999999999E-002    -1.3747168350638588E-011