  -4.0000000000000001E-002     0.0000000000000000     
  -3.9949999999999999E-002     0.0000000000000000     
  -3.9899999999999998E-002     0.0000000000000000     
  -3.9850000000000003E-002     0.0000000000000000     
  -3.9800000000000002E-002     0.0000000000000000     
  -3.9750000000000001E-002     0.0000000000000000     
  -3.9699999999999999E-002     0.0000000000000000     
  -3.9649999999999998E-002     0.0000000000000000     
  -3.9600000000000003E-002     0.0000000000000000     
  -3.9550000000000002E-002     0.0000000000000000     
  -3.9500000000000000E-002     0.0000000000000000     
  -3.9449999999999999E-002     0.0000000000000000     
  -3.9399999999999998E-002     0.0000000000000000     
  -3.9350000000000003E-002     0.0000000000000000     
  -3.9300000000000002E-002     0.0000000000000000     
  -3.9250000000000000E-002     0.0000000000000000     
  -3.9199999999999999E-002     0.0000000000000000     
  -3.9150000000000004E-002     0.0000000000000000     
  -3.9100000000000003E-002     0.0000000000000000     
  -3.9050000000000001E-002     0.0000000000000000     
  -3.9000000000000000E-002     0.0000000000000000     
  -3.8949999999999999E-002     0.0000000000000000     
  -3.8900000000000004E-002     0.0000000000000000     
  -3.8850000000000003E-002     0.0000000000000000     
  -3.8800000000000001E-002     0.0000000000000000     
  -3.8750000000000000E-002     0.0000000000000000     
  -3.8699999999999998E-002     0.0000000000000000     
  -3.8650000000000004E-002     0.0000000000000000     
  -3.8600000000000002E-002     0.0000000000000000     
  -3.8550000000000001E-002     0.0000000000000000     
  -3.8500000000000000E-002     0.0000000000000000     
  -3.8449999999999998E-002     0.0000000000000000     
  -3.8400000000000004E-002     0.0000000000000000     
  -3.8350000000000002E-002     0.0000000000000000     
  -3.8300000000000001E-002     0.0000000000000000     
  -3.8249999999999999E-002     0.0000000000000000     
  -3.8199999999999998E-002     0.0000000000000000     
  -3.8150000000000003E-002     0.0000000000000000     
  -3.8100000000000002E-002     0.0000000000000000     
  -3.8050000000000000E-002     0.0000000000000000     
  -3.7999999999999999E-002     0.0000000000000000     
  -3.7949999999999998E-002     0.0000000000000000     
  -3.7900000000000003E-002     0.0000000000000000     
  -3.7850000000000002E-002     0.0000000000000000     
  -3.7800000000000000E-002     0.0000000000000000     
  -3.7749999999999999E-002     0.0000000000000000     
  -3.7699999999999997E-002     0.0000000000000000     
  -3.7650000000000003E-002     0.0000000000000000     
  -3.7600000000000001E-002     0.0000000000000000     
  -3.7550000000000000E-002     0.0000000000000000     
  -3.7499999999999999E-002     0.0000000000000000     
  -3.7449999999999997E-002     0.0000000000000000     
  -3.7400000000000003E-002     0.0000000000000000     
  -3.7350000000000001E-002     0.0000000000000000     
  -3.7300000000000000E-002     0.0000000000000000     
  -3.7249999999999998E-002     0.0000000000000000     
  -3.7200000000000004E-002     0.0000000000000000     
  -3.7150000000000002E-002     0.0000000000000000     
  -3.7100000000000001E-002     0.0000000000000000     
  -3.7050000000000000E-002     0.0000000000000000     
  -3.6999999999999998E-002     0.0000000000000000     
  -3.6950000000000004E-002     0.0000000000000000     
  -3.6900000000000002E-002     0.0000000000000000     
  -3.6850000000000001E-002     0.0000000000000000     
  -3.6799999999999999E-002     0.0000000000000000     
  -3.6749999999999998E-002     0.0000000000000000     
  -3.6700000000000003E-002     0.0000000000000000     
  -3.6650000000000002E-002     0.0000000000000000     
  -3.6600000000000001E-002     0.0000000000000000     
  -3.6549999999999999E-002     0.0000000000000000     
  -3.6499999999999998E-002     0.0000000000000000     
  -3.6450000000000003E-002     0.0000000000000000     
  -3.6400000000000002E-002     0.0000000000000000     
  -3.6350000000000000E-002     0.0000000000000000     
  -3.6299999999999999E-002     0.0000000000000000     
  -3.6249999999999998E-002     0.0000000000000000     
  -3.6200000000000003E-002     0.0000000000000000     
  -3.6150000000000002E-002     0.0000000000000000     
  -3.6100000000000000E-002     0.0000000000000000     
  -3.6049999999999999E-002     0.0000000000000000     
  -3.6000000000000004E-002     0.0000000000000000     
  -3.5950000000000003E-002     0.0000000000000000     
  -3.5900000000000001E-002     0.0000000000000000     
  -3.5850000000000000E-002     0.0000000000000000     
  -3.5799999999999998E-002     0.0000000000000000     
  -3.5750000000000004E-002     0.0000000000000000     
  -3.5700000000000003E-002     0.0000000000000000     
  -3.5650000000000001E-002     0.0000000000000000     
  -3.5600000000000000E-002     0.0000000000000000     
  -3.5549999999999998E-002     0.0000000000000000     
  -3.5500000000000004E-002     0.0000000000000000     
  -3.5450000000000002E-002     0.0000000000000000     
  -3.5400000000000001E-002     0.0000000000000000     
  -3.5349999999999999E-002     0.0000000000000000     
  -3.5299999999999998E-002     0.0000000000000000     
  -3.5250000000000004E-002     0.0000000000000000     
  -3.5200000000000002E-002     0.0000000000000000     
  -3.5150000000000001E-002     0.0000000000000000     
  -3.5099999999999999E-002     0.0000000000000000     
  -3.5049999999999998E-002     0.0000000000000000     
  -3.5000000000000003E-002     0.0000000000000000     
  -3.4950000000000002E-002     0.0000000000000000     
  -3.4900000000000000E-002     0.0000000000000000     
  -3.4849999999999999E-002     0.0000000000000000     
  -3.4799999999999998E-002     0.0000000000000000     
  -3.4750000000000003E-002     0.0000000000000000     
  -3.4700000000000002E-002     0.0000000000000000     
  -3.4650000000000000E-002     0.0000000000000000     
  -3.4599999999999999E-002     0.0000000000000000     
  -3.4549999999999997E-002     0.0000000000000000     
  -3.4500000000000003E-002     0.0000000000000000     
  -3.4450000000000001E-002     0.0000000000000000     
  -3.4400000000000000E-002     0.0000000000000000     
  -3.4349999999999999E-002     0.0000000000000000     
  -3.4299999999999997E-002     0.0000000000000000     
  -3.4250000000000003E-002     0.0000000000000000     
  -3.4200000000000001E-002     0.0000000000000000     
  -3.4150000000000000E-002     0.0000000000000000     
  -3.4099999999999998E-002     0.0000000000000000     
  -3.4049999999999997E-002     0.0000000000000000     
  -3.4000000000000002E-002     0.0000000000000000     
  -3.3950000000000001E-002     0.0000000000000000     
  -3.3900000000000000E-002     0.0000000000000000     
  -3.3849999999999998E-002     0.0000000000000000     
  -3.3799999999999997E-002     0.0000000000000000     
  -3.3750000000000002E-002     0.0000000000000000     
  -3.3700000000000001E-002     0.0000000000000000     
  -3.3649999999999999E-002     0.0000000000000000     
  -3.3599999999999998E-002     0.0000000000000000     
  -3.3550000000000003E-002     0.0000000000000000     
  -3.3500000000000002E-002     0.0000000000000000     
  -3.3450000000000001E-002     0.0000000000000000     
  -3.3399999999999999E-002     0.0000000000000000     
  -3.3349999999999998E-002     0.0000000000000000     
  -3.3300000000000003E-002     0.0000000000000000     
  -3.3250000000000002E-002     0.0000000000000000     
  -3.3200000000000000E-002     0.0000000000000000     
  -3.3149999999999999E-002     0.0000000000000000     
  -3.3099999999999997E-002     0.0000000000000000     
  -3.3050000000000003E-002     0.0000000000000000     
  -3.3000000000000002E-002     0.0000000000000000     
  -3.2950000000000000E-002     0.0000000000000000     
  -3.2899999999999999E-002     0.0000000000000000     
  -3.2850000000000004E-002     0.0000000000000000     
  -3.2800000000000003E-002     0.0000000000000000     
  -3.2750000000000001E-002     0.0000000000000000     
  -3.2700000000000000E-002     0.0000000000000000     
  -3.2649999999999998E-002     0.0000000000000000     
  -3.2600000000000004E-002     0.0000000000000000     
  -3.2550000000000003E-002     0.0000000000000000     
  -3.2500000000000001E-002     0.0000000000000000     
  -3.2450000000000000E-002     0.0000000000000000     
  -3.2399999999999998E-002     0.0000000000000000     
  -3.2350000000000004E-002     0.0000000000000000     
  -3.2300000000000002E-002     0.0000000000000000     
  -3.2250000000000001E-002     0.0000000000000000     
  -3.2199999999999999E-002     0.0000000000000000     
  -3.2149999999999998E-002     0.0000000000000000     
  -3.2100000000000004E-002     0.0000000000000000     
  -3.2050000000000002E-002     0.0000000000000000     
  -3.2000000000000001E-002     0.0000000000000000     
  -3.1949999999999999E-002     0.0000000000000000     
  -3.1899999999999998E-002     0.0000000000000000     
  -3.1850000000000003E-002     0.0000000000000000     
  -3.1800000000000002E-002     0.0000000000000000     
  -3.1750000000000000E-002     0.0000000000000000     
  -3.1699999999999999E-002     0.0000000000000000     
  -3.1649999999999998E-002     0.0000000000000000     
  -3.1600000000000003E-002     0.0000000000000000     
  -3.1550000000000002E-002     0.0000000000000000     
  -3.1500000000000000E-002     0.0000000000000000     
  -3.1449999999999999E-002     0.0000000000000000     
  -3.1399999999999997E-002     0.0000000000000000     
  -3.1350000000000003E-002     0.0000000000000000     
  -3.1300000000000001E-002     0.0000000000000000     
  -3.1250000000000000E-002     0.0000000000000000     
  -3.1199999999999999E-002     0.0000000000000000     
  -3.1150000000000001E-002     0.0000000000000000     
  -3.1100000000000003E-002     0.0000000000000000     
  -3.1050000000000001E-002     0.0000000000000000     
  -3.1000000000000000E-002     0.0000000000000000     
  -3.0949999999999998E-002     0.0000000000000000     
  -3.0900000000000000E-002     0.0000000000000000     
  -3.0850000000000002E-002     0.0000000000000000     
  -3.0800000000000001E-002     0.0000000000000000     
  -3.0750000000000000E-002     0.0000000000000000     
  -3.0699999999999998E-002     0.0000000000000000     
  -3.0650000000000000E-002     0.0000000000000000     
  -3.0600000000000002E-002     0.0000000000000000     
  -3.0550000000000001E-002     0.0000000000000000     
  -3.0499999999999999E-002     0.0000000000000000     
  -3.0449999999999998E-002     0.0000000000000000     
  -3.0400000000000000E-002     0.0000000000000000     
  -3.0350000000000002E-002     0.0000000000000000     
  -3.0300000000000001E-002     0.0000000000000000     
  -3.0249999999999999E-002     0.0000000000000000     
  -3.0200000000000001E-002     0.0000000000000000     
  -3.0150000000000000E-002     0.0000000000000000     
  -3.0100000000000002E-002     0.0000000000000000     
  -3.0050000000000000E-002     0.0000000000000000     
  -2.9999999999999999E-002     0.0000000000000000     
  -2.9950000000000001E-002     0.0000000000000000     
  -2.9899999999999999E-002     0.0000000000000000     
  -2.9850000000000002E-002     0.0000000000000000     
  -2.9800000000000000E-002     0.0000000000000000     
  -2.9749999999999999E-002     0.0000000000000000     
  -2.9700000000000001E-002     0.0000000000000000     
  -2.9650000000000003E-002     0.0000000000000000     
  -2.9600000000000001E-002     0.0000000000000000     
  -2.9550000000000000E-002     0.0000000000000000     
  -2.9499999999999998E-002     0.0000000000000000     
  -2.9450000000000000E-002     0.0000000000000000     
  -2.9400000000000003E-002     0.0000000000000000     
  -2.9350000000000001E-002     0.0000000000000000     
  -2.9300000000000000E-002     0.0000000000000000     
  -2.9249999999999998E-002     0.0000000000000000     
  -2.9200000000000000E-002     0.0000000000000000     
  -2.9150000000000002E-002     0.0000000000000000     
  -2.9100000000000001E-002     0.0000000000000000     
  -2.9049999999999999E-002     0.0000000000000000     
  -2.8999999999999998E-002     0.0000000000000000     
  -2.8950000000000000E-002     0.0000000000000000     
  -2.8900000000000002E-002     0.0000000000000000     
  -2.8850000000000001E-002     0.0000000000000000     
  -2.8799999999999999E-002     0.0000000000000000     
  -2.8749999999999998E-002     0.0000000000000000     
  -2.8700000000000000E-002     0.0000000000000000     
  -2.8650000000000002E-002     0.0000000000000000     
  -2.8600000000000000E-002     0.0000000000000000     
  -2.8549999999999999E-002     0.0000000000000000     
  -2.8500000000000001E-002     0.0000000000000000     
  -2.8450000000000000E-002     0.0000000000000000     
  -2.8400000000000002E-002     0.0000000000000000     
  -2.8350000000000000E-002     0.0000000000000000     
  -2.8299999999999999E-002     0.0000000000000000     
  -2.8250000000000001E-002     0.0000000000000000     
  -2.8200000000000003E-002     0.0000000000000000     
  -2.8150000000000001E-002     0.0000000000000000     
  -2.8100000000000000E-002     0.0000000000000000     
  -2.8049999999999999E-002     0.0000000000000000     
  -2.8000000000000001E-002     0.0000000000000000     
  -2.7950000000000003E-002     0.0000000000000000     
  -2.7900000000000001E-002     0.0000000000000000     
  -2.7850000000000000E-002     0.0000000000000000     
  -2.7799999999999998E-002     0.0000000000000000     
  -2.7750000000000000E-002     0.0000000000000000     
  -2.7700000000000002E-002     0.0000000000000000     
  -2.7650000000000001E-002     0.0000000000000000     
  -2.7600000000000000E-002     0.0000000000000000     
  -2.7549999999999998E-002     0.0000000000000000     
  -2.7500000000000000E-002     0.0000000000000000     
  -2.7450000000000002E-002     0.0000000000000000     
  -2.7400000000000001E-002     0.0000000000000000     
  -2.7349999999999999E-002     0.0000000000000000     
  -2.7299999999999998E-002     0.0000000000000000     
  -2.7250000000000000E-002     0.0000000000000000     
  -2.7200000000000002E-002     0.0000000000000000     
  -2.7150000000000001E-002     0.0000000000000000     
  -2.7099999999999999E-002     0.0000000000000000     
  -2.7049999999999998E-002     0.0000000000000000     
  -2.7000000000000000E-002     0.0000000000000000     
  -2.6950000000000002E-002     0.0000000000000000     
  -2.6900000000000000E-002     0.0000000000000000     
  -2.6849999999999999E-002     0.0000000000000000     
  -2.6800000000000001E-002     0.0000000000000000     
  -2.6749999999999999E-002     0.0000000000000000     
  -2.6700000000000002E-002     0.0000000000000000     
  -2.6650000000000000E-002     0.0000000000000000     
  -2.6599999999999999E-002     0.0000000000000000     
  -2.6550000000000001E-002     0.0000000000000000     
  -2.6500000000000003E-002     0.0000000000000000     
  -2.6450000000000001E-002     0.0000000000000000     
  -2.6400000000000000E-002     0.0000000000000000     
  -2.6349999999999998E-002     0.0000000000000000     
  -2.6300000000000000E-002     0.0000000000000000     
  -2.6250000000000002E-002     0.0000000000000000     
  -2.6200000000000001E-002     0.0000000000000000     
  -2.6150000000000000E-002     0.0000000000000000     
  -2.6099999999999998E-002     0.0000000000000000     
  -2.6050000000000000E-002     0.0000000000000000     
  -2.6000000000000002E-002     0.0000000000000000     
  -2.5950000000000001E-002     0.0000000000000000     
  -2.5899999999999999E-002     0.0000000000000000     
  -2.5849999999999998E-002     0.0000000000000000     
  -2.5800000000000000E-002     0.0000000000000000     
  -2.5750000000000002E-002     0.0000000000000000     
  -2.5700000000000001E-002     0.0000000000000000     
  -2.5649999999999999E-002     0.0000000000000000     
  -2.5599999999999998E-002     0.0000000000000000     
  -2.5550000000000000E-002    -9.2999729285592473E-039
  -2.5500000000000002E-002    -1.8329484106153624E-038
  -2.5450000000000000E-002    -7.8423900177351484E-039
  -2.5399999999999999E-002     3.0723273508995079E-038
  -2.5349999999999998E-002     6.8631244009891324E-038
  -2.5300000000000000E-002     8.0787711617070424E-038
  -2.5250000000000002E-002     5.5091316624904179E-038
  -2.5200000000000000E-002    -1.0636193203587438E-038
  -2.5149999999999999E-002    -1.0151113132690835E-037
  -2.5100000000000001E-002    -2.0456521405764042E-037
  -2.5049999999999999E-002    -2.9167800779062543E-037
  -2.5000000000000001E-002    -2.9235566214732930E-037
  -2.4950000000000000E-002    -1.6136056952142550E-037
  -2.4899999999999999E-002     1.0810416480620197E-037
  -2.4850000000000001E-002     4.8699548323111497E-037
  -2.4800000000000003E-002     8.4182598207684774E-037
  -2.4750000000000001E-002     9.8511662582172997E-037
  -2.4700000000000000E-002     8.0480212296220460E-037
  -2.4649999999999998E-002     2.6655900020309132E-037
  -2.4600000000000000E-002    -5.4628828125955030E-037
  -2.4550000000000002E-002    -1.4365841418088121E-036
  -2.4500000000000001E-002    -2.1050985901854087E-036
  -2.4450000000000000E-002    -2.2547157444253569E-036
  -2.4399999999999998E-002    -1.7111187991971240E-036
  -2.4350000000000000E-002    -4.9467986142790458E-037
  -2.4299999999999999E-002     1.1424832064479736E-036
  -2.4250000000000001E-002     2.7290842637542836E-036
  -2.4199999999999999E-002     3.7349376044931527E-036
  -2.4150000000000001E-002     3.7669280699832726E-036
  -2.4100000000000000E-002     2.7767012296529157E-036
  -2.4049999999999998E-002     1.1582786493805742E-036
  -2.4000000000000000E-002    -3.8618015065114105E-037
  -2.3949999999999999E-002    -1.1860887833066460E-036
  -2.3900000000000001E-002    -1.0773655924400569E-036
  -2.3850000000000000E-002    -6.9560445266208529E-037
  -2.3800000000000002E-002    -1.4097020750531327E-036
  -2.3750000000000000E-002    -4.7443472101692412E-036
  -2.3699999999999999E-002    -1.1385268993949263E-035
  -2.3650000000000001E-002    -2.0103832964587579E-035
  -2.3599999999999999E-002    -2.7126688792432843E-035
  -2.3550000000000001E-002    -2.6513013706250327E-035
  -2.3500000000000000E-002    -1.1915270573668043E-035
  -2.3449999999999999E-002     2.0360948599137365E-035
  -2.3400000000000001E-002     6.7753801981182715E-035
  -2.3349999999999999E-002     1.1874015655818329E-034
  -2.3300000000000001E-002     1.5281978430164394E-034
  -2.3250000000000000E-002     1.4465755511808521E-034
  -2.3199999999999998E-002     7.2643166059114767E-035
  -2.3150000000000000E-002    -6.9740644607664527E-035
  -2.3099999999999999E-002    -2.6334933864945621E-034
  -2.3050000000000001E-002    -4.5847861797531908E-034
  -2.3000000000000000E-002    -5.8022886174385334E-034
  -2.2950000000000002E-002    -5.4644514389852542E-034
  -2.2900000000000000E-002    -2.9642660576312453E-034
  -2.2849999999999999E-002     1.7640926785599020E-034
  -2.2800000000000001E-002     7.9898850266395878E-034
  -2.2749999999999999E-002     1.4127998421094183E-033
  -2.2700000000000001E-002     1.7976929096749679E-033
  -2.2650000000000000E-002     1.7274197089900466E-033
  -2.2599999999999999E-002     1.0478670883744102E-033
  -2.2550000000000001E-002    -2.4266713983700971E-034
  -2.2499999999999999E-002    -1.9394003136226061E-033
  -2.2450000000000001E-002    -3.6308925086243151E-033
  -2.2400000000000000E-002    -4.7695829603913752E-033
  -2.2349999999999998E-002    -4.8097031737209838E-033
  -2.2300000000000000E-002    -3.3847802086629359E-033
  -2.2249999999999999E-002    -4.7590663980654036E-034
  -2.2200000000000001E-002     3.4871389815557596E-033
  -2.2150000000000000E-002     7.6409192974100661E-033
  -2.2100000000000002E-002     1.0840666019530269E-032
  -2.2050000000000000E-002     1.1930277210979548E-032
  -2.1999999999999999E-002     1.0068705292926968E-032
  -2.1950000000000001E-002     5.0237819415059915E-033
  -2.1899999999999999E-002    -2.6569397493870730E-033
  -2.1850000000000001E-002    -1.1659987105186717E-032
  -2.1800000000000000E-002    -2.0114015709177304E-032
  -2.1749999999999999E-002    -2.5943927546771216E-032
  -2.1700000000000001E-002    -2.7281442694911053E-032
  -2.1649999999999999E-002    -2.2835187477535412E-032
  -2.1600000000000001E-002    -1.2154693760805875E-032
  -2.1550000000000000E-002     4.2209608160581812E-033
  -2.1499999999999998E-002     2.4687159812296445E-032
  -2.1450000000000000E-002     4.6514521981785440E-032
  -2.1399999999999999E-002     6.5798159508555638E-032
  -2.1350000000000001E-002     7.7509276880682195E-032
  -2.1299999999999999E-002     7.5856721430614585E-032
  -2.1250000000000002E-002     5.5218667604825569E-032
  -2.1200000000000000E-002     1.1820549019206638E-032
  -2.1149999999999999E-002    -5.3928556806749120E-032
  -2.1100000000000001E-002    -1.3494201971985846E-031
  -2.1049999999999999E-002    -2.1574795418852408E-031
  -2.1000000000000001E-002    -2.7278556469867409E-031
  -2.0950000000000000E-002    -2.7781065606523118E-031
  -2.0899999999999998E-002    -2.0486717344974738E-031
  -2.0850000000000000E-002    -4.0104171491730595E-032
  -2.0799999999999999E-002     2.0774621284789241E-031
  -2.0750000000000001E-002     4.9971069128874333E-031
  -2.0700000000000000E-002     7.6576315722163333E-031
  -2.0649999999999998E-002     9.1415617955413685E-031
  -2.0600000000000000E-002     8.5195542434442935E-031
  -2.0549999999999999E-002     5.1433021315971937E-031
  -2.0500000000000001E-002    -1.0382248327993985E-031
  -2.0449999999999999E-002    -9.2353562843148998E-031
  -2.0400000000000001E-002    -1.7753415854780178E-030
  -2.0350000000000000E-002    -2.4191470659669417E-030
  -2.0299999999999999E-002    -2.5930231350231402E-030
  -2.0250000000000001E-002    -2.0850538425313906E-030
  -2.0199999999999999E-002    -8.1320741397103565E-031
  -2.0150000000000001E-002     1.1088593078784709E-030
  -2.0100000000000000E-002     3.3442417543152906E-030
  -2.0049999999999998E-002     5.3627721593729682E-030
  -2.0000000000000000E-002     6.5357634123677400E-030
  -1.9949999999999999E-002     6.2853985339255086E-030
  -1.9900000000000001E-002     4.2601575038126274E-030
  -1.9850000000000000E-002     4.9326139485438698E-031
  -1.9799999999999998E-002    -4.5040578222938495E-030
  -1.9750000000000000E-002    -9.7553105281892781E-030
  -1.9699999999999999E-002    -1.3958222467065992E-029
  -1.9650000000000001E-002    -1.5742098106279892E-029
  -1.9599999999999999E-002    -1.4001822566941811E-029
  -1.9550000000000001E-002    -8.2401050956048941E-030
  -1.9500000000000000E-002     1.1647647780241881E-030
  -1.9449999999999999E-002     1.2844681721353671E-029
  -1.9400000000000001E-002     2.4537554180982808E-029
  -1.9349999999999999E-002     3.3411748800898600E-029
  -1.9300000000000001E-002     3.6591229967801039E-029
  -1.9250000000000000E-002     3.1807074573111231E-029
  -1.9199999999999998E-002     1.8062995121359814E-029
  -1.9150000000000000E-002    -3.8205283867870625E-030
  -1.9099999999999999E-002    -3.0922738882165871E-029
  -1.9050000000000001E-002    -5.8320785240471413E-029
  -1.9000000000000000E-002    -7.9648844884979300E-029
  -1.8949999999999998E-002    -8.8130853306741839E-029
  -1.8900000000000000E-002    -7.8008991777208497E-029
  -1.8849999999999999E-002    -4.6181314342828917E-029
  -1.8800000000000001E-002     6.2508710275614303E-030
  -1.8749999999999999E-002     7.2916502570856839E-029
  -1.8700000000000001E-002     1.4201532833695811E-028
  -1.8650000000000000E-002     1.9743160419127812E-028
  -1.8599999999999998E-002     2.2130317574156072E-028
  -1.8550000000000001E-002     1.9791461130604964E-028
  -1.8499999999999999E-002     1.1837674011560574E-028
  -1.8450000000000001E-002    -1.4864374491094377E-029
  -1.8400000000000000E-002    -1.8495538150641832E-028
  -1.8349999999999998E-002    -3.6032807929869562E-028
  -1.8300000000000000E-002    -4.9818584417811360E-028
  -1.8249999999999999E-002    -5.5210886309395679E-028
  -1.8200000000000001E-002    -4.8306035761780775E-028
  -1.8149999999999999E-002    -2.7189017119228339E-028
  -1.8100000000000002E-002     6.9599747254611597E-029
  -1.8050000000000000E-002     4.9247987096500787E-028
  -1.7999999999999999E-002     9.1255657284988151E-028
  -1.7950000000000001E-002     1.2221414082686922E-027
  -1.7899999999999999E-002     1.3114146526878656E-027
  -1.7850000000000001E-002     1.0963618010611549E-027
  -1.7800000000000000E-002     5.4764582380148651E-028
  -1.7749999999999998E-002    -2.8698927281517940E-028
  -1.7700000000000000E-002    -1.2744040422263733E-027
  -1.7649999999999999E-002    -2.2076659922725749E-027
  -1.7600000000000001E-002    -2.8396050825557167E-027
  -1.7550000000000000E-002    -2.9351132857046067E-027
  -1.7499999999999998E-002    -2.3333454802543745E-027
  -1.7450000000000000E-002    -1.0063515043497466E-027
  -1.7399999999999999E-002     9.0151593658761406E-028
  -1.7350000000000001E-002     3.0677498563887808E-027
  -1.7299999999999999E-002     5.0285178488252278E-027
  -1.7250000000000001E-002     6.2586845707542788E-027
  -1.7200000000000000E-002     6.2850567695810357E-027
  -1.7149999999999999E-002     4.8126780206902793E-027
  -1.7100000000000001E-002     1.8366188277540217E-027
  -1.7049999999999999E-002    -2.2905599848642722E-027
  -1.7000000000000001E-002    -6.8611983779379192E-027
  -1.6950000000000000E-002    -1.0899198357072183E-026
  -1.6899999999999998E-002    -1.3328770653949579E-026
  -1.6850000000000000E-002    -1.3203695997981694E-026
  -1.6799999999999999E-002    -9.9572345296883780E-027
  -1.6750000000000001E-002    -3.6197385370461694E-027
  -1.6700000000000000E-002     5.0528315604146022E-027
  -1.6649999999999998E-002     1.4588372626207234E-026
  -1.6600000000000000E-002     2.2974534126684967E-026
  -1.6549999999999999E-002     2.7998421799036630E-026
  -1.6500000000000001E-002     2.7710007857247485E-026
  -1.6449999999999999E-002     2.0932308059331138E-026
  -1.6400000000000001E-002     7.7129193573754779E-027
  -1.6350000000000000E-002    -1.0399932297459377E-026
  -1.6299999999999999E-002    -3.0361615971099211E-026
  -1.6250000000000001E-002    -4.7981645226910779E-026
  -1.6199999999999999E-002    -5.8622984338876229E-026
  -1.6150000000000001E-002    -5.8172697601098777E-026
  -1.6100000000000000E-002    -4.4124092227513076E-026
  -1.6049999999999998E-002    -1.6544539515846307E-026
  -1.6000000000000000E-002     2.1326054436263706E-026
  -1.5949999999999999E-002     6.3077786463999092E-026
  -1.5900000000000001E-002     9.9880687906224106E-026
  -1.5850000000000000E-002     1.2198668750493805E-025
  -1.5799999999999998E-002     1.2080908249292751E-025
  -1.5750000000000000E-002     9.1222761982769156E-026
  -1.5699999999999999E-002     3.3588524282030265E-026
  -1.5650000000000001E-002    -4.5050180936491602E-026
  -1.5599999999999999E-002    -1.3108180060271884E-025
  -1.5550000000000001E-002    -2.0603403114221869E-025
  -1.5500000000000000E-002    -2.4983610557331876E-025
  -1.5449999999999998E-002    -2.4521160977321724E-025
  -1.5400000000000000E-002    -1.8240517070669839E-025
  -1.5349999999999999E-002    -6.3182373378359404E-026
  -1.5300000000000001E-002     9.7020754742353178E-026
  -1.5250000000000000E-002     2.6972746548882811E-025
  -1.5199999999999998E-002     4.1729111698167217E-025
  -1.5150000000000000E-002     4.9978944107541859E-025
  -1.5099999999999999E-002     4.8394892957146683E-025
  -1.5050000000000001E-002     3.5240744689634315E-025
  -1.4999999999999999E-002     1.1118242793785666E-025
  -1.4949999999999998E-002    -2.0680526589204664E-025
  -1.4900000000000000E-002    -5.4380803325094903E-025
  -1.4849999999999999E-002    -8.2559610869525774E-025
  -1.4800000000000001E-002    -9.7538661166433233E-025
  -1.4749999999999999E-002    -9.3122077503280789E-025
  -1.4700000000000001E-002    -6.6341278311760934E-025
  -1.4650000000000000E-002    -1.8800284512010583E-025
  -1.4599999999999998E-002     4.2771602054007514E-025
  -1.4550000000000000E-002     1.0704550980398046E-024
  -1.4499999999999999E-002     1.5978818544754636E-024
  -1.4450000000000001E-002     1.8656413864636872E-024
  -1.4400000000000000E-002     1.7601829902892427E-024
  -1.4349999999999998E-002     1.2309669417417907E-024
  -1.4300000000000000E-002     3.1452970435356149E-025
  -1.4249999999999999E-002    -8.5669365595344147E-025
  -1.4200000000000001E-002    -2.0657714741762194E-024
  -1.4149999999999999E-002    -3.0442240468612080E-024
  -1.4099999999999998E-002    -3.5231834455608121E-024
  -1.4050000000000000E-002    -3.2946438848409202E-024
  -1.3999999999999999E-002    -2.2708284432819121E-024
  -1.3950000000000001E-002    -5.2779971894141769E-025
  -1.3899999999999999E-002     1.6796610727471627E-024
  -1.3850000000000001E-002     3.9408965267667832E-024
  -1.3800000000000000E-002     5.7521295416046211E-024
  -1.3749999999999998E-002     6.6126986381757576E-024
  -1.3700000000000000E-002     6.1395103294351111E-024
  -1.3649999999999999E-002     4.1773024780654972E-024
  -1.3600000000000001E-002     8.7884944346479225E-025
  -1.3550000000000000E-002    -3.2690321668581966E-024
  -1.3499999999999998E-002    -7.4903078837603691E-024
  -1.3450000000000000E-002    -1.0839202215037359E-023
  -1.3399999999999999E-002    -1.2381929999946187E-023
  -1.3350000000000001E-002    -1.1411652109360350E-023
  -1.3299999999999999E-002    -7.6542603569084850E-024
  -1.3249999999999998E-002    -1.4162608496089095E-024
  -1.3200000000000000E-002     6.3704514180274714E-024
  -1.3149999999999998E-002     1.4237616842357979E-023
  -1.3100000000000001E-002     2.0409607430002343E-023
  -1.3049999999999999E-002     2.3147787458437673E-023
  -1.3000000000000001E-002     2.1154333166225313E-023
  -1.2950000000000000E-002     1.3954887441651665E-023
  -1.2899999999999998E-002     2.1684217594060472E-024
  -1.2850000000000000E-002    -1.2419663578500000E-023
  -1.2799999999999999E-002    -2.7036472802825293E-023