  -4.0000000000000001E-002     0.0000000000000000     
  -3.9949999999999999E-002     0.0000000000000000     
  -3.9899999999999998E-002     0.0000000000000000     
  -3.9850000000000003E-002     0.0000000000000000     
  -3.9800000000000002E-002     0.0000000000000000     
  -3.9750000000000001E-002     0.0000000000000000     
  -3.9699999999999999E-002     0.0000000000000000     
  -3.9649999999999998E-002     0.0000000000000000     
  -3.9600000000000003E-002     0.0000000000000000     
  -3.9550000000000002E-002     0.0000000000000000     
  -3.9500000000000000E-002     0.0000000000000000     
  -3.9449999999999999E-002     0.0000000000000000     
  -3.9399999999999998E-002     0.0000000000000000     
  -3.9350000000000003E-002     0.0000000000000000     
  -3.9300000000000002E-002     0.0000000000000000     
  -3.9250000000000000E-002     0.0000000000000000     
  -3.9199999999999999E-002     0.0000000000000000     
  -3.9150000000000004E-002     0.0000000000000000     
  -3.9100000000000003E-002     0.0000000000000000     
  -3.9050000000000001E-002     0.0000000000000000     
  -3.9000000000000000E-002     0.0000000000000000     
  -3.8949999999999999E-002     0.0000000000000000     
  -3.8900000000000004E-002     0.0000000000000000     
  -3.8850000000000003E-002     0.0000000000000000     
  -3.8800000000000001E-002     0.0000000000000000     
  -3.8750000000000000E-002     0.0000000000000000     
  -3.8699999999999998E-002     0.0000000000000000     
  -3.8650000000000004E-002     0.0000000000000000     
  -3.8600000000000002E-002     0.0000000000000000     
  -3.8550000000000001E-002     0.0000000000000000     
  -3.8500000000000000E-002     0.0000000000000000     
  -3.8449999999999998E-002     0.0000000000000000     
  -3.8400000000000004E-002     0.0000000000000000     
  -3.8350000000000002E-002     0.0000000000000000     
  -3.8300000000000001E-002     0.0000000000000000     
  -3.8249999999999999E-002     0.0000000000000000     
  -3.8199999999999998E-002     0.0000000000000000     
  -3.8150000000000003E-002     0.0000000000000000     
  -3.8100000000000002E-002     0.0000000000000000     
  -3.8050000000000000E-002     0.0000000000000000     
  -3.7999999999999999E-002     0.0000000000000000     
  -3.7949999999999998E-002     0.0000000000000000     
  -3.7900000000000003E-002     0.0000000000000000     
  -3.7850000000000002E-002     0.0000000000000000     
  -3.7800000000000000E-002     0.0000000000000000     
  -3.7749999999999999E-002     0.0000000000000000     
  -3.7699999999999997E-002     0.0000000000000000     
  -3.7650000000000003E-002     0.0000000000000000     
  -3.7600000000000001E-002     0.0000000000000000     
  -3.7550000000000000E-002     0.0000000000000000     
  -3.7499999999999999E-002     0.0000000000000000     
  -3.7449999999999997E-002     0.0000000000000000     
  -3.7400000000000003E-002     0.0000000000000000     
  -3.7350000000000001E-002     0.0000000000000000     
  -3.7300000000000000E-002     0.0000000000000000     
  -3.7249999999999998E-002     0.0000000000000000     
  -3.7200000000000004E-002     0.0000000000000000     
  -3.7150000000000002E-002     0.0000000000000000     
  -3.7100000000000001E-002     0.0000000000000000     
  -3.7050000000000000E-002     0.0000000000000000     
  -3.6999999999999998E-002     0.0000000000000000     
  -3.6950000000000004E-002     0.0000000000000000     
  -3.6900000000000002E-002     0.0000000000000000     
  -3.6850000000000001E-002     0.0000000000000000     
  -3.6799999999999999E-002     0.0000000000000000     
  -3.6749999999999998E-002     0.0000000000000000     
  -3.6700000000000003E-002     0.0000000000000000     
  -3.6650000000000002E-002     0.0000000000000000     
  -3.6600000000000001E-002     0.0000000000000000     
  -3.6549999999999999E-002     0.0000000000000000     
  -3.6499999999999998E-002     0.0000000000000000     
  -3.6450000000000003E-002     0.0000000000000000     
  -3.6400000000000002E-002     0.0000000000000000     
  -3.6350000000000000E-002     0.0000000000000000     
  -3.6299999999999999E-002     0.0000000000000000     
  -3.6249999999999998E-002     0.0000000000000000     
  -3.6200000000000003E-002     0.0000000000000000     
  -3.6150000000000002E-002     0.0000000000000000     
  -3.6100000000000000E-002     0.0000000000000000     
  -3.6049999999999999E-002     0.0000000000000000     
  -3.6000000000000004E-002     0.0000000000000000     
  -3.5950000000000003E-002     0.0000000000000000     
  -3.5900000000000001E-002     0.0000000000000000     
  -3.5850000000000000E-002     0.0000000000000000     
  -3.5799999999999998E-002     0.0000000000000000     
  -3.5750000000000004E-002     0.0000000000000000     
  -3.5700000000000003E-002     0.0000000000000000     
  -3.5650000000000001E-002     0.0000000000000000     
  -3.5600000000000000E-002     0.0000000000000000     
  -3.5549999999999998E-002     0.0000000000000000     
  -3.5500000000000004E-002     0.0000000000000000     
  -3.5450000000000002E-002     0.0000000000000000     
  -3.5400000000000001E-002     0.0000000000000000     
  -3.5349999999999999E-002     0.0000000000000000     
  -3.5299999999999998E-002     0.0000000000000000     
  -3.5250000000000004E-002     0.0000000000000000     
  -3.5200000000000002E-002     0.0000000000000000     
  -3.5150000000000001E-002     0.0000000000000000     
  -3.5099999999999999E-002     0.0000000000000000     
  -3.5049999999999998E-002     0.0000000000000000     
  -3.5000000000000003E-002     0.0000000000000000     
  -3.4950000000000002E-002     0.0000000000000000     
  -3.4900000000000000E-002     0.0000000000000000     
  -3.4849999999999999E-002     0.0000000000000000     
  -3.4799999999999998E-002     0.0000000000000000     
  -3.4750000000000003E-002     0.0000000000000000     
  -3.4700000000000002E-002     0.0000000000000000     
  -3.4650000000000000E-002     0.0000000000000000     
  -3.4599999999999999E-002     0.0000000000000000     
  -3.4549999999999997E-002     0.0000000000000000     
  -3.4500000000000003E-002     0.0000000000000000     
  -3.4450000000000001E-002     0.0000000000000000     
  -3.4400000000000000E-002     0.0000000000000000     
  -3.4349999999999999E-002     0.0000000000000000     
  -3.4299999999999997E-002     0.0000000000000000     
  -3.4250000000000003E-002     0.0000000000000000     
  -3.4200000000000001E-002     0.0000000000000000     
  -3.4150000000000000E-002     0.0000000000000000     
  -3.4099999999999998E-002     0.0000000000000000     
  -3.4049999999999997E-002     0.0000000000000000     
  -3.4000000000000002E-002     0.0000000000000000     
  -3.3950000000000001E-002     0.0000000000000000     
  -3.3900000000000000E-002     0.0000000000000000     
  -3.3849999999999998E-002     0.0000000000000000     
  -3.3799999999999997E-002     0.0000000000000000     
  -3.3750000000000002E-002     0.0000000000000000     
  -3.3700000000000001E-002     0.0000000000000000     
  -3.3649999999999999E-002     0.0000000000000000     
  -3.3599999999999998E-002     0.0000000000000000     
  -3.3550000000000003E-002     0.0000000000000000     
  -3.3500000000000002E-002     0.0000000000000000     
  -3.3450000000000001E-002     0.0000000000000000     
  -3.3399999999999999E-002     0.0000000000000000     
  -3.3349999999999998E-002     0.0000000000000000     
  -3.3300000000000003E-002     0.0000000000000000     
  -3.3250000000000002E-002     0.0000000000000000     
  -3.3200000000000000E-002     0.0000000000000000     
  -3.3149999999999999E-002     0.0000000000000000     
  -3.3099999999999997E-002     0.0000000000000000     
  -3.3050000000000003E-002     0.0000000000000000     
  -3.3000000000000002E-002     0.0000000000000000     
  -3.2950000000000000E-002     0.0000000000000000     
  -3.2899999999999999E-002     0.0000000000000000     
  -3.2850000000000004E-002     0.0000000000000000     
  -3.2800000000000003E-002     0.0000000000000000     
  -3.2750000000000001E-002     0.0000000000000000     
  -3.2700000000000000E-002     0.0000000000000000     
  -3.2649999999999998E-002     0.0000000000000000     
  -3.2600000000000004E-002     0.0000000000000000     
  -3.2550000000000003E-002     0.0000000000000000     
  -3.2500000000000001E-002     0.0000000000000000     
  -3.2450000000000000E-002     0.0000000000000000     
  -3.2399999999999998E-002     0.0000000000000000     
  -3.2350000000000004E-002     0.0000000000000000     
  -3.2300000000000002E-002     0.0000000000000000     
  -3.2250000000000001E-002     0.0000000000000000     
  -3.2199999999999999E-002     0.0000000000000000     
  -3.2149999999999998E-002     0.0000000000000000     
  -3.2100000000000004E-002     0.0000000000000000     
  -3.2050000000000002E-002     0.0000000000000000     
  -3.2000000000000001E-002     0.0000000000000000     
  -3.1949999999999999E-002     0.0000000000000000     
  -3.1899999999999998E-002     0.0000000000000000     
  -3.1850000000000003E-002     0.0000000000000000     
  -3.1800000000000002E-002     0.0000000000000000     
  -3.1750000000000000E-002     0.0000000000000000     
  -3.1699999999999999E-002     0.0000000000000000     
  -3.1649999999999998E-002     0.0000000000000000     
  -3.1600000000000003E-002     0.0000000000000000     
  -3.1550000000000002E-002     0.0000000000000000     
  -3.1500000000000000E-002     0.0000000000000000     
  -3.1449999999999999E-002     0.0000000000000000     
  -3.1399999999999997E-002     0.0000000000000000     
  -3.1350000000000003E-002     0.0000000000000000     
  -3.1300000000000001E-002     0.0000000000000000     
  -3.1250000000000000E-002     0.0000000000000000     
  -3.1199999999999999E-002     0.0000000000000000     
  -3.1150000000000001E-002     0.0000000000000000     
  -3.1100000000000003E-002     0.0000000000000000     
  -3.1050000000000001E-002     0.0000000000000000     
  -3.1000000000000000E-002     0.0000000000000000     
  -3.0949999999999998E-002     0.0000000000000000     
  -3.0900000000000000E-002     0.0000000000000000     
  -3.0850000000000002E-002     0.0000000000000000     
  -3.0800000000000001E-002     0.0000000000000000     
  -3.0750000000000000E-002     0.0000000000000000     
  -3.0699999999999998E-002     0.0000000000000000     
  -3.0650000000000000E-002     0.0000000000000000     
  -3.0600000000000002E-002     0.0000000000000000     
  -3.0550000000000001E-002     0.0000000000000000     
  -3.0499999999999999E-002     0.0000000000000000     
  -3.0449999999999998E-002     0.0000000000000000     
  -3.0400000000000000E-002     0.0000000000000000     
  -3.0350000000000002E-002     0.0000000000000000     
  -3.0300000000000001E-002     0.0000000000000000     
  -3.0249999999999999E-002     0.0000000000000000     
  -3.0200000000000001E-002     0.0000000000000000     
  -3.0150000000000000E-002     0.0000000000000000     
  -3.0100000000000002E-002    -9.8724356299148303E-040
  -3.0050000000000000E-002    -2.4072178398767913E-039
  -2.9999999999999999E-002    -1.3633690973642076E-039
  -2.9950000000000001E-002     1.3493188023840121E-039
  -2.9899999999999999E-002     6.5501677077482932E-039
  -2.9850000000000002E-002     1.0256512382504552E-038
  -2.9800000000000000E-002     8.5575510774629151E-039
  -2.9749999999999999E-002     0.0000000000000000     
  -2.9700000000000001E-002    -1.5655912913907401E-038
  -2.9650000000000003E-002    -2.8301359282969784E-038
  -2.9600000000000001E-002    -2.3758926202204002E-038
  -2.9550000000000000E-002    -8.0162898301604140E-039
  -2.9499999999999998E-002     2.6848901402180067E-038
  -2.9450000000000000E-002     4.9454790255916381E-038
  -2.9400000000000003E-002     4.3512693406217362E-038
  -2.9350000000000001E-002    -1.8486537544586703E-038
  -2.9300000000000000E-002    -1.2225250512775476E-037
  -2.9249999999999998E-002    -2.0901068932235999E-037
  -2.9200000000000000E-002    -2.1183282654165355E-037
  -2.9150000000000002E-002    -3.1085425698662262E-038
  -2.9100000000000001E-002     3.3371129815907623E-037
  -2.9049999999999999E-002     8.0796507178175392E-037
  -2.8999999999999998E-002     1.1821835848835969E-036
  -2.8950000000000000E-002     1.1260663531869815E-036
  -2.8900000000000002E-002     3.4650065303479707E-037
  -2.8850000000000001E-002    -1.2634558692524875E-036
  -2.8799999999999999E-002    -3.4163480782396280E-036
  -2.8749999999999998E-002    -5.3164600053067729E-036
  -2.8700000000000000E-002    -5.7522241462221273E-036
  -2.8650000000000002E-002    -3.4805607347583911E-036
  -2.8600000000000000E-002     2.1316354730940700E-036
  -2.8549999999999999E-002     1.0386991181868696E-035
  -2.8500000000000001E-002     1.8806608973686588E-035
  -2.8450000000000000E-002     2.3332351601843759E-035
  -2.8400000000000002E-002     1.9447302919605894E-035
  -2.8350000000000000E-002     4.1517507467403339E-036
  -2.8299999999999999E-002    -2.1741415301767711E-035
  -2.8250000000000001E-002    -5.1964947527736816E-035
  -2.8200000000000003E-002    -7.4946979217358987E-035
  -2.8150000000000001E-002    -7.6570632887194975E-035
  -2.8100000000000000E-002    -4.5490868266536323E-035
  -2.8049999999999999E-002     2.0304513102229715E-035
  -2.8000000000000001E-002     1.0821014257205940E-034
  -2.7950000000000003E-002     1.9005704379281757E-034
  -2.7900000000000001E-002     2.2789585963663141E-034
  -2.7850000000000000E-002     1.8678727166227170E-034
  -2.7799999999999998E-002     5.1711188908958859E-035
  -2.7750000000000000E-002    -1.5746187019239542E-034
  -2.7700000000000002E-002    -3.8066000915736504E-034
  -2.7650000000000001E-002    -5.2841278573095787E-034
  -2.7600000000000000E-002    -5.1038556691417509E-034
  -2.7549999999999998E-002    -2.7566268938575668E-034
  -2.7500000000000000E-002     1.4913412968681579E-034
  -2.7450000000000002E-002     6.4246594801185751E-034
  -2.7400000000000001E-002     1.0076686543913276E-033
  -2.7349999999999999E-002     1.0356411457561113E-033
  -2.7299999999999998E-002     5.9838011600121408E-034
  -2.7250000000000000E-002    -2.5810800732174158E-034
  -2.7200000000000002E-002    -1.2656928007219307E-033
  -2.7150000000000001E-002    -1.9723394213139531E-033
  -2.7099999999999999E-002    -1.8851440907515376E-033
  -2.7049999999999998E-002    -6.9542102274659112E-034
  -2.7000000000000000E-002     1.4849679720864245E-033
  -2.6950000000000002E-002     3.9826328692123683E-033
  -2.6900000000000000E-002     5.6258624087061393E-033
  -2.6849999999999999E-002     5.0746507520959549E-033
  -2.6800000000000001E-002     1.3859852640809690E-033
  -2.6749999999999999E-002    -5.3375818775191222E-033
  -2.6700000000000002E-002    -1.3472726142516803E-032
  -2.6650000000000000E-002    -1.9866914822951537E-032
  -2.6599999999999999E-002    -2.0514832463702311E-032
  -2.6550000000000001E-002    -1.1936016069959115E-032
  -2.6500000000000003E-002     7.0249903558666833E-033
  -2.6450000000000001E-002     3.3557332742361597E-032
  -2.6400000000000000E-002     6.0169987678614838E-032
  -2.6349999999999998E-002     7.5620293503130679E-032
  -2.6300000000000000E-002     6.7828494142933245E-032
  -2.6250000000000002E-002     2.8454562975709454E-032
  -2.6200000000000001E-002    -4.2000233366569762E-032
  -2.6150000000000000E-002    -1.3039629919418181E-031
  -2.6099999999999998E-002    -2.1053556508957265E-031
  -2.6050000000000000E-002    -2.4770821190178701E-031
  -2.6000000000000002E-002    -2.0849020505474079E-031
  -2.5950000000000001E-002    -7.4133040310551995E-032
  -2.5899999999999999E-002     1.4617737069995391E-031
  -2.5849999999999998E-002     4.0734255961705594E-031
  -2.5800000000000000E-002     6.3078945759334530E-031
  -2.5750000000000002E-002     7.2045182612077753E-031
  -2.5700000000000001E-002     5.9144587831111654E-031
  -2.5649999999999999E-002     2.0544108521212087E-031
  -2.5599999999999998E-002    -3.9804193697867956E-031
  -2.5550000000000000E-002    -1.0875717454275456E-030
  -2.5500000000000002E-002    -1.6543909361057649E-030
  -2.5450000000000000E-002    -1.8603125407496143E-030
  -2.5399999999999999E-002    -1.5127041212776567E-030
  -2.5349999999999998E-002    -5.4803629074812080E-031
  -2.5300000000000000E-002     9.0396606375558828E-031
  -2.5250000000000002E-002     2.5054856003565383E-030
  -2.5200000000000000E-002     3.7661840902779804E-030
  -2.5149999999999999E-002     4.1705268063357509E-030
  -2.5100000000000001E-002     3.3516009902701487E-030
  -2.5049999999999999E-002     1.2608808824838658E-030
  -2.5000000000000001E-002    -1.7302451290960829E-030
  -2.4950000000000000E-002    -4.8543266167931727E-030
  -2.4899999999999999E-002    -7.1227561033216931E-030
  -2.4850000000000001E-002    -7.6264348272907020E-030
  -2.4800000000000003E-002    -5.8807958163084716E-030
  -2.4750000000000001E-002    -2.0935107634399379E-030
  -2.4700000000000000E-002     2.7700105181403745E-030
  -2.4649999999999998E-002     7.2016573750702599E-030
  -2.4600000000000000E-002     9.6320658025486273E-030
  -2.4550000000000002E-002     9.0499804503850877E-030
  -2.4500000000000001E-002     5.5358652774667827E-030
  -2.4450000000000000E-002     4.5624336461170784E-031
  -2.4399999999999998E-002    -3.8656324347863192E-030
  -2.4350000000000000E-002    -5.0161285524034454E-030
  -2.4299999999999999E-002    -1.6746164698589822E-030
  -2.4250000000000001E-002     5.3224988607118948E-030
  -2.4199999999999999E-002     1.2573865835993756E-029
  -2.4150000000000001E-002     1.4798648990100981E-029
  -2.4100000000000000E-002     6.7256939300454668E-030
  -2.4049999999999998E-002    -1.4198524919752232E-029
  -2.4000000000000000E-002    -4.5180874525831887E-029
  -2.3949999999999999E-002    -7.6747431810428286E-029
  -2.3900000000000001E-002    -9.3839817219582512E-029
  -2.3850000000000000E-002    -7.9885789431553809E-029
  -2.3800000000000002E-002    -2.3345321611339834E-029
  -2.3750000000000000E-002     7.4994654705679495E-029
  -2.3699999999999999E-002     1.9668501936863834E-028
  -2.3650000000000001E-002     3.0519573917626410E-028
  -2.3599999999999999E-002     3.5253123215680744E-028
  -2.3550000000000001E-002     2.9301697170129904E-028
  -2.3500000000000000E-002     1.0165646547579996E-028
  -2.3449999999999999E-002    -2.0823882784604083E-028
  -2.3400000000000001E-002    -5.7504983422862286E-028
  -2.3349999999999999E-002    -8.9292993028855101E-028
  -2.3300000000000001E-002    -1.0333977829811012E-027
  -2.3250000000000000E-002    -8.8260599938617230E-028
  -2.3199999999999998E-002    -3.8615978163591297E-028
  -2.3150000000000000E-002     4.1195441913824495E-028
  -2.3099999999999999E-002     1.3518870637376892E-027
  -2.3050000000000001E-002     2.1746504113891594E-027
  -2.3000000000000000E-002     2.5776724307879801E-027
  -2.2950000000000002E-002     2.3016947130054001E-027
  -2.2900000000000000E-002     1.2286097632022856E-027
  -2.2849999999999999E-002    -5.3958366069604758E-028
  -2.2800000000000001E-002    -2.6522294409668744E-027
  -2.2749999999999999E-002    -4.5547598010976510E-027
  -2.2700000000000001E-002    -5.6110176776279463E-027
  -2.2650000000000000E-002    -5.2827046287506143E-027
  -2.2599999999999999E-002    -3.3216368928041985E-027
  -2.2550000000000001E-002     8.4237114436051763E-029
  -2.2499999999999999E-002     4.2685454223206700E-027
  -2.2450000000000001E-002     8.1844371263004864E-027
  -2.2400000000000000E-002     1.0641634540309659E-026
  -2.2349999999999998E-002     1.0636239931153338E-026
  -2.2300000000000000E-002     7.6876769085966264E-027
  -2.2249999999999999E-002     2.0782603832226774E-027
  -2.2200000000000001E-002    -5.0973617082856912E-027
  -2.2150000000000000E-002    -1.2121180212590855E-026
  -2.2100000000000002E-002    -1.7059203697787461E-026
  -2.2050000000000000E-002    -1.8293687162251117E-026
  -2.1999999999999999E-002    -1.5031798742211463E-026
  -2.1950000000000001E-002    -7.6278638400251119E-027
  -2.1899999999999999E-002     2.4056532308861368E-027
  -2.1850000000000001E-002     1.2737678157444588E-026
  -2.1800000000000000E-002     2.0835980484793243E-026
  -2.1749999999999999E-002     2.4687467472458485E-026
  -2.1700000000000001E-002     2.3390585913969286E-026
  -2.1649999999999999E-002     1.7408222963590059E-026
  -2.1600000000000001E-002     8.3685015449619756E-027
  -2.1550000000000000E-002    -1.5435678817108839E-027
  -2.1499999999999998E-002    -1.0397294912064744E-026
  -2.1450000000000000E-002    -1.7214774404781341E-026
  -2.1399999999999999E-002    -2.2238872705634555E-026
  -2.1350000000000001E-002    -2.6581514232871492E-026
  -2.1299999999999999E-002    -3.1299162820057680E-026
  -2.1250000000000002E-002    -3.6216197434388008E-026
  -2.1200000000000000E-002    -3.9025346050714454E-026
  -2.1149999999999999E-002    -3.5234825047308387E-026
  -2.1100000000000001E-002    -1.9340385481160983E-026
  -2.1049999999999999E-002     1.2812480168076412E-026
  -2.1000000000000001E-002     6.1045729536731679E-026
  -2.0950000000000000E-002     1.1829591989737609E-025
  -2.0899999999999998E-002     1.6976219417406746E-025
  -2.0850000000000000E-002     1.9481952647963054E-025
  -2.0799999999999999E-002     1.7207181063839865E-025
  -2.0750000000000001E-002     8.6855254161396673E-026
  -2.0700000000000000E-002    -6.0659721962685774E-026
  -2.0649999999999998E-002    -2.4948431174006619E-025
  -2.0600000000000000E-002    -4.3682735186420559E-025
  -2.0549999999999999E-002    -5.6419541324609587E-025
  -2.0500000000000001E-002    -5.7088338858277527E-025
  -2.0449999999999999E-002    -4.1274806432664199E-025
  -2.0400000000000001E-002    -8.1733613984836555E-026
  -2.0350000000000000E-002     3.7998484963629393E-025
  -2.0299999999999999E-002     8.7741043877468655E-025
  -2.0250000000000001E-002     1.2758825627632359E-024
  -2.0199999999999999E-002     1.4303119323439316E-024
  -2.0150000000000001E-002     1.2258279919260622E-024
  -2.0100000000000000E-002     6.2037010240314234E-025
  -2.0049999999999998E-002    -3.2329437218949447E-025
  -2.0000000000000000E-002    -1.4285211777772695E-024
  -1.9949999999999999E-002    -2.4271376173682818E-024
  -1.9900000000000001E-002    -3.0141250605109796E-024
  -1.9850000000000000E-002    -2.9260723388531862E-024
  -1.9799999999999998E-002    -2.0258201099317099E-024
  -1.9750000000000000E-002    -3.7000511855107650E-025
  -1.9699999999999999E-002     1.7637508927785960E-024
  -1.9650000000000001E-002     3.9063353686746304E-024
  -1.9599999999999999E-002     5.4865115494664936E-024
  -1.9550000000000001E-002     5.9667385333442814E-024
  -1.9500000000000000E-002     4.9961653550275175E-024
  -1.9449999999999999E-002     2.5412336267044064E-024
  -1.9400000000000001E-002    -1.0464025800213127E-024
  -1.9349999999999999E-002    -5.0542702728733895E-024
  -1.9300000000000001E-002    -8.5345831884601275E-024
  -1.9250000000000000E-002    -1.0513018576935582E-023
  -1.9199999999999998E-002    -1.0237282322556506E-023
  -1.9150000000000000E-002    -7.4047682023354809E-024
  -1.9099999999999999E-002    -2.3058877733775992E-024
  -1.9050000000000001E-002     4.1658489125525285E-024
  -1.9000000000000000E-002     1.0656211416004393E-023
  -1.8949999999999998E-002     1.5625915246030779E-023
  -1.8900000000000000E-002     1.7703143316565556E-023
  -1.8849999999999999E-002     1.6030951818436080E-023
  -1.8800000000000001E-002     1.0521911443964860E-023
  -1.8749999999999999E-002     1.9498061682746866E-024
  -1.8700000000000001E-002    -8.1544973407339619E-024
  -1.8650000000000000E-002    -1.7787725076366795E-023
  -1.8599999999999998E-002    -2.4878479420053108E-023
  -1.8550000000000001E-002    -2.7719478106640467E-023
  -1.8499999999999999E-002    -2.5329846416509053E-023
  -1.8450000000000001E-002    -1.7669347439688468E-023
  -1.8400000000000000E-002    -5.6666147920554087E-024
  -1.8349999999999998E-002     8.9291046656425213E-024
  -1.8300000000000000E-002     2.3823246349302109E-023
  -1.8249999999999999E-002     3.6509226830476102E-023
  -1.8200000000000001E-002     4.4597099292638867E-023
  -1.8149999999999999E-002     4.6102520068773379E-023
  -1.8100000000000002E-002     3.9696037627961597E-023
  -1.8050000000000000E-002     2.4937734511056483E-023
  -1.7999999999999999E-002     2.5205010476334987E-024
  -1.7950000000000001E-002    -2.5489474792935142E-023
  -1.7899999999999999E-002    -5.5485162241275106E-023
  -1.7850000000000001E-002    -8.2354719990772706E-023
  -1.7800000000000000E-002    -9.9880793608225938E-023
  -1.7749999999999998E-002    -1.0163037437944625E-022
  -1.7700000000000000E-002    -8.2351756905508373E-023
  -1.7649999999999999E-002    -3.9717401088917636E-023
  -1.7600000000000001E-002     2.3953981666709843E-023
  -1.7550000000000000E-002     1.0052849341310618E-022
  -1.7499999999999998E-002     1.7602535407968699E-022
  -1.7450000000000000E-002     2.3218183384236373E-022
  -1.7399999999999999E-002     2.4975496074203009E-022
  -1.7350000000000001E-002     2.1322055716555095E-022
  -1.7299999999999999E-002     1.1599775631226569E-022
  -1.7250000000000001E-002    -3.5110813495029047E-023
  -1.7200000000000000E-002    -2.1775306044451251E-022
  -1.7149999999999999E-002    -3.9541300271476757E-022
  -1.7100000000000001E-002    -5.2298114306139918E-022
  -1.7049999999999999E-002    -5.5613693199683365E-022
  -1.7000000000000001E-002    -4.6300563793108121E-022
  -1.6950000000000000E-002    -2.3552299456501009E-022
  -1.6899999999999998E-002     1.0261814929190939E-022
  -1.6850000000000000E-002     4.9439086057009675E-022
  -1.6799999999999999E-002     8.5614555009302807E-022
  -1.6750000000000001E-002     1.0927366755607563E-021
  -1.6700000000000000E-002     1.1189705565935175E-021
  -1.6649999999999998E-002     8.8315475599624131E-022
  -1.6600000000000000E-002     3.8709451463960957E-022
  -1.6549999999999999E-002    -3.0333667424636488E-022
  -1.6500000000000001E-002    -1.0616250640127205E-021
  -1.6449999999999999E-002    -1.7198763930926972E-021
  -1.6400000000000001E-002    -2.1020135372156108E-021
  -1.6350000000000000E-002    -2.0651189586234447E-021
  -1.6299999999999999E-002    -1.5400588626436252E-021
  -1.6250000000000001E-002    -5.6119458356333216E-022
  -1.6199999999999999E-002     7.2395072499641838E-022
  -1.6150000000000001E-002     2.0706832448701992E-021
  -1.6100000000000000E-002     3.1789363894678492E-021
  -1.6049999999999998E-002     3.7547376422935847E-021
  -1.6000000000000000E-002     3.5795506186736444E-021
  -1.5949999999999999E-002     2.5721779367681800E-021
  -1.5900000000000001E-002     8.2765428753512486E-022
  -1.5850000000000000E-002    -1.3789769358116213E-021
  -1.5799999999999998E-002    -3.6293613035750437E-021
  -1.5750000000000000E-002    -5.4356004497128477E-021
  -1.5699999999999999E-002    -6.3387926753841842E-021
  -1.5650000000000001E-002    -6.0131466326796207E-021
  -1.5599999999999999E-002    -4.3533089474094192E-021
  -1.5550000000000001E-002    -1.5241516348704115E-021
  -1.5500000000000000E-002     2.0414111601628041E-021
  -1.5449999999999998E-002     5.7010384131537400E-021
  -1.5400000000000000E-002     8.7109725041820018E-021
  -1.5349999999999999E-002     1.0365698200416682E-020
  -1.5300000000000001E-002     1.0143954144875284E-020
  -1.5250000000000000E-002     7.8329684395815021E-021
  -1.5199999999999998E-002     3.6053418898138103E-021
  -1.5150000000000000E-002    -1.9695650151007188E-021
  -1.5099999999999999E-002    -7.9870631675120906E-021
  -1.5050000000000001E-002    -1.3336416527848205E-020
  -1.4999999999999999E-002    -1.6881346926727160E-020
  -1.4949999999999998E-002    -1.7665837170698118E-020
  -1.4900000000000000E-002    -1.5113466673709748E-020
  -1.4849999999999999E-002    -9.1868019896592543E-021
  -1.4800000000000001E-002    -4.7572694202890481E-022
  -1.4749999999999999E-002     9.8099024058109669E-021
  -1.4700000000000001E-002     1.9957436075780071E-020
  -1.4650000000000000E-002     2.7978431036873506E-020
  -1.4599999999999998E-002     3.1927973698173935E-020
  -1.4550000000000000E-002     3.0279521332867723E-020
  -1.4499999999999999E-002     2.2299562911696261E-020
  -1.4450000000000001E-002     8.3519171143135724E-021
  -1.4400000000000000E-002    -9.9438448834305617E-021
  -1.4349999999999998E-002    -2.9767195596537227E-020
  -1.4300000000000000E-002    -4.7406552195998867E-020
  -1.4249999999999999E-002    -5.8823709362339478E-020
  -1.4200000000000001E-002    -6.0417118691479967E-020
  -1.4149999999999999E-002    -4.9869458520789880E-020
  -1.4099999999999998E-002    -2.6916058953101642E-020
  -1.4050000000000000E-002     6.1535269322137915E-021
  -1.3999999999999999E-002     4.4435263693188821E-020
  -1.3950000000000001E-002     8.0907799719061878E-020
  -1.3899999999999999E-002     1.0750315947260047E-019
  -1.3850000000000001E-002     1.1663843896913733E-019
  -1.3800000000000000E-002     1.0296442938070944E-019
  -1.3749999999999998E-002     6.4982403281884589E-020
  -1.3700000000000000E-002     6.1363992427653097E-021
  -1.3649999999999999E-002    -6.4973019539970250E-020
  -1.3600000000000001E-002    -1.3547722503891476E-019
  -1.3550000000000000E-002    -1.9024432596117178E-019
  -1.3499999999999998E-002    -2.1476111573995522E-019
  -1.3450000000000000E-002    -1.9840661663532050E-019
  -1.3399999999999999E-002    -1.3745494477313441E-019
  -1.3350000000000001E-002    -3.7087745102523749E-020
  -1.3299999999999999E-002     8.8202458272775510E-020
  -1.3249999999999998E-002     2.1617728114560479E-019
  -1.3200000000000000E-002     3.2036151803603826E-019
  -1.3149999999999998E-002     3.7503383182635463E-019
  -1.3100000000000001E-002     3.6083468586705884E-019
  -1.3049999999999999E-002     2.6986226357268231E-019
  -1.3000000000000001E-002     1.0907581290050755E-019
  -1.2950000000000000E-002    -9.8970152191073168E-020
  -1.2899999999999998E-002    -3.1858971109070040E-019
  -1.2850000000000000E-002    -5.0653541251448703E-019
  -1.2799999999999999E-002    -6.1990449538556564E-019