  -4.0000000000000001E-002     0.0000000000000000     
  -3.9949999999999999E-002     0.0000000000000000     
  -3.9899999999999998E-002     0.0000000000000000     
  -3.9850000000000003E-002     0.0000000000000000     
  -3.9800000000000002E-002     0.0000000000000000     
  -3.9750000000000001E-002     0.0000000000000000     
  -3.9699999999999999E-002     0.0000000000000000     
  -3.9649999999999998E-002     0.0000000000000000     
  -3.9600000000000003E-002     0.0000000000000000     
  -3.9550000000000002E-002     0.0000000000000000     
  -3.9500000000000000E-002     0.0000000000000000     
  -3.9449999999999999E-002     0.0000000000000000     
  -3.9399999999999998E-002     0.0000000000000000     
  -3.9350000000000003E-002     0.0000000000000000     
  -3.9300000000000002E-002     0.0000000000000000     
  -3.9250000000000000E-002     0.0000000000000000     
  -3.9199999999999999E-002     0.0000000000000000     
  -3.9150000000000004E-002     0.0000000000000000     
  -3.9100000000000003E-002     0.0000000000000000     
  -3.9050000000000001E-002     0.0000000000000000     
  -3.9000000000000000E-002     0.0000000000000000     
  -3.8949999999999999E-002     0.0000000000000000     
  -3.8900000000000004E-002     0.0000000000000000     
  -3.8850000000000003E-002     0.0000000000000000     
  -3.8800000000000001E-002     0.0000000000000000     
  -3.8750000000000000E-002     0.0000000000000000     
  -3.8699999999999998E-002     0.0000000000000000     
  -3.8650000000000004E-002     0.0000000000000000     
  -3.8600000000000002E-002     0.0000000000000000     
  -3.8550000000000001E-002     0.0000000000000000     
  -3.8500000000000000E-002     0.0000000000000000     
  -3.8449999999999998E-002     0.0000000000000000     
  -3.8400000000000004E-002     0.0000000000000000     
  -3.8350000000000002E-002     0.0000000000000000     
  -3.8300000000000001E-002     0.0000000000000000     
  -3.8249999999999999E-002     0.0000000000000000     
  -3.8199999999999998E-002     0.0000000000000000     
  -3.8150000000000003E-002     0.0000000000000000     
  -3.8100000000000002E-002     0.0000000000000000     
  -3.8050000000000000E-002     0.0000000000000000     
  -3.7999999999999999E-002     0.0000000000000000     
  -3.7949999999999998E-002     0.0000000000000000     
  -3.7900000000000003E-002     0.0000000000000000     
  -3.7850000000000002E-002     0.0000000000000000     
  -3.7800000000000000E-002     0.0000000000000000     
  -3.7749999999999999E-002     0.0000000000000000     
  -3.7699999999999997E-002     0.0000000000000000     
  -3.7650000000000003E-002     0.0000000000000000     
  -3.7600000000000001E-002     0.0000000000000000     
  -3.7550000000000000E-002     0.0000000000000000     
  -3.7499999999999999E-002     0.0000000000000000     
  -3.7449999999999997E-002     0.0000000000000000     
  -3.7400000000000003E-002     0.0000000000000000     
  -3.7350000000000001E-002     0.0000000000000000     
  -3.7300000000000000E-002     0.0000000000000000     
  -3.7249999999999998E-002     0.0000000000000000     
  -3.7200000000000004E-002     0.0000000000000000     
  -3.7150000000000002E-002     0.0000000000000000     
  -3.7100000000000001E-002     0.0000000000000000     
  -3.7050000000000000E-002     0.0000000000000000     
  -3.6999999999999998E-002     0.0000000000000000     
  -3.6950000000000004E-002     0.0000000000000000     
  -3.6900000000000002E-002     0.0000000000000000     
  -3.6850000000000001E-002     0.0000000000000000     
  -3.6799999999999999E-002     0.0000000000000000     
  -3.6749999999999998E-002     0.0000000000000000     
  -3.6700000000000003E-002     0.0000000000000000     
  -3.6650000000000002E-002     0.0000000000000000     
  -3.6600000000000001E-002     0.0000000000000000     
  -3.6549999999999999E-002     0.0000000000000000     
  -3.6499999999999998E-002     0.0000000000000000     
  -3.6450000000000003E-002     0.0000000000000000     
  -3.6400000000000002E-002     0.0000000000000000     
  -3.6350000000000000E-002     0.0000000000000000     
  -3.6299999999999999E-002     0.0000000000000000     
  -3.6249999999999998E-002     0.0000000000000000     
  -3.6200000000000003E-002     0.0000000000000000     
  -3.6150000000000002E-002     0.0000000000000000     
  -3.6100000000000000E-002     0.0000000000000000     
  -3.6049999999999999E-002     0.0000000000000000     
  -3.6000000000000004E-002     0.0000000000000000     
  -3.5950000000000003E-002     0.0000000000000000     
  -3.5900000000000001E-002     0.0000000000000000     
  -3.5850000000000000E-002     0.0000000000000000     
  -3.5799999999999998E-002     0.0000000000000000     
  -3.5750000000000004E-002     0.0000000000000000     
  -3.5700000000000003E-002     0.0000000000000000     
  -3.5650000000000001E-002     0.0000000000000000     
  -3.5600000000000000E-002     0.0000000000000000     
  -3.5549999999999998E-002     0.0000000000000000     
  -3.5500000000000004E-002     0.0000000000000000     
  -3.5450000000000002E-002     0.0000000000000000     
  -3.5400000000000001E-002     0.0000000000000000     
  -3.5349999999999999E-002     0.0000000000000000     
  -3.5299999999999998E-002     0.0000000000000000     
  -3.5250000000000004E-002     0.0000000000000000     
  -3.5200000000000002E-002     0.0000000000000000     
  -3.5150000000000001E-002     0.0000000000000000     
  -3.5099999999999999E-002     0.0000000000000000     
  -3.5049999999999998E-002     0.0000000000000000     
  -3.5000000000000003E-002     0.0000000000000000     
  -3.4950000000000002E-002     0.0000000000000000     
  -3.4900000000000000E-002     0.0000000000000000     
  -3.4849999999999999E-002     0.0000000000000000     
  -3.4799999999999998E-002     0.0000000000000000     
  -3.4750000000000003E-002     0.0000000000000000     
  -3.4700000000000002E-002     0.0000000000000000     
  -3.4650000000000000E-002     0.0000000000000000     
  -3.4599999999999999E-002     0.0000000000000000     
  -3.4549999999999997E-002     0.0000000000000000     
  -3.4500000000000003E-002     0.0000000000000000     
  -3.4450000000000001E-002     0.0000000000000000     
  -3.4400000000000000E-002     0.0000000000000000     
  -3.4349999999999999E-002     0.0000000000000000     
  -3.4299999999999997E-002     0.0000000000000000     
  -3.4250000000000003E-002     0.0000000000000000     
  -3.4200000000000001E-002     0.0000000000000000     
  -3.4150000000000000E-002     0.0000000000000000     
  -3.4099999999999998E-002     0.0000000000000000     
  -3.4049999999999997E-002     0.0000000000000000     
  -3.4000000000000002E-002     0.0000000000000000     
  -3.3950000000000001E-002     0.0000000000000000     
  -3.3900000000000000E-002     0.0000000000000000     
  -3.3849999999999998E-002     0.0000000000000000     
  -3.3799999999999997E-002     0.0000000000000000     
  -3.3750000000000002E-002     0.0000000000000000     
  -3.3700000000000001E-002     0.0000000000000000     
  -3.3649999999999999E-002     0.0000000000000000     
  -3.3599999999999998E-002     0.0000000000000000     
  -3.3550000000000003E-002     0.0000000000000000     
  -3.3500000000000002E-002     0.0000000000000000     
  -3.3450000000000001E-002     0.0000000000000000     
  -3.3399999999999999E-002     0.0000000000000000     
  -3.3349999999999998E-002     0.0000000000000000     
  -3.3300000000000003E-002     0.0000000000000000     
  -3.3250000000000002E-002     0.0000000000000000     
  -3.3200000000000000E-002     0.0000000000000000     
  -3.3149999999999999E-002     0.0000000000000000     
  -3.3099999999999997E-002     0.0000000000000000     
  -3.3050000000000003E-002     0.0000000000000000     
  -3.3000000000000002E-002     0.0000000000000000     
  -3.2950000000000000E-002     0.0000000000000000     
  -3.2899999999999999E-002     0.0000000000000000     
  -3.2850000000000004E-002     0.0000000000000000     
  -3.2800000000000003E-002     0.0000000000000000     
  -3.2750000000000001E-002     0.0000000000000000     
  -3.2700000000000000E-002     0.0000000000000000     
  -3.2649999999999998E-002     0.0000000000000000     
  -3.2600000000000004E-002     0.0000000000000000     
  -3.2550000000000003E-002     0.0000000000000000     
  -3.2500000000000001E-002     0.0000000000000000     
  -3.2450000000000000E-002     0.0000000000000000     
  -3.2399999999999998E-002     0.0000000000000000     
  -3.2350000000000004E-002     0.0000000000000000     
  -3.2300000000000002E-002     0.0000000000000000     
  -3.2250000000000001E-002     0.0000000000000000     
  -3.2199999999999999E-002     0.0000000000000000     
  -3.2149999999999998E-002     0.0000000000000000     
  -3.2100000000000004E-002     0.0000000000000000     
  -3.2050000000000002E-002     0.0000000000000000     
  -3.2000000000000001E-002     0.0000000000000000     
  -3.1949999999999999E-002     0.0000000000000000     
  -3.1899999999999998E-002     0.0000000000000000     
  -3.1850000000000003E-002     0.0000000000000000     
  -3.1800000000000002E-002     0.0000000000000000     
  -3.1750000000000000E-002     0.0000000000000000     
  -3.1699999999999999E-002     0.0000000000000000     
  -3.1649999999999998E-002     0.0000000000000000     
  -3.1600000000000003E-002     0.0000000000000000     
  -3.1550000000000002E-002     0.0000000000000000     
  -3.1500000000000000E-002     0.0000000000000000     
  -3.1449999999999999E-002     0.0000000000000000     
  -3.1399999999999997E-002     0.0000000000000000     
  -3.1350000000000003E-002     0.0000000000000000     
  -3.1300000000000001E-002     0.0000000000000000     
  -3.1250000000000000E-002     0.0000000000000000     
  -3.1199999999999999E-002     0.0000000000000000     
  -3.1150000000000001E-002     0.0000000000000000     
  -3.1100000000000003E-002     0.0000000000000000     
  -3.1050000000000001E-002     0.0000000000000000     
  -3.1000000000000000E-002     0.0000000000000000     
  -3.0949999999999998E-002     0.0000000000000000     
  -3.0900000000000000E-002     0.0000000000000000     
  -3.0850000000000002E-002     0.0000000000000000     
  -3.0800000000000001E-002     0.0000000000000000     
  -3.0750000000000000E-002     0.0000000000000000     
  -3.0699999999999998E-002     0.0000000000000000     
  -3.0650000000000000E-002     0.0000000000000000     
  -3.0600000000000002E-002     0.0000000000000000     
  -3.0550000000000001E-002     0.0000000000000000     
  -3.0499999999999999E-002     0.0000000000000000     
  -3.0449999999999998E-002     0.0000000000000000     
  -3.0400000000000000E-002     0.0000000000000000     
  -3.0350000000000002E-002     0.0000000000000000     
  -3.0300000000000001E-002     0.0000000000000000     
  -3.0249999999999999E-002     0.0000000000000000     
  -3.0200000000000001E-002     0.0000000000000000     
  -3.0150000000000000E-002     0.0000000000000000     
  -3.0100000000000002E-002     0.0000000000000000     
  -3.0050000000000000E-002     0.0000000000000000     
  -2.9999999999999999E-002     0.0000000000000000     
  -2.9950000000000001E-002     0.0000000000000000     
  -2.9899999999999999E-002     0.0000000000000000     
  -2.9850000000000002E-002     0.0000000000000000     
  -2.9800000000000000E-002     0.0000000000000000     
  -2.9749999999999999E-002     0.0000000000000000     
  -2.9700000000000001E-002     0.0000000000000000     
  -2.9650000000000003E-002     0.0000000000000000     
  -2.9600000000000001E-002     0.0000000000000000     
  -2.9550000000000000E-002     0.0000000000000000     
  -2.9499999999999998E-002     0.0000000000000000     
  -2.9450000000000000E-002     0.0000000000000000     
  -2.9400000000000003E-002     0.0000000000000000     
  -2.9350000000000001E-002     0.0000000000000000     
  -2.9300000000000000E-002     0.0000000000000000     
  -2.9249999999999998E-002     0.0000000000000000     
  -2.9200000000000000E-002     0.0000000000000000     
  -2.9150000000000002E-002     0.0000000000000000     
  -2.9100000000000001E-002     0.0000000000000000     
  -2.9049999999999999E-002     0.0000000000000000     
  -2.8999999999999998E-002     0.0000000000000000     
  -2.8950000000000000E-002     0.0000000000000000     
  -2.8900000000000002E-002     0.0000000000000000     
  -2.8850000000000001E-002     0.0000000000000000     
  -2.8799999999999999E-002     0.0000000000000000     
  -2.8749999999999998E-002     0.0000000000000000     
  -2.8700000000000000E-002     0.0000000000000000     
  -2.8650000000000002E-002     0.0000000000000000     
  -2.8600000000000000E-002     0.0000000000000000     
  -2.8549999999999999E-002     0.0000000000000000     
  -2.8500000000000001E-002     0.0000000000000000     
  -2.8450000000000000E-002     0.0000000000000000     
  -2.8400000000000002E-002     0.0000000000000000     
  -2.8350000000000000E-002     0.0000000000000000     
  -2.8299999999999999E-002     0.0000000000000000     
  -2.8250000000000001E-002     0.0000000000000000     
  -2.8200000000000003E-002     0.0000000000000000     
  -2.8150000000000001E-002     0.0000000000000000     
  -2.8100000000000000E-002     0.0000000000000000     
  -2.8049999999999999E-002     0.0000000000000000     
  -2.8000000000000001E-002     0.0000000000000000     
  -2.7950000000000003E-002     0.0000000000000000     
  -2.7900000000000001E-002     0.0000000000000000     
  -2.7850000000000000E-002     0.0000000000000000     
  -2.7799999999999998E-002     0.0000000000000000     
  -2.7750000000000000E-002     0.0000000000000000     
  -2.7700000000000002E-002     0.0000000000000000     
  -2.7650000000000001E-002     0.0000000000000000     
  -2.7600000000000000E-002     0.0000000000000000     
  -2.7549999999999998E-002     0.0000000000000000     
  -2.7500000000000000E-002     0.0000000000000000     
  -2.7450000000000002E-002     0.0000000000000000     
  -2.7400000000000001E-002     0.0000000000000000     
  -2.7349999999999999E-002     0.0000000000000000     
  -2.7299999999999998E-002     0.0000000000000000     
  -2.7250000000000000E-002     0.0000000000000000     
  -2.7200000000000002E-002     0.0000000000000000     
  -2.7150000000000001E-002     0.0000000000000000     
  -2.7099999999999999E-002     3.9244728100781048E-040
  -2.7049999999999998E-002     7.9888182731191578E-040
  -2.7000000000000000E-002     3.8000959399546567E-040
  -2.6950000000000002E-002    -9.9145889806999816E-040
  -2.6900000000000000E-002    -2.3267083950701854E-039
  -2.6849999999999999E-002    -2.3920872327903534E-039
  -2.6800000000000001E-002    -8.7505583792751717E-040
  -2.6749999999999999E-002     1.5511433233770757E-039
  -2.6700000000000002E-002     3.7473867063936327E-039
  -2.6650000000000000E-002     4.0934662304025402E-039
  -2.6599999999999999E-002     2.9506751842427282E-039
  -2.6550000000000001E-002     5.7290932106816585E-040
  -2.6500000000000003E-002    -2.5859148819116127E-039
  -2.6450000000000001E-002    -7.3899407933494388E-039
  -2.6400000000000000E-002    -1.2295280195484417E-038
  -2.6349999999999998E-002    -1.4445449647643810E-038
  -2.6300000000000000E-002    -3.0696985610248329E-039
  -2.6250000000000002E-002     2.5963447928274738E-038
  -2.6200000000000001E-002     3.6786939898421237E-038
  -2.6150000000000000E-002     1.6623408183993305E-038
  -2.6099999999999998E-002    -1.3160100230948211E-038
  -2.6050000000000000E-002    -4.0579356790827825E-038
  -2.6000000000000002E-002    -6.1319684637423115E-038
  -2.5950000000000001E-002    -6.3817516552591110E-038
  -2.5899999999999999E-002    -7.7886148293274247E-038
  -2.5849999999999998E-002    -1.1264406254912570E-037
  -2.5800000000000000E-002    -1.3367356513778136E-037
  -2.5750000000000002E-002    -7.6648254208345853E-038
  -2.5700000000000001E-002     1.1508854139161459E-037
  -2.5649999999999999E-002     4.2181162285883494E-037
  -2.5599999999999998E-002     7.2437705580889753E-037
  -2.5550000000000000E-002     8.4471251110003096E-037
  -2.5500000000000002E-002     6.2703338357980660E-037
  -2.5450000000000000E-002     2.6345581491125633E-038
  -2.5399999999999999E-002    -8.8259109771929041E-037
  -2.5349999999999998E-002    -1.8871563402299356E-036
  -2.5300000000000000E-002    -2.6678731037279552E-036
  -2.5250000000000002E-002    -2.8242901417899441E-036
  -2.5200000000000000E-002    -1.9692183248900087E-036
  -2.5149999999999999E-002     1.0153156894632410E-037
  -2.5100000000000001E-002     3.2057147450766031E-036
  -2.5049999999999999E-002     6.6150086382945242E-036
  -2.5000000000000001E-002     9.1055376035757378E-036
  -2.4950000000000000E-002     9.2656285350886731E-036
  -2.4899999999999999E-002     6.0199458767083824E-036
  -2.4850000000000001E-002    -8.0619887127962652E-037
  -2.4800000000000003E-002    -1.0100116600778458E-035
  -2.4750000000000001E-002    -1.9438700470944176E-035
  -2.4700000000000000E-002    -2.5530449136775321E-035
  -2.4649999999999998E-002    -2.5106474918285197E-035
  -2.4600000000000000E-002    -1.6093258029875140E-035
  -2.4550000000000002E-002     1.2580646307860689E-036
  -2.4500000000000001E-002     2.3730724752233973E-035
  -2.4450000000000000E-002     4.5408615798810340E-035
  -2.4399999999999998E-002     5.9039964220563171E-035
  -2.4350000000000000E-002     5.8280448633149105E-035
  -2.4299999999999999E-002     4.0149621916975933E-035
  -2.4250000000000001E-002     6.7585141302943597E-036
  -2.4199999999999999E-002    -3.4559487884478702E-035
  -2.4150000000000001E-002    -7.3109096273126463E-035
  -2.4100000000000000E-002    -9.8307590525649789E-035
  -2.4049999999999998E-002    -1.0358993424646600E-034
  -2.4000000000000000E-002    -8.9055960785154682E-035
  -2.3949999999999999E-002    -6.1299994838388498E-035
  -2.3900000000000001E-002    -2.9781322748732550E-035
  -2.3850000000000000E-002    -6.7808799988543475E-037
  -2.3800000000000002E-002     2.9098512522117837E-035
  -2.3750000000000000E-002     7.3979416376742652E-035
  -2.3699999999999999E-002     1.5458899524958592E-034
  -2.3650000000000001E-002     2.8445497613189948E-034
  -2.3599999999999999E-002     4.5171118746526023E-034
  -2.3550000000000001E-002     6.0335498614750924E-034
  -2.3500000000000000E-002     6.4241877444833800E-034
  -2.3449999999999999E-002     4.4746659778858120E-034
  -2.3400000000000001E-002    -8.2170004346997324E-035
  -2.3349999999999999E-002    -9.6262325949260169E-034
  -2.3300000000000001E-002    -2.0628992226725557E-033
  -2.3250000000000000E-002    -3.0728379948018881E-033
  -2.3199999999999998E-002    -3.5321742611972081E-033
  -2.3150000000000000E-002    -2.9396417060860069E-033
  -2.3099999999999999E-002    -9.3597337281446212E-034
  -2.3050000000000001E-002     2.4791436445083066E-033
  -2.3000000000000000E-002     6.7681993528255782E-033
  -2.2950000000000002E-002     1.0803573872460664E-032
  -2.2900000000000000E-002     1.3018209662644884E-032
  -2.2849999999999999E-002     1.1788375195706617E-032
  -2.2800000000000001E-002     6.0003678934943189E-033
  -2.2749999999999999E-002    -4.3355868016169822E-033
  -2.2700000000000001E-002    -1.7630946918395119E-032
  -2.2650000000000000E-002    -3.0648852959915608E-032
  -2.2599999999999999E-002    -3.8984851554773225E-032
  -2.2550000000000001E-002    -3.8125317201692591E-032
  -2.2499999999999999E-002    -2.4915070517908585E-032
  -2.2450000000000001E-002     9.3239918067241028E-034
  -2.2400000000000000E-002     3.5779095109160076E-032
  -2.2349999999999998E-002     7.1953667422877765E-032
  -2.2300000000000000E-002     9.8906937385499671E-032
  -2.2249999999999999E-002     1.0561695660739535E-031
  -2.2200000000000001E-002     8.3814831460897033E-032
  -2.2150000000000000E-002     3.1228484225546355E-032
  -2.2100000000000002E-002    -4.6155656699498771E-032
  -2.2050000000000000E-002    -1.3372729776243283E-031
  -2.1999999999999999E-002    -2.1029932835251240E-031
  -2.1950000000000001E-002    -2.5244643404004219E-031
  -2.1899999999999999E-002    -2.4030780085029704E-031
  -2.1850000000000001E-002    -1.6347524877550374E-031
  -2.1800000000000000E-002    -2.5391199257108227E-032
  -2.1749999999999999E-002     1.5505542074136953E-031
  -2.1700000000000001E-002     3.4537238779086826E-031
  -2.1649999999999999E-002     5.0450269603270190E-031
  -2.1600000000000001E-002     5.9002789551952555E-031
  -2.1550000000000000E-002     5.6608764406218555E-031
  -2.1499999999999998E-002     4.1066660356402584E-031
  -2.1450000000000000E-002     1.2141491096658781E-031
  -2.1399999999999999E-002    -2.8020449511140136E-031
  -2.1350000000000001E-002    -7.4634632411007566E-031
  -2.1299999999999999E-002    -1.2020421400851519E-030
  -2.1250000000000002E-002    -1.5475665235999289E-030
  -2.1200000000000000E-002    -1.6664428875624892E-030
  -2.1149999999999999E-002    -1.4422786764671679E-030
  -2.1100000000000001E-002    -7.8666288600495250E-031
  -2.1049999999999999E-002     3.2289063660137568E-031
  -2.1000000000000001E-002     1.8013631468781257E-030
  -2.0950000000000000E-002     3.4237107909369431E-030
  -2.0899999999999998E-002     4.8187982740649965E-030
  -2.0850000000000000E-002     5.5073975993562849E-030
  -2.0799999999999999E-002     4.9950290292596570E-030
  -2.0750000000000001E-002     2.9157841254635691E-030
  -2.0700000000000000E-002    -7.9704635014773683E-031
  -2.0649999999999998E-002    -5.7586470704954345E-030
  -2.0600000000000000E-002    -1.1057612615520281E-029
  -2.0549999999999999E-002    -1.5315851872805253E-029
  -2.0500000000000001E-002    -1.6919367193901885E-029
  -2.0449999999999999E-002    -1.4413171077380309E-029
  -2.0400000000000001E-002    -6.9971121169019228E-030
  -2.0350000000000000E-002     4.9963068666559832E-030
  -2.0299999999999999E-002     1.9797313173885428E-029
  -2.0250000000000001E-002     3.4220789531764794E-029
  -2.0199999999999999E-002     4.4116619029760492E-029
  -2.0150000000000001E-002     4.5250704133283552E-029
  -2.0100000000000000E-002     3.4488525560406503E-029
  -2.0049999999999998E-002     1.1023849370840585E-029
  -2.0000000000000000E-002    -2.2691940231902430E-029
  -1.9949999999999999E-002    -6.0672395997625569E-029
  -1.9900000000000001E-002    -9.4028435579606515E-029
  -1.9850000000000000E-002    -1.1257539414735772E-028
  -1.9799999999999998E-002    -1.0722053423042340E-028
  -1.9750000000000000E-002    -7.2673180113891992E-029
  -1.9699999999999999E-002    -9.8246967852125490E-030
  -1.9650000000000001E-002     7.2911411558566139E-029
  -1.9599999999999999E-002     1.5988627492195728E-028
  -1.9550000000000001E-002     2.3041389478486149E-028
  -1.9500000000000000E-002     2.6273375741950035E-028
  -1.9449999999999999E-002     2.3912058853011424E-028
  -1.9400000000000001E-002     1.5112885913064435E-028
  -1.9349999999999999E-002     3.7464352938634950E-030
  -1.9300000000000001E-002    -1.8272578484611093E-028
  -1.9250000000000000E-002    -3.7393421054678434E-028
  -1.9199999999999998E-002    -5.2619057908432604E-028
  -1.9150000000000000E-002    -5.9427689527627376E-028
  -1.9099999999999999E-002    -5.4126193667189623E-028
  -1.9050000000000001E-002    -3.4866571751801879E-028
  -1.9000000000000000E-002    -2.4935250135260201E-029
  -1.8949999999999998E-002     3.8986450075681784E-028
  -1.8900000000000000E-002     8.2496167735078196E-028
  -1.8849999999999999E-002     1.1865574765678146E-027
  -1.8800000000000001E-002     1.3724288344585066E-027
  -1.8749999999999999E-002     1.2922986097923132E-027
  -1.8700000000000001E-002     8.9130927710367514E-028
  -1.8650000000000000E-002     1.7245407577173986E-028
  -1.8599999999999998E-002    -7.8732753833054372E-028
  -1.8550000000000001E-002    -1.8330628896585868E-027
  -1.8499999999999999E-002    -2.7445371856014178E-027
  -1.8450000000000001E-002    -3.2685059010128667E-027
  -1.8400000000000000E-002    -3.1689937496119732E-027
  -1.8349999999999998E-002    -2.2893364170899269E-027
  -1.8300000000000000E-002    -6.1437510672394484E-028
  -1.8249999999999999E-002     1.6828422584337385E-027
  -1.8200000000000001E-002     4.2268002305842175E-027
  -1.8149999999999999E-002     6.4717715273758468E-027
  -1.8100000000000002E-002     7.7869866518934315E-027
  -1.8050000000000000E-002     7.5891073598771856E-027
  -1.7999999999999999E-002     5.5020416242776818E-027
  -1.7950000000000001E-002     1.5107546366538185E-027
  -1.7899999999999999E-002    -3.9326893425123725E-027
  -1.7850000000000001E-002    -9.8921729842482603E-027
  -1.7800000000000000E-002    -1.5049194321589417E-026
  -1.7749999999999998E-002    -1.7929628912123618E-026
  -1.7700000000000000E-002    -1.7230961149727262E-026
  -1.7649999999999999E-002    -1.2192417491769330E-026
  -1.7600000000000001E-002    -2.9244460657606836E-027
  -1.7550000000000000E-002     9.3969447019388423E-027
  -1.7499999999999998E-002     2.2553993586341362E-026
  -1.7450000000000000E-002     3.3576496225877643E-026
  -1.7399999999999999E-002     3.9287718355703077E-026
  -1.7350000000000001E-002     3.7031051169243438E-026
  -1.7299999999999999E-002     2.5438860246566570E-026
  -1.7250000000000001E-002     5.0637231802557359E-027
  -1.7200000000000000E-002    -2.1313461342989407E-026
  -1.7149999999999999E-002    -4.8844257785367532E-026
  -1.7100000000000001E-002    -7.1304974467785656E-026
  -1.7049999999999999E-002    -8.2267736502874211E-026
  -1.7000000000000001E-002    -7.6572218012403592E-026
  -1.6950000000000000E-002    -5.1812587145898366E-026
  -1.6899999999999998E-002    -9.4937584250481928E-027
  -1.6850000000000000E-002     4.4480281174235967E-026
  -1.6799999999999999E-002     1.0023419453336863E-025
  -1.6750000000000001E-002     1.4535166612346619E-025
  -1.6700000000000000E-002     1.6718288640112462E-025
  -1.6649999999999998E-002     1.5568141637085756E-025
  -1.6600000000000000E-002     1.0623590216879405E-025
  -1.6549999999999999E-002     2.1859153368502248E-026
  -1.6500000000000001E-002    -8.5884705230976938E-026
  -1.6449999999999999E-002    -1.9767865991573624E-025
  -1.6400000000000001E-002    -2.8915278486275778E-025
  -1.6350000000000000E-002    -3.3528001289638085E-025
  -1.6299999999999999E-002    -3.1584736428947313E-025
  -1.6250000000000001E-002    -2.2101863840425964E-025
  -1.6199999999999999E-002    -5.5775182772003351E-026
  -1.6150000000000001E-002     1.5799134415131857E-025
  -1.6100000000000000E-002     3.8271063562424817E-025
  -1.6049999999999998E-002     5.7014499188923162E-025
  -1.6000000000000000E-002     6.6989995357600125E-025
  -1.5949999999999999E-002     6.4030758633473345E-025
  -1.5900000000000001E-002     4.5976790905094256E-025
  -1.5850000000000000E-002     1.3608883623754560E-025
  -1.5799999999999998E-002    -2.8875036539167279E-025
  -1.5750000000000000E-002    -7.4054211994932531E-025
  -1.5699999999999999E-002    -1.1225923390918148E-024
  -1.5650000000000001E-002    -1.3328090071581359E-024
  -1.5599999999999999E-002    -1.2858825859060627E-024
  -1.5550000000000001E-002    -9.3658954240570658E-025
  -1.5500000000000000E-002    -2.9906975425949683E-025
  -1.5449999999999998E-002     5.4332106283756630E-025
  -1.5400000000000000E-002     1.4420172297319845E-024
  -1.5349999999999999E-002     2.2032867492165065E-024
  -1.5300000000000001E-002     2.6232081218259918E-024
  -1.5250000000000000E-002     2.5326951976778590E-024
  -1.5199999999999998E-002     1.8442150655151652E-024
  -1.5150000000000000E-002     5.8959768822146608E-025
  -1.5099999999999999E-002    -1.0618923593504592E-024
  -1.5050000000000001E-002    -2.8137101465322364E-024
  -1.4999999999999999E-002    -4.2840623124172125E-024
  -1.4949999999999998E-002    -5.0766829426134924E-024
  -1.4900000000000000E-002    -4.8697696284538407E-024
  -1.4849999999999999E-002    -3.5059978240525069E-024
  -1.4800000000000001E-002    -1.0627325581705421E-024
  -1.4749999999999999E-002     2.1180361448405206E-024
  -1.4700000000000001E-002     5.4552046405419161E-024
  -1.4650000000000000E-002     8.2147145028725627E-024
  -1.4599999999999998E-002     9.6484006473568152E-024
  -1.4550000000000000E-002     9.1636842422711737E-024
  -1.4499999999999999E-002     6.4908270201582463E-024
  -1.4450000000000001E-002     1.8085447347739600E-024
  -1.4400000000000000E-002    -4.2091147054179128E-024
  -1.4349999999999998E-002    -1.0450624011955973E-023
  -1.4300000000000000E-002    -1.5536359097592983E-023
  -1.4249999999999999E-002    -1.8081967129682803E-023
  -1.4200000000000001E-002    -1.7013327012139247E-023
  -1.4149999999999999E-002    -1.1870963930224738E-023
  -1.4099999999999998E-002    -3.0326239190021031E-024
  -1.4050000000000000E-002     8.2120572863665835E-024
  -1.3999999999999999E-002     1.9779450269534518E-023
  -1.3950000000000001E-002     2.9111960488040017E-023
  -1.3899999999999999E-002     3.3665777479061124E-023
  -1.3850000000000001E-002     3.1487919714254107E-023
  -1.3800000000000000E-002     2.1769445242995121E-023
  -1.3749999999999998E-002     5.2461886135443384E-024
  -1.3700000000000000E-002    -1.5671571763498573E-023
  -1.3649999999999999E-002    -3.7120557638208554E-023
  -1.3600000000000001E-002    -5.4373698799416627E-023
  -1.3550000000000000E-002    -6.2735009917818534E-023
  -1.3499999999999998E-002    -5.8598206606958874E-023
  -1.3450000000000000E-002    -4.0464176943904449E-023
  -1.3399999999999999E-002    -9.6824714614529500E-024
  -1.3350000000000001E-002     2.9300930930896506E-023
  -1.3299999999999999E-002     6.9339368580656937E-023
  -1.3249999999999998E-002     1.0166015349741587E-022
  -1.3200000000000000E-002     1.1750951639071241E-022
  -1.3149999999999998E-002     1.1011172789203715E-022
  -1.3100000000000001E-002     7.6566902427897103E-023
  -1.3049999999999999E-002     1.9253143131776202E-023
  -1.3000000000000001E-002    -5.3675410253955393E-023
  -1.2950000000000000E-002    -1.2898125478085795E-022
  -1.2899999999999998E-002    -1.9030418051250548E-022
  -1.2850000000000000E-002    -2.2119993981452531E-022
  -1.2799999999999999E-002    -2.0878977651334814E-022