  -4.0000000000000001E-002     0.0000000000000000     
  -3.9949999999999999E-002     0.0000000000000000     
  -3.9899999999999998E-002     0.0000000000000000     
  -3.9850000000000003E-002     0.0000000000000000     
  -3.9800000000000002E-002     0.0000000000000000     
  -3.9750000000000001E-002     0.0000000000000000     
  -3.9699999999999999E-002     0.0000000000000000     
  -3.9649999999999998E-002     0.0000000000000000     
  -3.9600000000000003E-002     0.0000000000000000     
  -3.9550000000000002E-002     0.0000000000000000     
  -3.9500000000000000E-002     0.0000000000000000     
  -3.9449999999999999E-002     0.0000000000000000     
  -3.9399999999999998E-002     0.0000000000000000     
  -3.9350000000000003E-002     0.0000000000000000     
  -3.9300000000000002E-002     0.0000000000000000     
  -3.9250000000000000E-002     0.0000000000000000     
  -3.9199999999999999E-002     0.0000000000000000     
  -3.9150000000000004E-002     0.0000000000000000     
  -3.9100000000000003E-002     0.0000000000000000     
  -3.9050000000000001E-002     0.0000000000000000     
  -3.9000000000000000E-002     0.0000000000000000     
  -3.8949999999999999E-002     0.0000000000000000     
  -3.8900000000000004E-002     0.0000000000000000     
  -3.8850000000000003E-002     0.0000000000000000     
  -3.8800000000000001E-002     0.0000000000000000     
  -3.8750000000000000E-002     0.0000000000000000     
  -3.8699999999999998E-002     0.0000000000000000     
  -3.8650000000000004E-002     0.0000000000000000     
  -3.8600000000000002E-002    -1.0855866749116951E-039
  -3.8550000000000001E-002    -2.1770266509328131E-039
  -3.8500000000000000E-002     5.4245011124202038E-039
  -3.8449999999999998E-002     3.7248009211590890E-038
  -3.8400000000000004E-002     1.1859768264945887E-037
  -3.8350000000000002E-002     2.3790378169050231E-037
  -3.8300000000000001E-002     2.5015201660590306E-037
  -3.8249999999999999E-002    -2.9026267439575078E-037
  -3.8199999999999998E-002    -2.3415695008726556E-036
  -3.8150000000000003E-002    -7.0441211277331981E-036
  -3.8100000000000002E-002    -1.3978456508242578E-035
  -3.8050000000000000E-002    -1.6954765658819920E-035
  -3.7999999999999999E-002     2.0242575317667595E-036
  -3.7949999999999998E-002     7.4780262903380000E-035
  -3.7900000000000003E-002     2.3032944304568546E-034
  -3.7850000000000002E-002     4.3844433582346125E-034
  -3.7800000000000000E-002     5.0433726831595841E-034
  -3.7749999999999999E-002    -3.9088682435414502E-035
  -3.7699999999999997E-002    -1.8823067738187276E-033
  -3.7650000000000003E-002    -5.4461415002767266E-033
  -3.7600000000000001E-002    -9.6643243508254072E-033
  -3.7550000000000000E-002    -1.0172149118460015E-032
  -3.7499999999999999E-002     1.9041665888662660E-033
  -3.7449999999999997E-002     3.7776893216778252E-032
  -3.7400000000000003E-002     1.0158990206536750E-031
  -3.7350000000000001E-002     1.7159377616649624E-031
  -3.7300000000000000E-002     1.7693946141021717E-031
  -3.7249999999999998E-002    -1.1095145270621865E-032
  -3.7200000000000004E-002    -5.3904393168216425E-031
  -3.7150000000000002E-002    -1.4447165245257143E-030
  -3.7100000000000001E-002    -2.4380490475477617E-030
  -3.7050000000000000E-002    -2.6684917560572222E-030
  -3.6999999999999998E-002    -6.8863997346974852E-031
  -3.6950000000000004E-002     5.0656737843521540E-030
  -3.6900000000000002E-002     1.5001656488293431E-029
  -3.6850000000000001E-002     2.6383557440861243E-029
  -3.6799999999999999E-002     3.1463659509207011E-029
  -3.6749999999999998E-002     1.7507195318886167E-029
  -3.6700000000000003E-002    -2.8959179928466514E-029
  -3.6650000000000002E-002    -1.1213013632027003E-028
  -3.6600000000000001E-002    -2.1257178104208608E-028
  -3.6549999999999999E-002    -2.7510632688018107E-028
  -3.6499999999999998E-002    -2.1089445284978672E-028
  -3.6450000000000003E-002     7.2734487029551747E-029
  -3.6400000000000002E-002     6.0854344781693787E-028
  -3.6350000000000000E-002     1.2851200102689471E-027
  -3.6299999999999999E-002     1.7839065083526991E-027
  -3.6249999999999998E-002     1.6034849278140960E-027
  -3.6200000000000003E-002     2.3472575080201233E-028
  -3.6150000000000002E-002    -2.5006722251854263E-027
  -3.6100000000000000E-002    -6.0410808069608271E-027
  -3.6049999999999999E-002    -8.8280373028647657E-027
  -3.6000000000000004E-002    -8.5058532619678621E-027
  -3.5950000000000003E-002    -2.8168186310015100E-027
  -3.5900000000000001E-002     8.8541264227616229E-027
  -3.5850000000000000E-002     2.3811488002958183E-026
  -3.5799999999999998E-002     3.5276913395993533E-026
  -3.5750000000000004E-002     3.3704614476567434E-026
  -3.5700000000000003E-002     1.0870343593649621E-026
  -3.5650000000000001E-002    -3.3924538949750833E-026
  -3.5600000000000000E-002    -8.8074194038853088E-026
  -3.5549999999999998E-002    -1.2438961550026214E-025
  -3.5500000000000004E-002    -1.0830777386813084E-025
  -3.5450000000000002E-002    -1.4792824853938085E-026
  -3.5400000000000001E-002     1.4935357288058104E-025
  -3.5349999999999999E-002     3.2846127496942496E-025
  -3.5299999999999998E-002     4.2066674387204013E-025
  -3.5250000000000004E-002     3.1159139384855293E-025
  -3.5200000000000002E-002    -6.2120092097959222E-026
  -3.5150000000000001E-002    -6.4027520567497299E-025
  -3.5099999999999999E-002    -1.1974976715943512E-024
  -3.5049999999999998E-002    -1.3780772309893923E-024
  -3.5000000000000003E-002    -8.3348231749122676E-025
  -3.4950000000000002E-002     5.5902237931662256E-025
  -3.4900000000000000E-002     2.4815594695858217E-024
  -3.4849999999999999E-002     4.0984950084360125E-024
  -3.4799999999999998E-002     4.2467426889371746E-024
  -3.4750000000000003E-002     1.9377291723112995E-024
  -3.4700000000000002E-002    -2.9466458580294710E-024
  -3.4650000000000000E-002    -9.0656188600758080E-024
  -3.4599999999999999E-002    -1.3548493017094009E-023
  -3.4549999999999997E-002    -1.2777077629756835E-023
  -3.4500000000000003E-002    -4.0469563201603055E-024
  -3.4450000000000001E-002     1.2361028811063519E-023
  -3.4400000000000000E-002     3.1655235970736243E-023
  -3.4349999999999999E-002     4.4707747417684300E-023
  -3.4299999999999997E-002     4.0730776798275492E-023
  -3.4250000000000003E-002     1.2276364613982917E-023
  -3.4200000000000001E-002    -3.8989092619594460E-023
  -3.4150000000000000E-002    -9.8472354037790361E-023
  -3.4099999999999998E-002    -1.3980590115007029E-022
  -3.4049999999999997E-002    -1.3273663486151987E-022
  -3.4000000000000002E-002    -5.6770191758814240E-023
  -3.3950000000000001E-002     8.3885114806366414E-023
  -3.3900000000000000E-002     2.5119800461130274E-022
  -3.3849999999999998E-002     3.7723611370541130E-022
  -3.3799999999999997E-002     3.8472989238978893E-022
  -3.3750000000000002E-002     2.2088605304586256E-022
  -3.3700000000000001E-002    -1.0705876281472606E-022
  -3.3649999999999999E-002    -5.1155915949403932E-022
  -3.3599999999999998E-002    -8.3581537967937791E-022
  -3.3550000000000003E-002    -9.0278055906201043E-022
  -3.3500000000000002E-002    -5.9238408913594039E-022
  -3.3450000000000001E-002     8.0387986690182667E-023
  -3.3399999999999999E-002     9.2441356048588273E-022
  -3.3349999999999998E-002     1.6017803472069915E-021
  -3.3300000000000003E-002     1.7384837867381935E-021
  -3.3250000000000002E-002     1.0916146862667712E-021
  -3.3200000000000000E-002    -2.8793470449438998E-022
  -3.3149999999999999E-002    -1.9771173604578146E-021
  -3.3099999999999997E-002    -3.2533726465628827E-021
  -3.3050000000000003E-002    -3.3353094463425943E-021
  -3.3000000000000002E-002    -1.7344685353789649E-021
  -3.2950000000000000E-002     1.4098268525672306E-021
  -3.2899999999999999E-002     5.1741282370585587E-021
  -3.2850000000000004E-002     8.0035671451535574E-021
  -3.2800000000000003E-002     8.2033488646303912E-021
  -3.2750000000000001E-002     4.6541232904539185E-021
  -3.2700000000000000E-002    -2.4987950279573341E-021
  -3.2649999999999998E-002    -1.1494076001933960E-020
  -3.2600000000000004E-002    -1.9192948731300868E-020
  -3.2550000000000003E-002    -2.1973037830581404E-020
  -3.2500000000000001E-002    -1.7078236673930381E-020
  -3.2450000000000000E-002    -3.9795978683811805E-021
  -3.2399999999999998E-002     1.4813589717307537E-020
  -3.2350000000000004E-002     3.3958161918031505E-020
  -3.2300000000000002E-002     4.6649031234874709E-020
  -3.2250000000000001E-002     4.6864361105243796E-020
  -3.2199999999999999E-002     3.1771144513277757E-020
  -3.2149999999999998E-002     3.3712264687380428E-021
  -3.2100000000000004E-002    -3.1399249864055984E-020
  -3.2050000000000002E-002    -6.2419876798716374E-020
  -3.2000000000000001E-002    -7.9591741169675653E-020
  -3.1949999999999999E-002    -7.6449417571363172E-020
  -3.1899999999999998E-002    -5.2799655059718619E-020
  -3.1850000000000003E-002    -1.5199564093177828E-020
  -3.1800000000000002E-002     2.5187498481281948E-020
  -3.1750000000000000E-002     5.6778724117519856E-020
  -3.1699999999999999E-002     7.2255211247653190E-020
  -3.1649999999999998E-002     7.1735287073035643E-020
  -3.1600000000000003E-002     6.2770174164266498E-020
  -3.1550000000000002E-002     5.6636304586122113E-020
  -3.1500000000000000E-002     6.2000157546298483E-020
  -3.1449999999999999E-002     7.8485123449350358E-020
  -3.1399999999999997E-002     9.3307350601795397E-020
  -3.1350000000000003E-002     8.3513525513417526E-020
  -3.1300000000000001E-002     2.4444086579054881E-020
  -3.1250000000000000E-002    -9.7608422162417956E-020
  -3.1199999999999999E-002    -2.7300995661342958E-019
  -3.1150000000000001E-002    -4.6226738087204232E-019
  -3.1100000000000003E-002    -6.0005484667906387E-019
  -3.1050000000000001E-002    -6.1136916471589708E-019
  -3.1000000000000000E-002    -4.3691751218404247E-019
  -3.0949999999999998E-002    -6.0453181957316349E-020
  -3.0900000000000000E-002     4.7177201116511110E-019
  -3.0850000000000002E-002     1.0485904208563109E-018
  -3.0800000000000001E-002     1.5134024372645326E-018
  -3.0750000000000000E-002     1.7034645120576671E-018
  -3.0699999999999998E-002     1.4993748903106512E-018
  -3.0650000000000000E-002     8.6982254646404019E-019
  -3.0600000000000002E-002    -1.0413073254267697E-019
  -3.0550000000000001E-002    -1.2362136072653015E-018
  -3.0499999999999999E-002    -2.2751393292132282E-018
  -3.0449999999999998E-002    -2.9682119463299096E-018
  -3.0400000000000000E-002    -3.1296416805565190E-018
  -3.0350000000000002E-002    -2.6915506517287815E-018
  -3.0300000000000001E-002    -1.7201260850736106E-018
  -3.0249999999999999E-002    -3.9083163231621462E-019
  -3.0200000000000001E-002     1.0685272936853415E-018
  -3.0150000000000000E-002     2.4452428105058350E-018
  -3.0100000000000002E-002     3.5925819980670997E-018
  -3.0050000000000000E-002     4.4422639934509527E-018
  -2.9999999999999999E-002     4.9719473749080441E-018
  -2.9950000000000001E-002     5.1416263124251399E-018
  -2.9899999999999999E-002     4.8308038697549031E-018
  -2.9850000000000002E-002     3.8156118990187262E-018
  -2.9800000000000000E-002     1.8164434093208875E-018
  -2.9749999999999999E-002    -1.3777387302313282E-018
  -2.9700000000000001E-002    -5.7358542698818710E-018
  -2.9650000000000003E-002    -1.0820723267165470E-017
  -2.9600000000000001E-002    -1.5709461364603308E-017
  -2.9550000000000000E-002    -1.9064021952972243E-017
  -2.9499999999999998E-002    -1.9381158785141998E-017
  -2.9450000000000000E-002    -1.5394516947364346E-017
  -2.9400000000000003E-002    -6.5408865252962270E-018
  -2.9350000000000001E-002     6.6417580303968907E-018
  -2.9300000000000000E-002     2.2326638663956401E-017
  -2.9249999999999998E-002     3.7528932293785779E-017
  -2.9200000000000000E-002     4.8588243346809629E-017
  -2.9150000000000002E-002     5.1938657542793591E-017
  -2.9100000000000001E-002     4.5009128418072648E-017
  -2.9049999999999999E-002     2.7036940983036749E-017
  -2.8999999999999998E-002    -4.2791707620525462E-019
  -2.8950000000000000E-002    -3.3493206579047385E-017
  -2.8900000000000002E-002    -6.6429232313814150E-017
  -2.8850000000000001E-002    -9.2638693848186658E-017
  -2.8799999999999999E-002    -1.0590638488168318E-016
  -2.8749999999999998E-002    -1.0167221211118508E-016
  -2.8700000000000000E-002    -7.8063953507028680E-017
  -2.8650000000000002E-002    -3.6482365217267007E-017
  -2.8600000000000000E-002     1.8367864792292855E-017
  -2.8549999999999999E-002     7.8994030854678126E-017
  -2.8500000000000001E-002     1.3607665876918632E-016
  -2.8450000000000000E-002     1.7972016501286796E-016
  -2.8400000000000002E-002     2.0082956870871874E-016
  -2.8350000000000000E-002     1.9247184171031495E-016
  -2.8299999999999999E-002     1.5110918076579654E-016
  -2.8250000000000001E-002     7.7601920203810861E-017
  -2.8200000000000003E-002    -2.2140688944405279E-017
  -2.8150000000000001E-002    -1.3702224999118960E-016
  -2.8100000000000000E-002    -2.5132174663819430E-016
  -2.8049999999999999E-002    -3.4612599774875417E-016
  -2.8000000000000001E-002    -4.0169852210296795E-016
  -2.7950000000000003E-002    -4.0066429314935490E-016
  -2.7900000000000001E-002    -3.3163951694535554E-016
  -2.7850000000000000E-002    -1.9269038318096989E-016
  -2.7799999999999998E-002     6.1603560308939038E-018
  -2.7750000000000000E-002     2.4216168227928862E-016
  -2.7700000000000002E-002     4.8138211362806948E-016
  -2.7650000000000001E-002     6.8276609131668277E-016
  -2.7600000000000000E-002     8.0436153528835552E-016
  -2.7549999999999998E-002     8.1084973798520606E-016
  -2.7500000000000000E-002     6.8108936192898215E-016
  -2.7450000000000002E-002     4.1420274922977890E-016
  -2.7400000000000001E-002     3.2850356357597735E-017
  -2.7349999999999999E-002    -4.1725377111635842E-016
  -2.7299999999999998E-002    -8.7190905174032712E-016
  -2.7250000000000000E-002    -1.2566902665019543E-015
  -2.7200000000000002E-002    -1.4978616308772149E-015
  -2.7150000000000001E-002    -1.5344075937253065E-015
  -2.7099999999999999E-002    -1.3294106484057022E-015
  -2.7049999999999998E-002    -8.7901684998095099E-016
  -2.7000000000000000E-002    -2.1747197424578547E-016
  -2.6950000000000002E-002     5.8287431122453691E-016
  -2.6900000000000000E-002     1.4171777634576329E-015
  -2.6849999999999999E-002     2.1592760956079930E-015
  -2.6800000000000001E-002     2.6777103799364208E-015
  -2.6749999999999999E-002     2.8551174293053514E-015
  -2.6700000000000002E-002     2.6087712808827367E-015
  -2.6650000000000000E-002     1.9093884225424872E-015
  -2.6599999999999999E-002     7.9490782126430316E-016
  -2.6550000000000001E-002    -6.2400997215131250E-016
  -2.6500000000000003E-002    -2.1693761714983518E-015
  -2.6450000000000001E-002    -3.6134503295342805E-015
  -2.6400000000000000E-002    -4.7078462388281243E-015
  -2.6349999999999998E-002    -5.2212790014553179E-015
  -2.6300000000000000E-002    -4.9808426968830254E-015
  -2.6250000000000002E-002    -3.9101006352925199E-015
  -2.6200000000000001E-002    -2.0567092205854503E-015
  -2.6150000000000000E-002     3.9694656218417687E-016
  -2.6099999999999998E-002     3.1444656059296122E-015
  -2.6050000000000000E-002     5.7885751049739139E-015
  -2.6000000000000002E-002     7.8938909899914898E-015
  -2.5950000000000001E-002     9.0527348042242016E-015
  -2.5899999999999999E-002     8.9544683671244608E-015
  -2.5849999999999998E-002     7.4473104325505094E-015
  -2.5800000000000000E-002     4.5818297562265846E-015
  -2.5750000000000002E-002     6.2732570101735749E-016
  -2.5700000000000001E-002    -3.9441402668964265E-015
  -2.5649999999999999E-002    -8.5068189783665860E-015
  -2.5599999999999998E-002    -1.2359253435355287E-014
  -2.5550000000000000E-002    -1.4822444150399394E-014
  -2.5500000000000002E-002    -1.5345711081904791E-014
  -2.5450000000000000E-002    -1.3605530105566264E-014
  -2.5399999999999999E-002    -9.5819928326416408E-015
  -2.5349999999999998E-002    -3.5990353524313295E-015
  -2.5300000000000000E-002     3.6820068057523688E-015
  -2.5250000000000002E-002     1.1320487845405234E-014
  -2.5200000000000000E-002     1.8204202654172948E-014
  -2.5149999999999999E-002     2.3197161803497990E-014
  -2.5100000000000001E-002     2.5310085588736157E-014
  -2.5049999999999999E-002     2.3870373674415596E-014
  -2.5000000000000001E-002     1.8664821252086046E-014
  -2.4950000000000000E-002     1.0029109083986006E-014
  -2.4899999999999999E-002    -1.1371469246517910E-015
  -2.4850000000000001E-002    -1.3441652731608508E-014
  -2.4800000000000003E-002    -2.5156340169761447E-014
  -2.4750000000000001E-002    -3.4445096901143044E-014
  -2.4700000000000000E-002    -3.9634456624846610E-014
  -2.4649999999999998E-002    -3.9488944785672195E-014
  -2.4600000000000000E-002    -3.3448100034010268E-014
  -2.4550000000000002E-002    -2.1783958769846496E-014
  -2.4500000000000001E-002    -5.6461687621194943E-015
  -2.4450000000000000E-002     1.3023074223075393E-014
  -2.4399999999999998E-002     3.1703821414010024E-014
  -2.4350000000000000E-002     4.7622074504996966E-014
  -2.4299999999999999E-002     5.8142961990397154E-014
  -2.4250000000000001E-002     6.1180129472210970E-014
  -2.4199999999999999E-002     5.5560698195692314E-014
  -2.4150000000000001E-002     4.1286501258192318E-014
  -2.4100000000000000E-002     1.9642583598594547E-014
  -2.4049999999999998E-002    -6.8773745798129145E-015
  -2.4000000000000000E-002    -3.4834125994350989E-014
  -2.3949999999999999E-002    -6.0271731362801525E-014
  -2.3900000000000001E-002    -7.9261884396498805E-014
  -2.3850000000000000E-002    -8.8490711750181340E-014
  -2.3800000000000002E-002    -8.5802105635882314E-014
  -2.3750000000000000E-002    -7.0610326066011672E-014
  -2.3699999999999999E-002    -4.4108293840366579E-014
  -2.3650000000000001E-002    -9.2238523410733634E-015
  -2.3599999999999999E-002     2.9687186561622604E-014
  -2.3550000000000001E-002     6.7381489158801779E-014
  -2.3500000000000000E-002     9.8433804948444222E-014
  -2.3449999999999999E-002     1.1800972949959188E-013
  -2.3400000000000001E-002     1.2259281080277805E-013
  -2.3349999999999999E-002     1.1055627626175230E-013
  -2.3300000000000001E-002     8.2490042546123649E-014
  -2.3250000000000000E-002     4.1229131528202408E-014
  -2.3199999999999998E-002    -8.4279121267077905E-015
  -2.3150000000000000E-002    -6.0277581697361165E-014
  -2.3099999999999999E-002    -1.0747639720092678E-013
  -2.3050000000000001E-002    -1.4341555988285474E-013
  -2.3000000000000000E-002    -1.6259583927977618E-013
  -2.2950000000000002E-002    -1.6139533727202352E-013
  -2.2900000000000000E-002    -1.3863606600694414E-013
  -2.2849999999999999E-002    -9.5877256548555275E-014
  -2.2800000000000001E-002    -3.7389593603560580E-014
  -2.2749999999999999E-002     3.0203671545736286E-014
  -2.2700000000000001E-002     9.8602155130145920E-014
  -2.2650000000000000E-002     1.5876770316101015E-013
  -2.2599999999999999E-002     2.0204270125729530E-013
  -2.2550000000000001E-002     2.2132767528151939E-013
  -2.2499999999999999E-002     2.1217397074354724E-013
  -2.2450000000000001E-002     1.7363450509112432E-013
  -2.2400000000000000E-002     1.0872271207227282E-013
  -2.2349999999999998E-002     2.4362735209045013E-014
  -2.2300000000000000E-002    -6.9227256676740307E-014
  -2.2249999999999999E-002    -1.5969749410950770E-013
  -2.2200000000000001E-002    -2.3416227137171036E-013
  -2.2150000000000000E-002    -2.8103010202609018E-013
  -2.2100000000000002E-002    -2.9180818487653722E-013
  -2.2050000000000000E-002    -2.6259376078719829E-013
  -2.1999999999999999E-002    -1.9498987822016534E-013
  -2.1950000000000001E-002    -9.6252205621808912E-014
  -2.1899999999999999E-002     2.1412759099855499E-014
  -2.1850000000000001E-002     1.4234559613193743E-013
  -2.1800000000000000E-002     2.4954203144687578E-013
  -2.1749999999999999E-002     3.2707641411179879E-013
  -2.1700000000000001E-002     3.6248273264760005E-013
  -2.1649999999999999E-002     3.4872793764174868E-013
  -2.1600000000000001E-002     2.8546441673546362E-013
  -2.1550000000000000E-002     1.7935105702608731E-013
  -2.1499999999999998E-002     4.3367837448417039E-014
  -2.1450000000000000E-002    -1.0479927536058421E-013
  -2.1399999999999999E-002    -2.4509249563277712E-013
  -2.1350000000000001E-002    -3.5781268368519044E-013
  -2.1299999999999999E-002    -4.2636495813416683E-013
  -2.1250000000000002E-002    -4.3962993171009496E-013
  -2.1200000000000000E-002    -3.9362052586752828E-013
  -2.1149999999999999E-002    -2.9218187584346729E-013
  -2.1100000000000001E-002    -1.4662418495968152E-013
  -2.1049999999999999E-002     2.5667167125272694E-014
  -2.1000000000000001E-002     2.0345544498695431E-013
  -2.0950000000000000E-002     3.6439589670752187E-013
  -2.0899999999999998E-002     4.8790971800397652E-013
  -2.0850000000000000E-002     5.5778025017321580E-013
  -2.0799999999999999E-002     5.6411208848658161E-013
  -2.0750000000000001E-002     5.0439694030242047E-013
  -2.0700000000000000E-002     3.8357821906424366E-013
  -2.0649999999999998E-002     2.1316718595407696E-013
  -2.0600000000000000E-002     9.6106976416240597E-015
  -2.0549999999999999E-002    -2.0778437194815010E-013
  -2.0500000000000001E-002    -4.1902507278777984E-013
  -2.0449999999999999E-002    -6.0538449145259568E-013
  -2.0400000000000001E-002    -7.5089882348172542E-013
  -2.0350000000000000E-002    -8.4329768268990892E-013
  -2.0299999999999999E-002    -8.7438762648737304E-013
  -2.0250000000000001E-002    -8.4000972575552893E-013
  -2.0199999999999999E-002    -7.3975444749328499E-013
  -2.0150000000000001E-002    -5.7661417925285611E-013
  -2.0100000000000000E-002    -3.5670619190041044E-013
  -2.0049999999999998E-002    -8.9120790993254791E-014
  -2.0000000000000000E-002     2.1413970743653179E-013
  -1.9949999999999999E-002     5.3822249514298965E-013
  -1.9900000000000001E-002     8.6560302603540717E-013
  -1.9850000000000000E-002     1.1764775448794483E-012
  -1.9799999999999998E-002     1.4494109839892291E-012
  -1.9750000000000000E-002     1.6622148385330355E-012
  -1.9699999999999999E-002     1.7929769656469183E-012
  -1.9650000000000001E-002     1.8211404676373024E-012
  -1.9599999999999999E-002     1.7285424491590407E-012
  -1.9550000000000001E-002     1.5003826619506540E-012
  -1.9500000000000000E-002     1.1261566343967853E-012
  -1.9449999999999999E-002     6.0065120372621375E-013
  -1.9400000000000001E-002    -7.4855738603676950E-014
  -1.9349999999999999E-002    -8.9107355643453357E-013
  -1.9300000000000001E-002    -1.8287890262136854E-012
  -1.9250000000000000E-002    -2.8566025843409674E-012
  -1.9199999999999998E-002    -3.9284693564768466E-012
  -1.9150000000000000E-002    -4.9813091155211538E-012
  -1.9099999999999999E-002    -5.9330330329345308E-012
  -1.9050000000000001E-002    -6.6813778697542810E-012
  -1.9000000000000000E-002    -7.1038994203563095E-012
  -1.8949999999999998E-002    -7.0594259418608005E-012
  -1.8900000000000000E-002    -6.3911142686410824E-012
  -1.8849999999999999E-002    -4.9311536731030654E-012
  -1.8800000000000001E-002    -2.5069395107364751E-012
  -1.8749999999999999E-002     1.0516502300838884E-012
  -1.8700000000000001E-002     5.9043121141939588E-012
  -1.8650000000000000E-002     1.2192403526791004E-011
  -1.8599999999999998E-002     2.0031756335617199E-011
  -1.8550000000000001E-002     2.9506907441639459E-011
  -1.8499999999999999E-002     4.0667429663184207E-011
  -1.8450000000000001E-002     5.3526697249313782E-011
  -1.8400000000000000E-002     6.8063334875175022E-011
  -1.8349999999999998E-002     8.4225122430194566E-011
  -1.8300000000000000E-002     1.0193496827236827E-010
  -1.8249999999999999E-002     1.2109804690504498E-010
  -1.8200000000000001E-002     1.4160937472441542E-010
  -1.8149999999999999E-002     1.6336080541743205E-010
  -1.8100000000000002E-002     1.8624681797094710E-010
  -1.8050000000000000E-002     2.1016849947916350E-010
  -1.7999999999999999E-002     2.3503586556704734E-010
  -1.7950000000000001E-002     2.6076845116931414E-010
  -1.7899999999999999E-002     2.8729484936398604E-010
  -1.7850000000000001E-002     3.1455185943977655E-010
  -1.7800000000000000E-002     3.4248369989790211E-010
  -1.7749999999999998E-002     3.7104176666905722E-010
  -1.7700000000000000E-002     4.0018510431228044E-010
  -1.7649999999999999E-002     4.2988144651337728E-010
  -1.7600000000000001E-002     4.6010843480559408E-010
  -1.7550000000000000E-002     4.9085489516089759E-010
  -1.7499999999999998E-002     5.2212114283381279E-010
  -1.7450000000000000E-002     5.5391891030739023E-010
  -1.7399999999999999E-002     5.8627009958693941E-010
  -1.7350000000000001E-002     6.1920491612767648E-010
  -1.7299999999999999E-002     6.5275968599139568E-010
  -1.7250000000000001E-002     6.8697418086963583E-010
  -1.7200000000000000E-002     7.2188954668410273E-010
  -1.7149999999999999E-002     7.5754651591619768E-010
  -1.7100000000000001E-002     7.9398504147527652E-010
  -1.7049999999999999E-002     8.3124423498453220E-010
  -1.7000000000000001E-002     8.6936354235522685E-010
  -1.6950000000000000E-002     9.0838386220024206E-010
  -1.6899999999999998E-002     9.4834928164466712E-010
  -1.6850000000000000E-002     9.8930812730521753E-010
  -1.6799999999999999E-002     1.0313137441313779E-009
  -1.6750000000000001E-002     1.0744240062480423E-009
  -1.6700000000000000E-002     1.1186998858701126E-009
  -1.6649999999999998E-002     1.1642031136768110E-009
  -1.6600000000000000E-002     1.2109916082344480E-009
  -1.6549999999999999E-002     1.2591157042997960E-009
  -1.6500000000000001E-002     1.3086140202054396E-009
  -1.6449999999999999E-002     1.3595104137186198E-009
  -1.6400000000000001E-002     1.4118136508460675E-009
  -1.6350000000000000E-002     1.4655186806243961E-009
  -1.6299999999999999E-002     1.5206118577630309E-009
  -1.6250000000000001E-002     1.5770775254794688E-009
  -1.6199999999999999E-002     1.6349054117234644E-009
  -1.6150000000000001E-002     1.6940984422996625E-009
  -1.6100000000000000E-002     1.7546775456941928E-009
  -1.6049999999999998E-002     1.8166848995520233E-009
  -1.6000000000000000E-002     1.8801816149060652E-009
  -1.5949999999999999E-002     1.9452443163523386E-009
  -1.5900000000000001E-002     2.0119582496072108E-009
  -1.5850000000000000E-002     2.0804098088594660E-009
  -1.5799999999999998E-002     2.1506815824181950E-009
  -1.5750000000000000E-002     2.2228484533405771E-009
  -1.5699999999999999E-002     2.2969785255199500E-009
  -1.5650000000000001E-002     2.3731382237263211E-009
  -1.5599999999999999E-002     2.4513989409192349E-009
  -1.5550000000000001E-002     2.5318434609951921E-009
  -1.5500000000000000E-002     2.6145729889766935E-009
  -1.5449999999999998E-002     2.6997066791550272E-009
  -1.5400000000000000E-002     2.7873786949068607E-009
  -1.5349999999999999E-002     2.8777282159163054E-009
  -1.5300000000000001E-002     2.9708861944281154E-009
  -1.5250000000000000E-002     3.0669615994420183E-009
  -1.5199999999999998E-002     3.1660293721007260E-009
  -1.5150000000000000E-002     3.2681225112816691E-009
  -1.5099999999999999E-002     3.3732306531271312E-009
  -1.5050000000000001E-002     3.4813080989992277E-009
  -1.4999999999999999E-002     3.5922858671122916E-009
  -1.4949999999999998E-002     3.7060926594952765E-009
  -1.4900000000000000E-002     3.8226759122939270E-009
  -1.4849999999999999E-002     3.9420240147593614E-009
  -1.4800000000000001E-002     4.0641813849580787E-009
  -1.4749999999999999E-002     4.1892604927869625E-009
  -1.4700000000000001E-002     4.3174433985846946E-009
  -1.4650000000000000E-002     4.4489727446465163E-009
  -1.4599999999999998E-002     4.5841363100592627E-009
  -1.4550000000000000E-002     4.7232444519061927E-009
  -1.4499999999999999E-002     4.8666037724736023E-009
  -1.4450000000000001E-002     5.0144970116081273E-009
  -1.4400000000000000E-002     5.1671589936269542E-009
  -1.4349999999999998E-002     5.3247639219793855E-009
  -1.4300000000000000E-002     5.4874169154398856E-009
  -1.4249999999999999E-002     5.6551565482793149E-009
  -1.4200000000000001E-002     5.8279674253717706E-009
  -1.4149999999999999E-002     6.0057968345029763E-009
  -1.4099999999999998E-002     6.1885761386594528E-009
  -1.4050000000000000E-002     6.3762474869734354E-009
  -1.3999999999999999E-002     6.5687824527417647E-009
  -1.3950000000000001E-002     6.7661996058668214E-009
  -1.3899999999999999E-002     6.9685733450503529E-009
  -1.3850000000000001E-002     7.1760362800403246E-009
  -1.3800000000000000E-002     7.3887742862518414E-009
  -1.3749999999999998E-002     7.6070152818145300E-009
  -1.3700000000000000E-002     7.8310151361846145E-009
  -1.3649999999999999E-002     8.0610466267317512E-009
  -1.3600000000000001E-002     8.2973857827326100E-009
  -1.3550000000000000E-002     8.5403007445746959E-009
  -1.3499999999999998E-002     8.7900458769111865E-009
  -1.3450000000000000E-002     9.0468608156858228E-009
  -1.3399999999999999E-002     9.3109698922517249E-009
  -1.3350000000000001E-002     9.5825898079691296E-009
  -1.3299999999999999E-002     9.8619264484818785E-009
  -1.3249999999999998E-002     1.0149179226981902E-008
  -1.3200000000000000E-002     1.0444542985732705E-008
  -1.3149999999999998E-002     1.0748206229329635E-008
  -1.3100000000000001E-002     1.1060346439282700E-008
  -1.3049999999999999E-002     1.1381128647015873E-008
  -1.3000000000000001E-002     1.1710702176424147E-008
  -1.2950000000000000E-002     1.2049198824069958E-008
  -1.2899999999999998E-002     1.2396735021133095E-008
  -1.2850000000000000E-002     1.2753419999472480E-008
  -1.2799999999999999E-002     1.3119371275112141E-008