  -4.0000000000000001E-002     0.0000000000000000     
  -3.9949999999999999E-002     0.0000000000000000     
  -3.9899999999999998E-002     0.0000000000000000     
  -3.9850000000000003E-002     0.0000000000000000     
  -3.9800000000000002E-002     0.0000000000000000     
  -3.9750000000000001E-002     0.0000000000000000     
  -3.9699999999999999E-002     0.0000000000000000     
  -3.9649999999999998E-002     0.0000000000000000     
  -3.9600000000000003E-002     0.0000000000000000     
  -3.9550000000000002E-002     0.0000000000000000     
  -3.9500000000000000E-002     0.0000000000000000     
  -3.9449999999999999E-002     0.0000000000000000     
  -3.9399999999999998E-002     0.0000000000000000     
  -3.9350000000000003E-002     0.0000000000000000     
  -3.9300000000000002E-002     0.0000000000000000     
  -3.9250000000000000E-002     0.0000000000000000     
  -3.9199999999999999E-002     0.0000000000000000     
  -3.9150000000000004E-002     0.0000000000000000     
  -3.9100000000000003E-002     0.0000000000000000     
  -3.9050000000000001E-002     0.0000000000000000     
  -3.9000000000000000E-002     0.0000000000000000     
  -3.8949999999999999E-002     0.0000000000000000     
  -3.8900000000000004E-002     0.0000000000000000     
  -3.8850000000000003E-002     0.0000000000000000     
  -3.8800000000000001E-002     0.0000000000000000     
  -3.8750000000000000E-002     0.0000000000000000     
  -3.8699999999999998E-002     0.0000000000000000     
  -3.8650000000000004E-002     0.0000000000000000     
  -3.8600000000000002E-002     0.0000000000000000     
  -3.8550000000000001E-002     0.0000000000000000     
  -3.8500000000000000E-002     0.0000000000000000     
  -3.8449999999999998E-002     0.0000000000000000     
  -3.8400000000000004E-002     0.0000000000000000     
  -3.8350000000000002E-002     0.0000000000000000     
  -3.8300000000000001E-002     0.0000000000000000     
  -3.8249999999999999E-002     0.0000000000000000     
  -3.8199999999999998E-002     0.0000000000000000     
  -3.8150000000000003E-002     0.0000000000000000     
  -3.8100000000000002E-002     0.0000000000000000     
  -3.8050000000000000E-002     0.0000000000000000     
  -3.7999999999999999E-002     0.0000000000000000     
  -3.7949999999999998E-002     0.0000000000000000     
  -3.7900000000000003E-002     0.0000000000000000     
  -3.7850000000000002E-002     0.0000000000000000     
  -3.7800000000000000E-002     0.0000000000000000     
  -3.7749999999999999E-002     0.0000000000000000     
  -3.7699999999999997E-002     0.0000000000000000     
  -3.7650000000000003E-002     0.0000000000000000     
  -3.7600000000000001E-002     0.0000000000000000     
  -3.7550000000000000E-002     0.0000000000000000     
  -3.7499999999999999E-002     0.0000000000000000     
  -3.7449999999999997E-002     0.0000000000000000     
  -3.7400000000000003E-002     0.0000000000000000     
  -3.7350000000000001E-002     0.0000000000000000     
  -3.7300000000000000E-002     0.0000000000000000     
  -3.7249999999999998E-002     0.0000000000000000     
  -3.7200000000000004E-002     0.0000000000000000     
  -3.7150000000000002E-002     0.0000000000000000     
  -3.7100000000000001E-002     0.0000000000000000     
  -3.7050000000000000E-002     0.0000000000000000     
  -3.6999999999999998E-002     0.0000000000000000     
  -3.6950000000000004E-002     0.0000000000000000     
  -3.6900000000000002E-002     0.0000000000000000     
  -3.6850000000000001E-002     0.0000000000000000     
  -3.6799999999999999E-002     0.0000000000000000     
  -3.6749999999999998E-002     0.0000000000000000     
  -3.6700000000000003E-002     0.0000000000000000     
  -3.6650000000000002E-002     0.0000000000000000     
  -3.6600000000000001E-002     0.0000000000000000     
  -3.6549999999999999E-002     0.0000000000000000     
  -3.6499999999999998E-002     0.0000000000000000     
  -3.6450000000000003E-002     0.0000000000000000     
  -3.6400000000000002E-002     0.0000000000000000     
  -3.6350000000000000E-002     0.0000000000000000     
  -3.6299999999999999E-002     0.0000000000000000     
  -3.6249999999999998E-002     0.0000000000000000     
  -3.6200000000000003E-002     0.0000000000000000     
  -3.6150000000000002E-002    -8.4290628858338239E-039
  -3.6100000000000000E-002    -2.4778200600858367E-038
  -3.6049999999999999E-002    -3.9569768502921932E-038
  -3.6000000000000004E-002    -2.3753969672606858E-038
  -3.5950000000000003E-002     6.2429384967209332E-038
  -3.5900000000000001E-002     2.0834682929008652E-037
  -3.5850000000000000E-002     3.7733559536693218E-037
  -3.5799999999999998E-002     4.8680836402064092E-037
  -3.5750000000000004E-002     3.5296808683598950E-037
  -3.5700000000000003E-002    -2.3039188102549018E-037
  -3.5650000000000001E-002    -1.4028378553418508E-036
  -3.5600000000000000E-002    -2.9666009169767709E-036
  -3.5549999999999998E-002    -4.2284257440741012E-036
  -3.5500000000000004E-002    -3.8747719171711761E-036
  -3.5450000000000002E-002    -3.1636135393528655E-037
  -3.5400000000000001E-002     7.3615039627097612E-036
  -3.5349999999999999E-002     1.7996168833871721E-035
  -3.5299999999999998E-002     2.6991202188457056E-035
  -3.5250000000000004E-002     2.6338026094563575E-035
  -3.5200000000000002E-002     7.1966898169814033E-036
  -3.5150000000000001E-002    -3.4356599745238926E-035
  -3.5099999999999999E-002    -8.9767669190191838E-035
  -3.5049999999999998E-002    -1.3269108160969368E-034
  -3.5000000000000003E-002    -1.2213877164738051E-034
  -3.4950000000000002E-002    -1.9641790496906967E-035
  -3.4900000000000000E-002     1.7966657176582686E-034
  -3.4849999999999999E-002     4.1304206051606208E-034
  -3.4799999999999998E-002     5.3673893330492444E-034
  -3.4750000000000003E-002     3.6267542378523433E-034
  -3.4700000000000002E-002    -2.3695161549413579E-034
  -3.4650000000000000E-002    -1.1752843174050485E-033
  -3.4599999999999999E-002    -2.0199747600644189E-033
  -3.4549999999999997E-002    -2.0083269225331133E-033
  -3.4500000000000003E-002    -3.3089050643166410E-034
  -3.4450000000000001E-002     3.2868770521952490E-033
  -3.4400000000000000E-002     7.8734374205413775E-033
  -3.4349999999999999E-002     1.0786871390297116E-032
  -3.4299999999999997E-002     8.1507949346834308E-033
  -3.4250000000000003E-002    -3.4036486616164637E-033
  -3.4200000000000001E-002    -2.3805305364706026E-032
  -3.4150000000000000E-002    -4.6491651960218262E-032
  -3.4099999999999998E-002    -5.7306831172404968E-032
  -3.4049999999999997E-002    -3.7783520643365779E-032
  -3.4000000000000002E-002     2.5789472398598514E-032
  -3.3950000000000001E-002     1.2894639819478931E-031
  -3.3900000000000000E-002     2.3682114318207273E-031
  -3.3849999999999998E-002     2.8227589040618373E-031
  -3.3799999999999997E-002     1.8381222986593167E-031
  -3.3750000000000002E-002    -1.1306068005204097E-031
  -3.3700000000000001E-002    -5.7981561246811282E-031
  -3.3649999999999999E-002    -1.0590921317405570E-030
  -3.3599999999999998E-002    -1.2656700611608391E-030
  -3.3550000000000003E-002    -8.6774652534384254E-031
  -3.3500000000000002E-002     3.4433260371009064E-031
  -3.3450000000000001E-002     2.2439074621040805E-030
  -3.3399999999999999E-002     4.2072756905151304E-030
  -3.3349999999999998E-002     5.1398032947094141E-030
  -3.3300000000000003E-002     3.7986287714638326E-030
  -3.3250000000000002E-002    -5.8360327851077723E-031
  -3.3200000000000000E-002    -7.5452580422474717E-030
  -3.3149999999999999E-002    -1.4869119532260592E-029
  -3.3099999999999997E-002    -1.8730193212168167E-029
  -3.3050000000000003E-002    -1.4850332605020240E-029
  -3.3000000000000002E-002    -6.1419827401624319E-031
  -3.2950000000000000E-002     2.2476104834766379E-029
  -3.2899999999999999E-002     4.7190508002334756E-029
  -3.2850000000000004E-002     6.1198823962895392E-029
  -3.2800000000000003E-002     5.0875189068550793E-029
  -3.2750000000000001E-002     7.9766569040470266E-030
  -3.2700000000000000E-002    -6.2868506603519242E-029
  -3.2649999999999998E-002    -1.3951139934548832E-028
  -3.2600000000000004E-002    -1.8455059776864104E-028
  -3.2550000000000003E-002    -1.5702278530282513E-028
  -3.2500000000000001E-002    -3.2255227915775964E-029
  -3.2450000000000000E-002     1.7642133571904608E-028
  -3.2399999999999998E-002     4.0464233892308209E-028
  -3.2350000000000004E-002     5.4396812564375643E-028
  -3.2300000000000002E-002     4.7530209302443534E-028
  -3.2250000000000001E-002     1.2463644970299997E-028
  -3.2199999999999999E-002    -4.7656266208157233E-028
  -3.2149999999999998E-002    -1.1548497415999245E-027
  -3.2100000000000004E-002    -1.6119303729770042E-027
  -3.2050000000000002E-002    -1.5118448586997664E-027
  -3.2000000000000001E-002    -6.2700828955477835E-028
  -3.1949999999999999E-002     1.0022110634772869E-027
  -3.1899999999999998E-002     2.9659374343073289E-027
  -3.1850000000000003E-002     4.5148023638289387E-027
  -3.1800000000000002E-002     4.7618035060626937E-027
  -3.1750000000000000E-002     3.0301229376375423E-027
  -3.1699999999999999E-002    -7.5846232210460209E-028
  -3.1649999999999998E-002    -5.8189963627595144E-027
  -3.1600000000000003E-002    -1.0529248979795608E-026
  -3.1550000000000002E-002    -1.2836423932911279E-026
  -3.1500000000000000E-002    -1.0989053367956806E-026
  -3.1449999999999999E-002    -4.3693985243145380E-027
  -3.1399999999999997E-002     5.9166255177532916E-027
  -3.1350000000000003E-002     1.7028288656250534E-026
  -3.1300000000000001E-002     2.5124780301380104E-026
  -3.1250000000000000E-002     2.6711904115849913E-026
  -3.1199999999999999E-002     2.0140098651557685E-026
  -3.1150000000000001E-002     6.5947337614691472E-027
  -3.1100000000000003E-002    -1.0010765410310189E-026
  -3.1050000000000001E-002    -2.4441375872153567E-026
  -3.1000000000000000E-002    -3.2441134005313630E-026
  -3.0949999999999998E-002    -3.2936780377308842E-026
  -3.0900000000000000E-002    -2.8903532628717021E-026
  -3.0850000000000002E-002    -2.5986819414132757E-026
  -3.0800000000000001E-002    -2.8921791580002876E-026
  -3.0750000000000000E-002    -3.7071366522082062E-026
  -3.0699999999999998E-002    -4.1451999996239879E-026
  -3.0650000000000000E-002    -2.5783968799570162E-026
  -3.0600000000000002E-002     2.7048537922707275E-026
  -3.0550000000000001E-002     1.2413199657358826E-025
  -3.0499999999999999E-002     2.5113584596411694E-025
  -3.0449999999999998E-002     3.6636120075017163E-025
  -3.0400000000000000E-002     4.0607411522656060E-025
  -3.0350000000000002E-002     3.0385200309310053E-025
  -3.0300000000000001E-002     2.0901891869377139E-026
  -3.0249999999999999E-002    -4.2232183416846494E-025
  -3.0200000000000001E-002    -9.2748841346648307E-025
  -3.0150000000000000E-002    -1.3266656921772155E-024
  -3.0100000000000002E-002    -1.4243962390055321E-024
  -3.0050000000000000E-002    -1.0676695061767353E-024
  -2.9999999999999999E-002    -2.2320653206583851E-025
  -2.9950000000000001E-002     9.6897640242104751E-025
  -2.9899999999999999E-002     2.1967307181348789E-024
  -2.9850000000000002E-002     3.0486527638234901E-024
  -2.9800000000000000E-002     3.1494099116082121E-024
  -2.9749999999999999E-002     2.3176645318572450E-024
  -2.9700000000000001E-002     6.8436453268697188E-025
  -2.9650000000000003E-002    -1.2922052922172437E-024
  -2.9600000000000001E-002    -2.9511438731616616E-024
  -2.9550000000000000E-002    -3.6775520109971380E-024
  -2.9499999999999998E-002    -3.1970982401319211E-024
  -2.9450000000000000E-002    -1.7919627739793797E-024
  -2.9400000000000003E-002    -3.0883827204924347E-025
  -2.9350000000000001E-002     1.1700668541846829E-025
  -2.9300000000000000E-002    -1.4092630530350872E-024
  -2.9249999999999998E-002    -4.9213381481191584E-024
  -2.9200000000000000E-002    -9.1444368115196452E-024
  -2.9150000000000002E-002    -1.1507984479683656E-023
  -2.9100000000000001E-002    -8.8062005081247591E-024
  -2.9049999999999999E-002     1.5233237769096299E-024
  -2.8999999999999998E-002     1.9817574094551511E-023
  -2.8950000000000000E-002     4.2870844788917102E-023
  -2.8900000000000002E-002     6.3557048182679374E-023
  -2.8850000000000001E-002     7.1932670708834618E-023
  -2.8799999999999999E-002     5.7962188205651560E-023
  -2.8749999999999998E-002     1.5415872507387991E-023
  -2.8700000000000000E-002    -5.4123728368300815E-023
  -2.8650000000000002E-002    -1.3861670416922436E-022
  -2.8600000000000000E-002    -2.1573505659205873E-022
  -2.8549999999999999E-002    -2.5674203428880083E-022
  -2.8500000000000001E-002    -2.3393082413985903E-022
  -2.8450000000000000E-002    -1.3018120068160623E-022
  -2.8400000000000002E-002     5.1948912971217109E-023
  -2.8350000000000000E-002     2.8473701954225615E-022
  -2.8299999999999999E-002     5.1619265042778577E-022
  -2.8250000000000001E-002     6.7874441932451013E-022
  -2.8200000000000003E-002     7.0498072181337047E-022
  -2.8150000000000001E-002     5.4733270390974509E-022
  -2.8100000000000000E-002     1.9670335678812035E-022
  -2.8049999999999999E-002    -3.0565138368260608E-022
  -2.8000000000000001E-002    -8.6777567945270713E-022
  -2.7950000000000003E-002    -1.3604901948114660E-021
  -2.7900000000000001E-002    -1.6434260492589816E-021
  -2.7850000000000000E-002    -1.5986593705363719E-021
  -2.7799999999999998E-002    -1.1642393555580723E-021
  -2.7750000000000000E-002    -3.5898690301599312E-022
  -2.7700000000000002E-002     7.0870634725470047E-022
  -2.7650000000000001E-002     1.8519668162378087E-021
  -2.7600000000000000E-002     2.8356970444372114E-021
  -2.7549999999999998E-002     3.4206807529996706E-021
  -2.7500000000000000E-002     3.4128255911164142E-021
  -2.7450000000000002E-002     2.7075479616068857E-021
  -2.7400000000000001E-002     1.3203258123665742E-021
  -2.7349999999999999E-002    -6.0260059727875238E-022
  -2.7299999999999998E-002    -2.7955031813880607E-021
  -2.7250000000000000E-002    -4.9047115484722657E-021
  -2.7200000000000002E-002    -6.5358885461510923E-021
  -2.7150000000000001E-002    -7.3109540176876309E-021
  -2.7099999999999999E-002    -6.9282165804152484E-021
  -2.7049999999999998E-002    -5.2194565107842916E-021
  -2.7000000000000000E-002    -2.1979234251064860E-021
  -2.6950000000000002E-002     1.9090037079834680E-021
  -2.6900000000000000E-002     6.6491230063314547E-021
  -2.6849999999999999E-002     1.1363362238351398E-020
  -2.6800000000000001E-002     1.5237937921759011E-020
  -2.6749999999999999E-002     1.7393435647419165E-020
  -2.6700000000000002E-002     1.7008703451703861E-020
  -2.6650000000000000E-002     1.3471114564126629E-020
  -2.6599999999999999E-002     6.5377271739306425E-021
  -2.6550000000000001E-002    -3.5149041028141256E-021
  -2.6500000000000003E-002    -1.5780192126947932E-020
  -2.6450000000000001E-002    -2.8681682096030670E-020
  -2.6400000000000000E-002    -4.0036054951087052E-020
  -2.6349999999999998E-002    -4.7247056775227750E-020
  -2.6300000000000000E-002    -4.7647482290185655E-020
  -2.6250000000000002E-002    -3.8985643209157849E-020
  -2.6200000000000001E-002    -2.0020292647868746E-020
  -2.6150000000000000E-002     8.8548333486882909E-021
  -2.6099999999999998E-002     4.5083304845473537E-020
  -2.6050000000000000E-002     8.3680998131541556E-020
  -2.6000000000000002E-002     1.1741408970209701E-019
  -2.5950000000000001E-002     1.3756957245757305E-019
  -2.5899999999999999E-002     1.3537880673722092E-019
  -2.5849999999999998E-002     1.0400510408946594E-019
  -2.5800000000000000E-002     4.0815515586959492E-020
  -2.5750000000000002E-002    -5.0534525112979355E-020
  -2.5700000000000001E-002    -1.5881049573801766E-019
  -2.5649999999999999E-002    -2.6532097316861106E-019
  -2.5599999999999998E-002    -3.4591545766674154E-019
  -2.5550000000000000E-002    -3.7497710261419006E-019
  -2.5500000000000002E-002    -3.3103627618439784E-019
  -2.5450000000000000E-002    -2.0308279304931451E-019
  -2.5399999999999999E-002     3.8123649635124983E-021
  -2.5349999999999998E-002     2.6518085817728677E-019
  -2.5300000000000000E-002     5.3761820597412728E-019
  -2.5250000000000002E-002     7.6392057254781188E-019
  -2.5200000000000000E-002     8.8283195674860181E-019
  -2.5149999999999999E-002     8.4215868106896466E-019
  -2.5100000000000001E-002     6.1286572874769740E-019
  -2.5049999999999999E-002     2.0098599210715528E-019
  -2.5000000000000001E-002    -3.4597677789429693E-019
  -2.4950000000000000E-002    -9.4081796715481489E-019
  -2.4899999999999999E-002    -1.4677965619610004E-018
  -2.4850000000000001E-002    -1.8024047272448305E-018
  -2.4800000000000003E-002    -1.8367767196203136E-018
  -2.4750000000000001E-002    -1.5059551323422270E-018
  -2.4700000000000000E-002    -8.0926308621724431E-019
  -2.4649999999999998E-002     1.7871738245446034E-019
  -2.4600000000000000E-002     1.3115016745496085E-018
  -2.4550000000000002E-002     2.3896621684224436E-018
  -2.4500000000000001E-002     3.1933963499996239E-018
  -2.4450000000000000E-002     3.5235252568399542E-018
  -2.4399999999999998E-002     3.2434217061937321E-018
  -2.4350000000000000E-002     2.3134513128010737E-018
  -2.4299999999999999E-002     8.1035922695423465E-019
  -2.4250000000000001E-002    -1.0734866894801144E-018
  -2.4199999999999999E-002    -3.0524107055336504E-018
  -2.4150000000000001E-002    -4.7886233093990744E-018
  -2.4100000000000000E-002    -5.9459621579880106E-018
  -2.4049999999999998E-002    -6.2473941410238315E-018
  -2.4000000000000000E-002    -5.5267312900800317E-018
  -2.3949999999999999E-002    -3.7659865068740610E-018
  -2.3900000000000001E-002    -1.1122447109889703E-018
  -2.3850000000000000E-002     2.1288378642530748E-018
  -2.3800000000000002E-002     5.5224607431277257E-018
  -2.3750000000000000E-002     8.5537862488469019E-018
  -2.3699999999999999E-002     1.0691605237942998E-017
  -2.3650000000000001E-002     1.1460390592551547E-017
  -2.3599999999999999E-002     1.0514159624944030E-017
  -2.3550000000000001E-002     7.7050959514565178E-018
  -2.3500000000000000E-002     3.1392244619384141E-018
  -2.3449999999999999E-002    -2.7896779805812788E-018
  -2.3400000000000001E-002    -9.3977440738904846E-018
  -2.3349999999999999E-002    -1.5750029261012897E-017
  -2.3300000000000001E-002    -2.0748449764281502E-017
  -2.3250000000000000E-002    -2.3270726388323252E-017
  -2.3199999999999998E-002    -2.2353391896316968E-017
  -2.3150000000000000E-002    -1.7399877310099844E-017
  -2.3099999999999999E-002    -8.3818196237779938E-018
  -2.3050000000000001E-002     4.0086818958617435E-018
  -2.3000000000000000E-002     1.8302485025985164E-017
  -2.2950000000000002E-002     3.2333643013371316E-017
  -2.2900000000000000E-002     4.3480106079587924E-017
  -2.2849999999999999E-002     4.9060003754990324E-017
  -2.2800000000000001E-002     4.6841998408424046E-017
  -2.2749999999999999E-002     3.5591004123496223E-017
  -2.2700000000000001E-002     1.5541432897074810E-017
  -2.2650000000000000E-002    -1.1321416179310745E-017
  -2.2599999999999999E-002    -4.1277732490233505E-017
  -2.2550000000000001E-002    -6.9251923144383387E-017
  -2.2499999999999999E-002    -8.9552245188911058E-017
  -2.2450000000000001E-002    -9.6889506588475314E-017
  -2.2400000000000000E-002    -8.7514083920254199E-017
  -2.2349999999999998E-002    -6.0252433518857812E-017
  -2.2300000000000000E-002    -1.7203906715708072E-017
  -2.2249999999999999E-002     3.6110935953895464E-017
  -2.2200000000000001E-002     9.1276727076737888E-017
  -2.2150000000000000E-002     1.3818573172866306E-016
  -2.2100000000000002E-002     1.6677229289453436E-016
  -2.2050000000000000E-002     1.6899862968628371E-016
  -2.1999999999999999E-002     1.4071700167466016E-016
  -2.1950000000000001E-002     8.3007620134527434E-017
  -2.1899999999999999E-002     2.6494681899331079E-018
  -2.1850000000000001E-002    -8.8478507342972289E-017
  -2.1800000000000000E-002    -1.7506937729629104E-016
  -2.1749999999999999E-002    -2.4091415760737289E-016
  -2.1700000000000001E-002    -2.7186443061942052E-016
  -2.1649999999999999E-002    -2.5868550829063588E-016
  -2.1600000000000001E-002    -1.9922893132927846E-016
  -2.1550000000000000E-002    -9.9445302209337927E-017
  -2.1499999999999998E-002     2.7043195983810932E-017
  -2.1450000000000000E-002     1.6082317827063259E-016
  -2.1399999999999999E-002     2.7975058794149069E-016
  -2.1350000000000001E-002     3.6267503069926407E-016
  -2.1299999999999999E-002     3.9316479471345188E-016
  -2.1250000000000002E-002     3.6255014733526003E-016
  -2.1200000000000000E-002     2.7171921862125455E-016
  -2.1149999999999999E-002     1.3132917100262289E-016
  -2.1100000000000001E-002    -3.9611607806406837E-017
  -2.1049999999999999E-002    -2.1653817559022610E-016
  -2.1000000000000001E-002    -3.7301130526645826E-016
  -2.0950000000000000E-002    -4.8466410051999632E-016
  -2.0899999999999998E-002    -5.3278216740397892E-016
  -2.0850000000000000E-002    -5.0699713532949170E-016
  -2.0799999999999999E-002    -4.0676589387367875E-016
  -2.0750000000000001E-002    -2.4153210937745229E-016
  -2.0700000000000000E-002    -2.9669942595880898E-017
  -2.0649999999999998E-002     2.0355342880914149E-016
  -2.0600000000000000E-002     4.2870033287506997E-016
  -2.0549999999999999E-002     6.1529312836573778E-016
  -2.0500000000000001E-002     7.3512943066626766E-016
  -2.0449999999999999E-002     7.6560918218283106E-016
  -2.0400000000000001E-002     6.9290637536503514E-016
  -2.0350000000000000E-002     5.1475601557740372E-016
  -2.0299999999999999E-002     2.4251349221139562E-016
  -2.0250000000000001E-002    -9.7981953146677735E-017
  -2.0199999999999999E-002    -4.6727186265252474E-016
  -2.0150000000000001E-002    -8.1533513708274360E-016
  -2.0100000000000000E-002    -1.0870533905532585E-015
  -2.0049999999999998E-002    -1.2298653313547543E-015
  -2.0000000000000000E-002    -1.2028256487466614E-015
  -1.9949999999999999E-002    -9.8571106476624178E-016
  -1.9900000000000001E-002    -5.8638343142604432E-016
  -1.9850000000000000E-002    -4.4504426017430567E-017
  -1.9799999999999998E-002     5.6999502975686607E-016
  -1.9750000000000000E-002     1.1645103472743874E-015
  -1.9699999999999999E-002     1.6370876822771126E-015
  -1.9650000000000001E-002     1.8938065457407654E-015
  -1.9599999999999999E-002     1.8673314817487725E-015
  -1.9550000000000001E-002     1.5329606526683867E-015
  -1.9500000000000000E-002     9.1843593824964656E-016
  -1.9449999999999999E-002     1.0456643600824681E-016
  -1.9400000000000001E-002    -7.8467968774601438E-016
  -1.9349999999999999E-002    -1.6018093693358123E-015
  -1.9300000000000001E-002    -2.2020988713089930E-015
  -1.9250000000000000E-002    -2.4716313202628690E-015
  -1.9199999999999998E-002    -2.3512400471206576E-015
  -1.9150000000000000E-002    -1.8508487892950849E-015
  -1.9099999999999999E-002    -1.0503629159698953E-015
  -1.9050000000000001E-002    -8.5996139536170517E-017
  -1.9000000000000000E-002     8.7582516979106906E-016
  -1.8949999999999998E-002     1.6718073211936970E-015
  -1.8900000000000000E-002     2.1751675751799666E-015
  -1.8849999999999999E-002     2.3213696645507163E-015
  -1.8800000000000001E-002     2.1199240839039354E-015
  -1.8749999999999999E-002     1.6489977704553056E-015
  -1.8700000000000001E-002     1.0336410520954981E-015
  -1.8650000000000000E-002     4.1259066075602639E-016
  -1.8599999999999998E-002    -9.8203673998326488E-017
  -1.8550000000000001E-002    -4.3585361541272967E-016
  -1.8499999999999999E-002    -6.0615146391722779E-016
  -1.8450000000000001E-002    -6.7939081706935357E-016
  -1.8400000000000000E-002    -7.6617855064585977E-016
  -1.8349999999999998E-002    -9.7845054403661649E-016
  -1.8300000000000000E-002    -1.3854577260334593E-015
  -1.8249999999999999E-002    -1.9769005686469057E-015
  -1.8200000000000001E-002    -2.6448523687903354E-015
  -1.8149999999999999E-002    -3.1924566204654859E-015
  -1.8100000000000002E-002    -3.3712489772123670E-015
  -1.8050000000000000E-002    -2.9416385748415329E-015
  -1.7999999999999999E-002    -1.7442935268507516E-015
  -1.7950000000000001E-002     2.3432653555599196E-016
  -1.7899999999999999E-002     2.8199674765392053E-015
  -1.7850000000000001E-002     5.6464677665879873E-015
  -1.7800000000000000E-002     8.1968118573034609E-015
  -1.7749999999999998E-002     9.8869570001306257E-015
  -1.7700000000000000E-002     1.0179908940830492E-014
  -1.7649999999999999E-002     8.7090708135570196E-015
  -1.7600000000000001E-002     5.3853382937108360E-015
  -1.7550000000000000E-002     4.6289763419743019E-016
  -1.7499999999999998E-002    -5.4552776616412758E-015
  -1.7450000000000000E-002    -1.1480681850062185E-014
  -1.7399999999999999E-002    -1.6566512383979739E-014
  -1.7350000000000001E-002    -1.9680798586571274E-014
  -1.7299999999999999E-002    -1.9996754618457825E-014
  -1.7250000000000001E-002    -1.7066043612696460E-014
  -1.7200000000000000E-002    -1.0941361497729929E-014
  -1.7149999999999999E-002    -2.2219639156952543E-015
  -1.7100000000000001E-002     7.9917355765825228E-015
  -1.7049999999999999E-002     1.8232835521239836E-014
  -1.7000000000000001E-002     2.6874508505605437E-014
  -1.6950000000000000E-002     3.2378066864365210E-014
  -1.6899999999999998E-002     3.3544278804848668E-014
  -1.6850000000000000E-002     2.9728212671829790E-014
  -1.6799999999999999E-002     2.0982813662333454E-014
  -1.6750000000000001E-002     8.1069430111737487E-015
  -1.6700000000000000E-002    -7.4126889845089747E-015
  -1.6649999999999998E-002    -2.3561332252130197E-014
  -1.6600000000000000E-002    -3.8039875457432266E-014
  -1.6549999999999999E-002    -4.8563814492584469E-014
  -1.6500000000000001E-002    -5.3182054183076860E-014
  -1.6449999999999999E-002    -5.0577330921987013E-014
  -1.6400000000000001E-002    -4.0310571546091245E-014
  -1.6350000000000000E-002    -2.2975320806527165E-014
  -1.6299999999999999E-002    -2.3460050759995954E-016
  -1.6250000000000001E-002     2.5278310344894123E-014
  -1.6199999999999999E-002     5.0201738067706202E-014
  -1.6150000000000001E-002     7.0821132642052218E-014
  -1.6100000000000000E-002     8.3550809759678537E-014
  -1.6049999999999998E-002     8.5474122783585108E-014
  -1.6000000000000000E-002     7.4874883371939888E-014
  -1.5949999999999999E-002     5.1678530059590420E-014
  -1.5900000000000001E-002     1.7716851724401772E-014
  -1.5850000000000000E-002    -2.3260454158666567E-014
  -1.5799999999999998E-002    -6.5878315974477415E-014
  -1.5750000000000000E-002    -1.0374159544124781E-013
  -1.5699999999999999E-002    -1.3030856037359840E-013
  -1.5650000000000001E-002    -1.3993053055483140E-013
  -1.5599999999999999E-002    -1.2890643745018717E-013
  -1.5550000000000001E-002    -9.6370543163805674E-014
  -1.5500000000000000E-002    -4.4830721114303950E-014
  -1.5449999999999998E-002     1.9791209471226125E-014
  -1.5400000000000000E-002     8.8697801175351058E-014
  -1.5349999999999999E-002     1.5131916512720593E-013
  -1.5300000000000001E-002     1.9686234206879216E-013
  -1.5250000000000000E-002     2.1609083173979679E-013
  -1.5199999999999998E-002     2.0304908923182664E-013
  -1.5150000000000000E-002     1.5642298956788866E-013
  -1.5099999999999999E-002     8.0257573683705613E-014
  -1.5050000000000001E-002    -1.6161250973312469E-014
  -1.4999999999999999E-002    -1.1932506071416258E-013
  -1.4949999999999998E-002    -2.1333272240276281E-013
  -1.4900000000000000E-002    -2.8229208439215505E-013
  -1.4849999999999999E-002    -3.1293405893450056E-013
  -1.4800000000000001E-002    -2.9701345965855315E-013
  -1.4749999999999999E-002    -2.3307462972604198E-013
  -1.4700000000000001E-002    -1.2723717863828103E-013
  -1.4650000000000000E-002     7.2008611715920647E-015
  -1.4599999999999998E-002     1.5136035216537648E-013
  -1.4550000000000000E-002     2.8339766527328481E-013
  -1.4499999999999999E-002     3.8177965840428706E-013
  -1.4450000000000001E-002     4.2872656274129568E-013
  -1.4400000000000000E-002     4.1327672772023788E-013
  -1.4349999999999998E-002     3.3345930614998282E-013
  -1.4300000000000000E-002     1.9717519374794667E-013
  -1.4249999999999999E-002     2.1574747329431747E-014
  -1.4200000000000001E-002    -1.6905244759600935E-013
  -1.4149999999999999E-002    -3.4662327159784942E-013
  -1.4099999999999998E-002    -4.8338325992235271E-013
  -1.4050000000000000E-002    -5.5620206844224921E-013
  -1.3999999999999999E-002    -5.5038371734162267E-013
  -1.3950000000000001E-002    -4.6237649115754335E-013
  -1.3899999999999999E-002    -3.0091089894316215E-013
  -1.3850000000000001E-002    -8.6311766986440394E-014
  -1.3800000000000000E-002     1.5199818592110567E-013
  -1.3749999999999998E-002     3.7951060439618885E-013
  -1.3700000000000000E-002     5.6162196096226953E-013
  -1.3649999999999999E-002     6.6889135098418990E-013
  -1.3600000000000001E-002     6.8178134993026401E-013
  -1.3550000000000000E-002     5.9413836847769097E-013
  -1.3499999999999998E-002     4.1482071257809026E-013
  -1.3450000000000000E-002     1.6713221155456054E-013
  -1.3399999999999999E-002    -1.1397340202977507E-013
  -1.3350000000000001E-002    -3.8661923831792086E-013
  -1.3299999999999999E-002    -6.0806303047344832E-013
  -1.3249999999999998E-002    -7.4125068501323213E-013
  -1.3200000000000000E-002    -7.6090562123658997E-013
  -1.3149999999999998E-002    -6.5820150715731154E-013
  -1.3100000000000001E-002    -4.4321207826699524E-013
  -1.3049999999999999E-002    -1.4461060212806015E-013
  -1.3000000000000001E-002     1.9353457636991560E-013
  -1.2950000000000000E-002     5.1759014731500768E-013
  -1.2899999999999998E-002     7.7211406593110626E-013
  -1.2850000000000000E-002     9.0848650588235104E-013
  -1.2799999999999999E-002     8.9314213520908835E-013