  -4.0000000000000001E-002     0.0000000000000000     
  -3.9949999999999999E-002     0.0000000000000000     
  -3.9899999999999998E-002     0.0000000000000000     
  -3.9850000000000003E-002     0.0000000000000000     
  -3.9800000000000002E-002     0.0000000000000000     
  -3.9750000000000001E-002     0.0000000000000000     
  -3.9699999999999999E-002     0.0000000000000000     
  -3.9649999999999998E-002     0.0000000000000000     
  -3.9600000000000003E-002     0.0000000000000000     
  -3.9550000000000002E-002     0.0000000000000000     
  -3.9500000000000000E-002     0.0000000000000000     
  -3.9449999999999999E-002     0.0000000000000000     
  -3.9399999999999998E-002     0.0000000000000000     
  -3.9350000000000003E-002     0.0000000000000000     
  -3.9300000000000002E-002     0.0000000000000000     
  -3.9250000000000000E-002     0.0000000000000000     
  -3.9199999999999999E-002     0.0000000000000000     
  -3.9150000000000004E-002     0.0000000000000000     
  -3.9100000000000003E-002     0.0000000000000000     
  -3.9050000000000001E-002     0.0000000000000000     
  -3.9000000000000000E-002     0.0000000000000000     
  -3.8949999999999999E-002     0.0000000000000000     
  -3.8900000000000004E-002     0.0000000000000000     
  -3.8850000000000003E-002     0.0000000000000000     
  -3.8800000000000001E-002     0.0000000000000000     
  -3.8750000000000000E-002     0.0000000000000000     
  -3.8699999999999998E-002     0.0000000000000000     
  -3.8650000000000004E-002     0.0000000000000000     
  -3.8600000000000002E-002     0.0000000000000000     
  -3.8550000000000001E-002     0.0000000000000000     
  -3.8500000000000000E-002     0.0000000000000000     
  -3.8449999999999998E-002     0.0000000000000000     
  -3.8400000000000004E-002     0.0000000000000000     
  -3.8350000000000002E-002     0.0000000000000000     
  -3.8300000000000001E-002     0.0000000000000000     
  -3.8249999999999999E-002     0.0000000000000000     
  -3.8199999999999998E-002     0.0000000000000000     
  -3.8150000000000003E-002     0.0000000000000000     
  -3.8100000000000002E-002     0.0000000000000000     
  -3.8050000000000000E-002     0.0000000000000000     
  -3.7999999999999999E-002     0.0000000000000000     
  -3.7949999999999998E-002     0.0000000000000000     
  -3.7900000000000003E-002     0.0000000000000000     
  -3.7850000000000002E-002     0.0000000000000000     
  -3.7800000000000000E-002     0.0000000000000000     
  -3.7749999999999999E-002     0.0000000000000000     
  -3.7699999999999997E-002     0.0000000000000000     
  -3.7650000000000003E-002     0.0000000000000000     
  -3.7600000000000001E-002     0.0000000000000000     
  -3.7550000000000000E-002     0.0000000000000000     
  -3.7499999999999999E-002     0.0000000000000000     
  -3.7449999999999997E-002     0.0000000000000000     
  -3.7400000000000003E-002     0.0000000000000000     
  -3.7350000000000001E-002     0.0000000000000000     
  -3.7300000000000000E-002     0.0000000000000000     
  -3.7249999999999998E-002     0.0000000000000000     
  -3.7200000000000004E-002     0.0000000000000000     
  -3.7150000000000002E-002     0.0000000000000000     
  -3.7100000000000001E-002     0.0000000000000000     
  -3.7050000000000000E-002     0.0000000000000000     
  -3.6999999999999998E-002     0.0000000000000000     
  -3.6950000000000004E-002     0.0000000000000000     
  -3.6900000000000002E-002     0.0000000000000000     
  -3.6850000000000001E-002     0.0000000000000000     
  -3.6799999999999999E-002     0.0000000000000000     
  -3.6749999999999998E-002     0.0000000000000000     
  -3.6700000000000003E-002     0.0000000000000000     
  -3.6650000000000002E-002     0.0000000000000000     
  -3.6600000000000001E-002     0.0000000000000000     
  -3.6549999999999999E-002     0.0000000000000000     
  -3.6499999999999998E-002     0.0000000000000000     
  -3.6450000000000003E-002     0.0000000000000000     
  -3.6400000000000002E-002     0.0000000000000000     
  -3.6350000000000000E-002     0.0000000000000000     
  -3.6299999999999999E-002     0.0000000000000000     
  -3.6249999999999998E-002     0.0000000000000000     
  -3.6200000000000003E-002     0.0000000000000000     
  -3.6150000000000002E-002     0.0000000000000000     
  -3.6100000000000000E-002     0.0000000000000000     
  -3.6049999999999999E-002     0.0000000000000000     
  -3.6000000000000004E-002     0.0000000000000000     
  -3.5950000000000003E-002     0.0000000000000000     
  -3.5900000000000001E-002     0.0000000000000000     
  -3.5850000000000000E-002     0.0000000000000000     
  -3.5799999999999998E-002     0.0000000000000000     
  -3.5750000000000004E-002     0.0000000000000000     
  -3.5700000000000003E-002     0.0000000000000000     
  -3.5650000000000001E-002     0.0000000000000000     
  -3.5600000000000000E-002     0.0000000000000000     
  -3.5549999999999998E-002     0.0000000000000000     
  -3.5500000000000004E-002     0.0000000000000000     
  -3.5450000000000002E-002     0.0000000000000000     
  -3.5400000000000001E-002     0.0000000000000000     
  -3.5349999999999999E-002     0.0000000000000000     
  -3.5299999999999998E-002     0.0000000000000000     
  -3.5250000000000004E-002     0.0000000000000000     
  -3.5200000000000002E-002     0.0000000000000000     
  -3.5150000000000001E-002     0.0000000000000000     
  -3.5099999999999999E-002     0.0000000000000000     
  -3.5049999999999998E-002     0.0000000000000000     
  -3.5000000000000003E-002     0.0000000000000000     
  -3.4950000000000002E-002     0.0000000000000000     
  -3.4900000000000000E-002     0.0000000000000000     
  -3.4849999999999999E-002     0.0000000000000000     
  -3.4799999999999998E-002     0.0000000000000000     
  -3.4750000000000003E-002     0.0000000000000000     
  -3.4700000000000002E-002     0.0000000000000000     
  -3.4650000000000000E-002     0.0000000000000000     
  -3.4599999999999999E-002     0.0000000000000000     
  -3.4549999999999997E-002     0.0000000000000000     
  -3.4500000000000003E-002     0.0000000000000000     
  -3.4450000000000001E-002     0.0000000000000000     
  -3.4400000000000000E-002     0.0000000000000000     
  -3.4349999999999999E-002     0.0000000000000000     
  -3.4299999999999997E-002     0.0000000000000000     
  -3.4250000000000003E-002     0.0000000000000000     
  -3.4200000000000001E-002     0.0000000000000000     
  -3.4150000000000000E-002     0.0000000000000000     
  -3.4099999999999998E-002     0.0000000000000000     
  -3.4049999999999997E-002     0.0000000000000000     
  -3.4000000000000002E-002     0.0000000000000000     
  -3.3950000000000001E-002     0.0000000000000000     
  -3.3900000000000000E-002     0.0000000000000000     
  -3.3849999999999998E-002     0.0000000000000000     
  -3.3799999999999997E-002     0.0000000000000000     
  -3.3750000000000002E-002     0.0000000000000000     
  -3.3700000000000001E-002     0.0000000000000000     
  -3.3649999999999999E-002     0.0000000000000000     
  -3.3599999999999998E-002     0.0000000000000000     
  -3.3550000000000003E-002     0.0000000000000000     
  -3.3500000000000002E-002     0.0000000000000000     
  -3.3450000000000001E-002     0.0000000000000000     
  -3.3399999999999999E-002     0.0000000000000000     
  -3.3349999999999998E-002     0.0000000000000000     
  -3.3300000000000003E-002     0.0000000000000000     
  -3.3250000000000002E-002     0.0000000000000000     
  -3.3200000000000000E-002     0.0000000000000000     
  -3.3149999999999999E-002     0.0000000000000000     
  -3.3099999999999997E-002     0.0000000000000000     
  -3.3050000000000003E-002     0.0000000000000000     
  -3.3000000000000002E-002     0.0000000000000000     
  -3.2950000000000000E-002     0.0000000000000000     
  -3.2899999999999999E-002     0.0000000000000000     
  -3.2850000000000004E-002     0.0000000000000000     
  -3.2800000000000003E-002     0.0000000000000000     
  -3.2750000000000001E-002     0.0000000000000000     
  -3.2700000000000000E-002     0.0000000000000000     
  -3.2649999999999998E-002     0.0000000000000000     
  -3.2600000000000004E-002     0.0000000000000000     
  -3.2550000000000003E-002     0.0000000000000000     
  -3.2500000000000001E-002     0.0000000000000000     
  -3.2450000000000000E-002     0.0000000000000000     
  -3.2399999999999998E-002     0.0000000000000000     
  -3.2350000000000004E-002     0.0000000000000000     
  -3.2300000000000002E-002     0.0000000000000000     
  -3.2250000000000001E-002     0.0000000000000000     
  -3.2199999999999999E-002     0.0000000000000000     
  -3.2149999999999998E-002     0.0000000000000000     
  -3.2100000000000004E-002     0.0000000000000000     
  -3.2050000000000002E-002     0.0000000000000000     
  -3.2000000000000001E-002     0.0000000000000000     
  -3.1949999999999999E-002     0.0000000000000000     
  -3.1899999999999998E-002     0.0000000000000000     
  -3.1850000000000003E-002     0.0000000000000000     
  -3.1800000000000002E-002     0.0000000000000000     
  -3.1750000000000000E-002     0.0000000000000000     
  -3.1699999999999999E-002     0.0000000000000000     
  -3.1649999999999998E-002     0.0000000000000000     
  -3.1600000000000003E-002     0.0000000000000000     
  -3.1550000000000002E-002     0.0000000000000000     
  -3.1500000000000000E-002     0.0000000000000000     
  -3.1449999999999999E-002     0.0000000000000000     
  -3.1399999999999997E-002     0.0000000000000000     
  -3.1350000000000003E-002     0.0000000000000000     
  -3.1300000000000001E-002     0.0000000000000000     
  -3.1250000000000000E-002     0.0000000000000000     
  -3.1199999999999999E-002     0.0000000000000000     
  -3.1150000000000001E-002     0.0000000000000000     
  -3.1100000000000003E-002     0.0000000000000000     
  -3.1050000000000001E-002     0.0000000000000000     
  -3.1000000000000000E-002     0.0000000000000000     
  -3.0949999999999998E-002     0.0000000000000000     
  -3.0900000000000000E-002     0.0000000000000000     
  -3.0850000000000002E-002     0.0000000000000000     
  -3.0800000000000001E-002     0.0000000000000000     
  -3.0750000000000000E-002     0.0000000000000000     
  -3.0699999999999998E-002     0.0000000000000000     
  -3.0650000000000000E-002     0.0000000000000000     
  -3.0600000000000002E-002     0.0000000000000000     
  -3.0550000000000001E-002     0.0000000000000000     
  -3.0499999999999999E-002     0.0000000000000000     
  -3.0449999999999998E-002     0.0000000000000000     
  -3.0400000000000000E-002     0.0000000000000000     
  -3.0350000000000002E-002     0.0000000000000000     
  -3.0300000000000001E-002     0.0000000000000000     
  -3.0249999999999999E-002     0.0000000000000000     
  -3.0200000000000001E-002     0.0000000000000000     
  -3.0150000000000000E-002     0.0000000000000000     
  -3.0100000000000002E-002     0.0000000000000000     
  -3.0050000000000000E-002     0.0000000000000000     
  -2.9999999999999999E-002     0.0000000000000000     
  -2.9950000000000001E-002     0.0000000000000000     
  -2.9899999999999999E-002     0.0000000000000000     
  -2.9850000000000002E-002     0.0000000000000000     
  -2.9800000000000000E-002     0.0000000000000000     
  -2.9749999999999999E-002     0.0000000000000000     
  -2.9700000000000001E-002     0.0000000000000000     
  -2.9650000000000003E-002     0.0000000000000000     
  -2.9600000000000001E-002     0.0000000000000000     
  -2.9550000000000000E-002     0.0000000000000000     
  -2.9499999999999998E-002     0.0000000000000000     
  -2.9450000000000000E-002     0.0000000000000000     
  -2.9400000000000003E-002     0.0000000000000000     
  -2.9350000000000001E-002     0.0000000000000000     
  -2.9300000000000000E-002     0.0000000000000000     
  -2.9249999999999998E-002     0.0000000000000000     
  -2.9200000000000000E-002     0.0000000000000000     
  -2.9150000000000002E-002     0.0000000000000000     
  -2.9100000000000001E-002     0.0000000000000000     
  -2.9049999999999999E-002     0.0000000000000000     
  -2.8999999999999998E-002     0.0000000000000000     
  -2.8950000000000000E-002     0.0000000000000000     
  -2.8900000000000002E-002     0.0000000000000000     
  -2.8850000000000001E-002     0.0000000000000000     
  -2.8799999999999999E-002     0.0000000000000000     
  -2.8749999999999998E-002     0.0000000000000000     
  -2.8700000000000000E-002     0.0000000000000000     
  -2.8650000000000002E-002     0.0000000000000000     
  -2.8600000000000000E-002     0.0000000000000000     
  -2.8549999999999999E-002     0.0000000000000000     
  -2.8500000000000001E-002     0.0000000000000000     
  -2.8450000000000000E-002     0.0000000000000000     
  -2.8400000000000002E-002     0.0000000000000000     
  -2.8350000000000000E-002     0.0000000000000000     
  -2.8299999999999999E-002     0.0000000000000000     
  -2.8250000000000001E-002     0.0000000000000000     
  -2.8200000000000003E-002     0.0000000000000000     
  -2.8150000000000001E-002     0.0000000000000000     
  -2.8100000000000000E-002     0.0000000000000000     
  -2.8049999999999999E-002     0.0000000000000000     
  -2.8000000000000001E-002     0.0000000000000000     
  -2.7950000000000003E-002     0.0000000000000000     
  -2.7900000000000001E-002     0.0000000000000000     
  -2.7850000000000000E-002     0.0000000000000000     
  -2.7799999999999998E-002     0.0000000000000000     
  -2.7750000000000000E-002     0.0000000000000000     
  -2.7700000000000002E-002     0.0000000000000000     
  -2.7650000000000001E-002     0.0000000000000000     
  -2.7600000000000000E-002     0.0000000000000000     
  -2.7549999999999998E-002     0.0000000000000000     
  -2.7500000000000000E-002     0.0000000000000000     
  -2.7450000000000002E-002     0.0000000000000000     
  -2.7400000000000001E-002     0.0000000000000000     
  -2.7349999999999999E-002     0.0000000000000000     
  -2.7299999999999998E-002     0.0000000000000000     
  -2.7250000000000000E-002     0.0000000000000000     
  -2.7200000000000002E-002     0.0000000000000000     
  -2.7150000000000001E-002     0.0000000000000000     
  -2.7099999999999999E-002     0.0000000000000000     
  -2.7049999999999998E-002     0.0000000000000000     
  -2.7000000000000000E-002     0.0000000000000000     
  -2.6950000000000002E-002     0.0000000000000000     
  -2.6900000000000000E-002    -3.8114611474546270E-040
  -2.6849999999999999E-002    -3.8114611474546270E-040
  -2.6800000000000001E-002    -3.8114611474546270E-040
  -2.6749999999999999E-002     4.1636414864618459E-040
  -2.6700000000000002E-002     1.6093306173684489E-039
  -2.6650000000000000E-002     1.9929384755983778E-039
  -2.6599999999999999E-002     1.5102556122558624E-039
  -2.6550000000000001E-002     8.1333875651314916E-040
  -2.6500000000000003E-002     1.2746178216276875E-039
  -2.6450000000000001E-002     2.4489054974750843E-039
  -2.6400000000000000E-002     3.5547381595312909E-039
  -2.6349999999999998E-002     5.1542747331121962E-040
  -2.6300000000000000E-002    -9.2661009852401622E-039
  -2.6250000000000002E-002    -2.4629624690481186E-038
  -2.6200000000000001E-002    -3.7347575605988041E-038
  -2.6150000000000000E-002    -3.5768145512177833E-038
  -2.6099999999999998E-002    -1.1241205387705356E-038
  -2.6050000000000000E-002     4.2349129236347429E-038
  -2.6000000000000002E-002     7.3282864853620724E-038
  -2.5950000000000001E-002     8.8677997482698938E-038
  -2.5899999999999999E-002     6.1127313108346756E-038
  -2.5849999999999998E-002     2.3782866713705386E-038
  -2.5800000000000000E-002    -1.4667234498638244E-038
  -2.5750000000000002E-002    -5.0902613628918632E-038
  -2.5700000000000001E-002    -8.7115416859655985E-038
  -2.5649999999999999E-002    -1.1899673654435865E-037
  -2.5599999999999998E-002    -1.4260856800402226E-037
  -2.5550000000000000E-002    -1.3544296901804936E-037
  -2.5500000000000002E-002    -7.8429826935650607E-038
  -2.5450000000000000E-002     2.7735480757840841E-038
  -2.5399999999999999E-002     1.4982759624684752E-037
  -2.5349999999999998E-002     2.2958259713052902E-037
  -2.5300000000000000E-002     2.1724790755087097E-037
  -2.5250000000000002E-002     1.1287395601184256E-037
  -2.5200000000000000E-002    -1.1785022947412736E-038
  -2.5149999999999999E-002    -3.2034181579578464E-038
  -2.5100000000000001E-002     1.6947549844345346E-037
  -2.5049999999999999E-002     6.1108107055296683E-037
  -2.5000000000000001E-002     1.1426485719809180E-036
  -2.4950000000000000E-002     1.4143622191172967E-036
  -2.4899999999999999E-002     9.9273343993644632E-037
  -2.4850000000000001E-002    -4.7295258825136199E-037
  -2.4800000000000003E-002    -3.0017356720649856E-036
  -2.4750000000000001E-002    -6.0641614159750685E-036
  -2.4700000000000000E-002    -8.5072808792120918E-036
  -2.4649999999999998E-002    -8.7304906955583902E-036
  -2.4600000000000000E-002    -5.1641462772451932E-036
  -2.4550000000000002E-002     3.0006927859833985E-036
  -2.4500000000000001E-002     1.5021176646978803E-035
  -2.4450000000000000E-002     2.8063704690232048E-035
  -2.4399999999999998E-002     3.7281960832008790E-035
  -2.4350000000000000E-002     3.6791216086204890E-035
  -2.4299999999999999E-002     2.1574146544454308E-035
  -2.4250000000000001E-002    -1.0031499662321335E-035
  -2.4199999999999999E-002    -5.4020640470349059E-035
  -2.4150000000000001E-002    -9.9619912971094387E-035
  -2.4100000000000000E-002    -1.3038974643625316E-034
  -2.4049999999999998E-002    -1.2804709225327922E-034
  -2.4000000000000000E-002    -7.8640933233959652E-035
  -2.3949999999999999E-002     2.0379767576758298E-035
  -2.3900000000000001E-002     1.5458204617976172E-034
  -2.3850000000000000E-002     2.9114928655806552E-034
  -2.3800000000000002E-002     3.8373981313395195E-034
  -2.3750000000000000E-002     3.8402959759761903E-034
  -2.3699999999999999E-002     2.5798997095063080E-034
  -2.3650000000000001E-002     2.5390756503557802E-036
  -2.3599999999999999E-002    -3.4332311341820234E-034
  -2.3550000000000001E-002    -6.9855995559703808E-034
  -2.3500000000000000E-002    -9.5455963633013086E-034
  -2.3449999999999999E-002    -1.0029095544288756E-033
  -2.3400000000000001E-002    -7.7026901918877682E-034
  -2.3349999999999999E-002    -2.5001688498554086E-034
  -2.3300000000000001E-002     4.8089092930278243E-034
  -2.3250000000000000E-002     1.2685556964981239E-033
  -2.3199999999999998E-002     1.9141793479578856E-033
  -2.3150000000000000E-002     2.2244993693454472E-033
  -2.3099999999999999E-002     2.0657241950793052E-033
  -2.3050000000000001E-002     1.4027886948950746E-033
  -2.3000000000000000E-002     3.0948235111883859E-034
  -2.2950000000000002E-002    -1.0543278802004926E-033
  -2.2900000000000000E-002    -2.4878616563595729E-033
  -2.2849999999999999E-002    -3.7945435306734771E-033
  -2.2800000000000001E-002    -4.8017783171958839E-033
  -2.2749999999999999E-002    -5.3406452398267392E-033
  -2.2700000000000001E-002    -5.1939848286383926E-033
  -2.2650000000000000E-002    -4.0494398257644679E-033
  -2.2599999999999999E-002    -1.5137594399300619E-033
  -2.2550000000000001E-002     2.7587690610551203E-033
  -2.2499999999999999E-002     8.8071130066632779E-033
  -2.2450000000000001E-002     1.6023501818401179E-032
  -2.2400000000000000E-002     2.2861382548336628E-032
  -2.2349999999999998E-002     2.6777930876813435E-032
  -2.2300000000000000E-002     2.4596996204163161E-032
  -2.2249999999999999E-002     1.3389603938892533E-032
  -2.2200000000000001E-002    -8.2094764444456632E-033
  -2.2150000000000000E-002    -3.8563470390381081E-032
  -2.2100000000000002E-002    -7.2000012392822724E-032
  -2.2050000000000000E-002    -9.8801268681206654E-032
  -2.1999999999999999E-002    -1.0672032523533609E-031
  -2.1950000000000001E-002    -8.4158564851992806E-032
  -2.1899999999999999E-002    -2.4561709458615063E-032
  -2.1850000000000001E-002     6.9053196101836183E-032
  -2.1800000000000000E-002     1.8102183566880474E-031
  -2.1749999999999999E-002     2.8308920021719074E-031
  -2.1700000000000001E-002     3.3880280441763420E-031
  -2.1649999999999999E-002     3.1236379786413411E-031
  -2.1600000000000001E-002     1.8054831075565974E-031
  -2.1550000000000000E-002    -5.5223236476627710E-032
  -2.1499999999999998E-002    -3.6062390822682794E-031
  -2.1450000000000000E-002    -6.6793184287986918E-031
  -2.1399999999999999E-002    -8.8595940173032013E-031
  -2.1350000000000001E-002    -9.2045010480326435E-031
  -2.1299999999999999E-002    -7.0164072364248167E-031
  -2.1250000000000002E-002    -2.1248559532493236E-031
  -2.1200000000000000E-002     4.9091625891558339E-031
  -2.1149999999999999E-002     1.2749268930986888E-030
  -2.1100000000000001E-002     1.9453843746703026E-030
  -2.1049999999999999E-002     2.2862514080334041E-030
  -2.1000000000000001E-002     2.1137904526236654E-030
  -2.0950000000000000E-002     1.3343969685817907E-030
  -2.0899999999999998E-002    -9.1319134364277084E-033
  -2.0850000000000000E-002    -1.7176366268553205E-030
  -2.0799999999999999E-002    -3.4519737457534435E-030
  -2.0750000000000001E-002    -4.7876563624422457E-030
  -2.0700000000000000E-002    -5.3001525547374989E-030
  -2.0649999999999998E-002    -4.6648380181314818E-030
  -2.0600000000000000E-002    -2.7507133211775737E-030
  -2.0549999999999999E-002     3.1309627632768776E-031
  -2.0500000000000001E-002     4.1143614017812529E-030
  -2.0449999999999999E-002     7.9869107825059937E-030
  -2.0400000000000001E-002     1.1092015474189192E-029
  -2.0350000000000000E-002     1.2545004345867452E-029
  -2.0299999999999999E-002     1.1575185554739682E-029
  -2.0250000000000001E-002     7.7037592850463233E-030
  -2.0199999999999999E-002     9.2006589864651355E-031
  -2.0150000000000001E-002    -8.1703923918219955E-030
  -2.0100000000000000E-002    -1.8262936502367223E-029
  -2.0049999999999998E-002    -2.7382453301066780E-029
  -2.0000000000000000E-002    -3.3073468969511735E-029
  -1.9949999999999999E-002    -3.2788069066811365E-029
  -1.9900000000000001E-002    -2.4471019875245969E-029
  -1.9850000000000000E-002    -7.2797792566215338E-030
  -1.9799999999999998E-002     1.7700896516533505E-029
  -1.9750000000000000E-002     4.6962223822455906E-029
  -1.9699999999999999E-002     7.4541538506129276E-029
  -1.9650000000000001E-002     9.2677397413621251E-029
  -1.9599999999999999E-002     9.3248437022842452E-029
  -1.9550000000000001E-002     6.9889585828016372E-029
  -1.9500000000000000E-002     2.0422016673171874E-029
  -1.9449999999999999E-002    -5.1008919611234845E-029
  -1.9400000000000001E-002    -1.3283508352380443E-028
  -1.9349999999999999E-002    -2.0670996261095682E-028
  -1.9300000000000001E-002    -2.5031842828780072E-028
  -1.9250000000000000E-002    -2.4226579391625298E-028
  -1.9199999999999998E-002    -1.6830790292709607E-028
  -1.9150000000000000E-002    -2.7549634132583013E-029
  -1.9099999999999999E-002     1.6317939424979772E-028
  -1.9050000000000001E-002     3.6857016796386232E-028
  -1.9000000000000000E-002     5.3897775949041028E-028
  -1.8949999999999998E-002     6.1969804788791443E-028
  -1.8900000000000000E-002     5.6422204585175731E-028
  -1.8849999999999999E-002     3.4888665448867735E-028
  -1.8800000000000001E-002    -1.4713625042525120E-029
  -1.8749999999999999E-002    -4.7348263829701460E-028
  -1.8700000000000001E-002    -9.3594979453097590E-028
  -1.8650000000000000E-002    -1.2862032694825885E-027
  -1.8599999999999998E-002    -1.4075180275929053E-027
  -1.8550000000000001E-002    -1.2117692832092392E-027
  -1.8499999999999999E-002    -6.6838611285933454E-028
  -1.8450000000000001E-002     1.7458928200725389E-028
  -1.8400000000000000E-002     1.1842803740062868E-027
  -1.8349999999999998E-002     2.1562131447376516E-027
  -1.8300000000000000E-002     2.8477473656387754E-027
  -1.8249999999999999E-002     3.0277096463747681E-027
  -1.8200000000000001E-002     2.5336607747189445E-027
  -1.8149999999999999E-002     1.3249163327228230E-027
  -1.8100000000000002E-002    -4.8169073942311601E-028
  -1.8050000000000000E-002    -2.6047203587805224E-027
  -1.7999999999999999E-002    -4.6268029731205699E-027
  -1.7950000000000001E-002    -6.0596658401902041E-027
  -1.7899999999999999E-002    -6.4384537462082314E-027
  -1.7850000000000001E-002    -5.4308423539643690E-027
  -1.7800000000000000E-002    -2.9406043777996122E-027
  -1.7749999999999998E-002     8.1753416179059926E-028
  -1.7700000000000000E-002     5.2938904896282114E-027
  -1.7649999999999999E-002     9.6471669002134589E-027
  -1.7600000000000001E-002     1.2861621475668373E-026
  -1.7550000000000000E-002     1.3930743837317138E-026
  -1.7499999999999998E-002     1.2084346819848940E-026
  -1.7450000000000000E-002     7.0206240095146183E-027
  -1.7399999999999999E-002    -9.0681826334064468E-028
  -1.7350000000000001E-002    -1.0600959647366628E-026
  -1.7299999999999999E-002    -2.0279503473651631E-026
  -1.7250000000000001E-002    -2.7706345454515132E-026
  -1.7200000000000000E-002    -3.0591038955610578E-026
  -1.7149999999999999E-002    -2.7109326614963287E-026
  -1.7100000000000001E-002    -1.6455075420114142E-026
  -1.7049999999999999E-002     7.0035324166343118E-028
  -1.7000000000000001E-002     2.1978361443337602E-026
  -1.6950000000000000E-002     4.3412929666744914E-026
  -1.6899999999999998E-002     5.9986896602702850E-026
  -1.6850000000000000E-002     6.6566003678680177E-026
  -1.6799999999999999E-002     5.9106866420985256E-026
  -1.6750000000000001E-002     3.5911948354536058E-026
  -1.6700000000000000E-002    -1.3678234402445820E-027
  -1.6649999999999998E-002    -4.7297475922523168E-026
  -1.6600000000000000E-002    -9.3041913437050627E-026
  -1.6549999999999999E-002    -1.2767902257074839E-025
  -1.6500000000000001E-002    -1.4034435070306119E-025
  -1.6449999999999999E-002    -1.2287648030227296E-025
  -1.6400000000000001E-002    -7.2427381198795433E-026
  -1.6350000000000000E-002     6.6163124816336416E-027
  -1.6299999999999999E-002     1.0203335838053332E-025
  -1.6250000000000001E-002     1.9493684468065350E-025
  -1.6199999999999999E-002     2.6282043701252301E-025
  -1.6150000000000001E-002     2.8415096931545431E-025
  -1.6100000000000000E-002     2.4372494060922100E-025
  -1.6049999999999998E-002     1.3765390181376634E-025
  -1.6000000000000000E-002    -2.3301656995450806E-026
  -1.5949999999999999E-002    -2.1319300623875441E-025
  -1.5900000000000001E-002    -3.9383915471988012E-025
  -1.5850000000000000E-002    -5.2127970576353740E-025
  -1.5799999999999998E-002    -5.5489404620941125E-025
  -1.5750000000000000E-002    -4.6756273813995098E-025
  -1.5699999999999999E-002    -2.5469213233735173E-025
  -1.5650000000000001E-002     6.0226354927017385E-026
  -1.5599999999999999E-002     4.2547715198913503E-025
  -1.5550000000000001E-002     7.6746811680881472E-025
  -1.5500000000000000E-002     1.0033326081261045E-024
  -1.5449999999999998E-002     1.0580790477517231E-024
  -1.5400000000000000E-002     8.8323092404221123E-025
  -1.5349999999999999E-002     4.7300149617472568E-025
  -1.5300000000000001E-002    -1.2611761392223947E-025
  -1.5250000000000000E-002    -8.1575271806475257E-025
  -1.5199999999999998E-002    -1.4578167824621830E-024
  -1.5150000000000000E-002    -1.8979382156163337E-024
  -1.5099999999999999E-002    -1.9970423910518999E-024
  -1.5050000000000001E-002    -1.6655826774619592E-024
  -1.4999999999999999E-002    -8.9329880611034299E-025
  -1.4949999999999998E-002     2.3298282989310678E-025
  -1.4900000000000000E-002     1.5297839351017065E-024
  -1.4849999999999999E-002     2.7390961542990770E-024
  -1.4800000000000001E-002     3.5715231301204262E-024
  -1.4749999999999999E-002     3.7649822946242224E-024
  -1.4700000000000001E-002     3.1489638313803549E-024
  -1.4650000000000000E-002     1.7011113938370276E-024
  -1.4599999999999998E-002    -4.1808997128220087E-025
  -1.4550000000000000E-002    -2.8647301818343734E-024
  -1.4499999999999999E-002    -5.1520691640972701E-024
  -1.4450000000000001E-002    -6.7315864300403040E-024
  -1.4400000000000000E-002    -7.1044875807048392E-024
  -1.4349999999999998E-002    -5.9446990536516591E-024
  -1.4300000000000000E-002    -3.2078141353472210E-024
  -1.4249999999999999E-002     8.0168811588209828E-025
  -1.4200000000000001E-002     5.4288899030411246E-024
  -1.4149999999999999E-002     9.7464684630115047E-024
  -1.4099999999999998E-002     1.2710895275597319E-023
  -1.4050000000000000E-002     1.3377078740738865E-023
  -1.3999999999999999E-002     1.1134201561643565E-023
  -1.3950000000000001E-002     5.9128574320415480E-024
  -1.3899999999999999E-002    -1.6900806079129171E-024
  -1.3850000000000001E-002    -1.0414380522913974E-023
  -1.3800000000000000E-002    -1.8492406273131532E-023
  -1.3749999999999998E-002    -2.3953004935054661E-023
  -1.3700000000000000E-002    -2.5032948023002695E-023
  -1.3649999999999999E-002    -2.0622390801080700E-023
  -1.3600000000000001E-002    -1.0648288668184908E-023
  -1.3550000000000000E-002     3.7049351671685000E-024
  -1.3499999999999998E-002     2.0020411430544811E-023
  -1.3450000000000000E-002     3.4961778925952340E-023
  -1.3399999999999999E-002     4.4857941980038436E-023
  -1.3350000000000001E-002     4.6477628002220875E-023
  -1.3299999999999999E-002     3.7852185893357283E-023
  -1.3249999999999998E-002     1.8967034593301424E-023
  -1.3200000000000000E-002    -7.8616982474199315E-024
  -1.3149999999999998E-002    -3.8070866241603889E-023
  -1.3100000000000001E-002    -6.5461677694375591E-023
  -1.3049999999999999E-002    -8.3297928782729216E-023
  -1.3000000000000001E-002    -8.5731546948472954E-023
  -1.2950000000000000E-002    -6.9292313946975045E-023
  -1.2899999999999998E-002    -3.4115767933604638E-023
  -1.2850000000000000E-002     1.5416369972561129E-023
  -1.2799999999999999E-002     7.0874874320553214E-023