  -4.0000000000000001E-002     0.0000000000000000     
  -3.9949999999999999E-002     0.0000000000000000     
  -3.9899999999999998E-002     0.0000000000000000     
  -3.9850000000000003E-002     0.0000000000000000     
  -3.9800000000000002E-002     0.0000000000000000     
  -3.9750000000000001E-002     0.0000000000000000     
  -3.9699999999999999E-002     0.0000000000000000     
  -3.9649999999999998E-002     0.0000000000000000     
  -3.9600000000000003E-002     0.0000000000000000     
  -3.9550000000000002E-002     0.0000000000000000     
  -3.9500000000000000E-002     0.0000000000000000     
  -3.9449999999999999E-002     0.0000000000000000     
  -3.9399999999999998E-002     0.0000000000000000     
  -3.9350000000000003E-002     0.0000000000000000     
  -3.9300000000000002E-002     0.0000000000000000     
  -3.9250000000000000E-002     0.0000000000000000     
  -3.9199999999999999E-002     0.0000000000000000     
  -3.9150000000000004E-002     0.0000000000000000     
  -3.9100000000000003E-002     0.0000000000000000     
  -3.9050000000000001E-002     0.0000000000000000     
  -3.9000000000000000E-002     0.0000000000000000     
  -3.8949999999999999E-002     0.0000000000000000     
  -3.8900000000000004E-002     0.0000000000000000     
  -3.8850000000000003E-002     0.0000000000000000     
  -3.8800000000000001E-002     0.0000000000000000     
  -3.8750000000000000E-002     0.0000000000000000     
  -3.8699999999999998E-002     0.0000000000000000     
  -3.8650000000000004E-002     0.0000000000000000     
  -3.8600000000000002E-002     0.0000000000000000     
  -3.8550000000000001E-002     0.0000000000000000     
  -3.8500000000000000E-002     0.0000000000000000     
  -3.8449999999999998E-002     0.0000000000000000     
  -3.8400000000000004E-002     0.0000000000000000     
  -3.8350000000000002E-002     0.0000000000000000     
  -3.8300000000000001E-002     0.0000000000000000     
  -3.8249999999999999E-002     0.0000000000000000     
  -3.8199999999999998E-002     0.0000000000000000     
  -3.8150000000000003E-002     0.0000000000000000     
  -3.8100000000000002E-002     0.0000000000000000     
  -3.8050000000000000E-002     0.0000000000000000     
  -3.7999999999999999E-002     0.0000000000000000     
  -3.7949999999999998E-002     0.0000000000000000     
  -3.7900000000000003E-002     0.0000000000000000     
  -3.7850000000000002E-002     0.0000000000000000     
  -3.7800000000000000E-002     0.0000000000000000     
  -3.7749999999999999E-002     0.0000000000000000     
  -3.7699999999999997E-002     0.0000000000000000     
  -3.7650000000000003E-002     0.0000000000000000     
  -3.7600000000000001E-002     0.0000000000000000     
  -3.7550000000000000E-002     0.0000000000000000     
  -3.7499999999999999E-002     0.0000000000000000     
  -3.7449999999999997E-002     0.0000000000000000     
  -3.7400000000000003E-002     0.0000000000000000     
  -3.7350000000000001E-002     0.0000000000000000     
  -3.7300000000000000E-002     0.0000000000000000     
  -3.7249999999999998E-002     0.0000000000000000     
  -3.7200000000000004E-002     0.0000000000000000     
  -3.7150000000000002E-002     0.0000000000000000     
  -3.7100000000000001E-002     0.0000000000000000     
  -3.7050000000000000E-002     0.0000000000000000     
  -3.6999999999999998E-002     0.0000000000000000     
  -3.6950000000000004E-002     0.0000000000000000     
  -3.6900000000000002E-002     0.0000000000000000     
  -3.6850000000000001E-002     0.0000000000000000     
  -3.6799999999999999E-002     0.0000000000000000     
  -3.6749999999999998E-002     0.0000000000000000     
  -3.6700000000000003E-002     0.0000000000000000     
  -3.6650000000000002E-002     0.0000000000000000     
  -3.6600000000000001E-002     0.0000000000000000     
  -3.6549999999999999E-002     0.0000000000000000     
  -3.6499999999999998E-002     0.0000000000000000     
  -3.6450000000000003E-002     0.0000000000000000     
  -3.6400000000000002E-002     0.0000000000000000     
  -3.6350000000000000E-002     0.0000000000000000     
  -3.6299999999999999E-002     0.0000000000000000     
  -3.6249999999999998E-002     0.0000000000000000     
  -3.6200000000000003E-002     0.0000000000000000     
  -3.6150000000000002E-002     0.0000000000000000     
  -3.6100000000000000E-002     0.0000000000000000     
  -3.6049999999999999E-002     0.0000000000000000     
  -3.6000000000000004E-002     0.0000000000000000     
  -3.5950000000000003E-002     0.0000000000000000     
  -3.5900000000000001E-002     0.0000000000000000     
  -3.5850000000000000E-002     0.0000000000000000     
  -3.5799999999999998E-002     0.0000000000000000     
  -3.5750000000000004E-002     0.0000000000000000     
  -3.5700000000000003E-002     0.0000000000000000     
  -3.5650000000000001E-002     0.0000000000000000     
  -3.5600000000000000E-002     0.0000000000000000     
  -3.5549999999999998E-002     0.0000000000000000     
  -3.5500000000000004E-002     0.0000000000000000     
  -3.5450000000000002E-002     0.0000000000000000     
  -3.5400000000000001E-002     0.0000000000000000     
  -3.5349999999999999E-002     0.0000000000000000     
  -3.5299999999999998E-002     0.0000000000000000     
  -3.5250000000000004E-002     0.0000000000000000     
  -3.5200000000000002E-002     0.0000000000000000     
  -3.5150000000000001E-002     0.0000000000000000     
  -3.5099999999999999E-002     0.0000000000000000     
  -3.5049999999999998E-002     0.0000000000000000     
  -3.5000000000000003E-002     0.0000000000000000     
  -3.4950000000000002E-002     0.0000000000000000     
  -3.4900000000000000E-002     0.0000000000000000     
  -3.4849999999999999E-002     0.0000000000000000     
  -3.4799999999999998E-002     0.0000000000000000     
  -3.4750000000000003E-002     0.0000000000000000     
  -3.4700000000000002E-002     0.0000000000000000     
  -3.4650000000000000E-002     0.0000000000000000     
  -3.4599999999999999E-002     0.0000000000000000     
  -3.4549999999999997E-002     0.0000000000000000     
  -3.4500000000000003E-002     0.0000000000000000     
  -3.4450000000000001E-002     0.0000000000000000     
  -3.4400000000000000E-002     0.0000000000000000     
  -3.4349999999999999E-002     0.0000000000000000     
  -3.4299999999999997E-002     0.0000000000000000     
  -3.4250000000000003E-002     0.0000000000000000     
  -3.4200000000000001E-002     0.0000000000000000     
  -3.4150000000000000E-002     0.0000000000000000     
  -3.4099999999999998E-002     0.0000000000000000     
  -3.4049999999999997E-002     0.0000000000000000     
  -3.4000000000000002E-002     0.0000000000000000     
  -3.3950000000000001E-002     0.0000000000000000     
  -3.3900000000000000E-002     0.0000000000000000     
  -3.3849999999999998E-002     0.0000000000000000     
  -3.3799999999999997E-002     0.0000000000000000     
  -3.3750000000000002E-002     0.0000000000000000     
  -3.3700000000000001E-002     0.0000000000000000     
  -3.3649999999999999E-002     0.0000000000000000     
  -3.3599999999999998E-002     0.0000000000000000     
  -3.3550000000000003E-002     0.0000000000000000     
  -3.3500000000000002E-002     0.0000000000000000     
  -3.3450000000000001E-002     0.0000000000000000     
  -3.3399999999999999E-002     0.0000000000000000     
  -3.3349999999999998E-002     0.0000000000000000     
  -3.3300000000000003E-002     0.0000000000000000     
  -3.3250000000000002E-002     0.0000000000000000     
  -3.3200000000000000E-002     0.0000000000000000     
  -3.3149999999999999E-002     0.0000000000000000     
  -3.3099999999999997E-002     0.0000000000000000     
  -3.3050000000000003E-002     0.0000000000000000     
  -3.3000000000000002E-002     0.0000000000000000     
  -3.2950000000000000E-002     0.0000000000000000     
  -3.2899999999999999E-002     0.0000000000000000     
  -3.2850000000000004E-002     0.0000000000000000     
  -3.2800000000000003E-002     0.0000000000000000     
  -3.2750000000000001E-002     0.0000000000000000     
  -3.2700000000000000E-002     0.0000000000000000     
  -3.2649999999999998E-002     0.0000000000000000     
  -3.2600000000000004E-002     0.0000000000000000     
  -3.2550000000000003E-002     0.0000000000000000     
  -3.2500000000000001E-002     0.0000000000000000     
  -3.2450000000000000E-002     0.0000000000000000     
  -3.2399999999999998E-002     0.0000000000000000     
  -3.2350000000000004E-002     0.0000000000000000     
  -3.2300000000000002E-002     0.0000000000000000     
  -3.2250000000000001E-002     0.0000000000000000     
  -3.2199999999999999E-002     0.0000000000000000     
  -3.2149999999999998E-002     0.0000000000000000     
  -3.2100000000000004E-002     0.0000000000000000     
  -3.2050000000000002E-002     0.0000000000000000     
  -3.2000000000000001E-002     0.0000000000000000     
  -3.1949999999999999E-002     0.0000000000000000     
  -3.1899999999999998E-002     0.0000000000000000     
  -3.1850000000000003E-002     0.0000000000000000     
  -3.1800000000000002E-002     0.0000000000000000     
  -3.1750000000000000E-002     0.0000000000000000     
  -3.1699999999999999E-002     0.0000000000000000     
  -3.1649999999999998E-002     0.0000000000000000     
  -3.1600000000000003E-002     0.0000000000000000     
  -3.1550000000000002E-002     0.0000000000000000     
  -3.1500000000000000E-002     0.0000000000000000     
  -3.1449999999999999E-002     0.0000000000000000     
  -3.1399999999999997E-002     0.0000000000000000     
  -3.1350000000000003E-002     0.0000000000000000     
  -3.1300000000000001E-002     0.0000000000000000     
  -3.1250000000000000E-002     0.0000000000000000     
  -3.1199999999999999E-002     0.0000000000000000     
  -3.1150000000000001E-002     0.0000000000000000     
  -3.1100000000000003E-002     0.0000000000000000     
  -3.1050000000000001E-002     0.0000000000000000     
  -3.1000000000000000E-002     0.0000000000000000     
  -3.0949999999999998E-002     0.0000000000000000     
  -3.0900000000000000E-002     0.0000000000000000     
  -3.0850000000000002E-002     0.0000000000000000     
  -3.0800000000000001E-002     0.0000000000000000     
  -3.0750000000000000E-002     0.0000000000000000     
  -3.0699999999999998E-002     0.0000000000000000     
  -3.0650000000000000E-002     0.0000000000000000     
  -3.0600000000000002E-002     0.0000000000000000     
  -3.0550000000000001E-002     0.0000000000000000     
  -3.0499999999999999E-002     0.0000000000000000     
  -3.0449999999999998E-002     0.0000000000000000     
  -3.0400000000000000E-002     0.0000000000000000     
  -3.0350000000000002E-002     0.0000000000000000     
  -3.0300000000000001E-002     0.0000000000000000     
  -3.0249999999999999E-002     0.0000000000000000     
  -3.0200000000000001E-002     0.0000000000000000     
  -3.0150000000000000E-002     0.0000000000000000     
  -3.0100000000000002E-002     0.0000000000000000     
  -3.0050000000000000E-002     0.0000000000000000     
  -2.9999999999999999E-002     0.0000000000000000     
  -2.9950000000000001E-002     0.0000000000000000     
  -2.9899999999999999E-002     0.0000000000000000     
  -2.9850000000000002E-002     0.0000000000000000     
  -2.9800000000000000E-002     0.0000000000000000     
  -2.9749999999999999E-002     0.0000000000000000     
  -2.9700000000000001E-002     0.0000000000000000     
  -2.9650000000000003E-002     0.0000000000000000     
  -2.9600000000000001E-002     0.0000000000000000     
  -2.9550000000000000E-002     0.0000000000000000     
  -2.9499999999999998E-002     0.0000000000000000     
  -2.9450000000000000E-002     0.0000000000000000     
  -2.9400000000000003E-002     0.0000000000000000     
  -2.9350000000000001E-002    -5.1909699604109497E-040
  -2.9300000000000000E-002    -5.1909699604109497E-040
  -2.9249999999999998E-002     0.0000000000000000     
  -2.9200000000000000E-002     8.8632898119530815E-040
  -2.9150000000000002E-002     0.0000000000000000     
  -2.9100000000000001E-002    -2.7956061104708336E-039
  -2.9049999999999999E-002    -5.7282881117324669E-039
  -2.8999999999999998E-002    -5.3697728738918206E-039
  -2.8950000000000000E-002     5.8501613639657956E-039
  -2.8900000000000002E-002     2.5784200310529898E-038
  -2.8850000000000001E-002     4.8076210643868503E-038
  -2.8799999999999999E-002     5.2416315985756586E-038
  -2.8749999999999998E-002     2.1061406936965443E-038
  -2.8700000000000000E-002    -5.4535594320019529E-038
  -2.8650000000000002E-002    -1.7891254386707825E-037
  -2.8600000000000000E-002    -2.9465585514690824E-037
  -2.8549999999999999E-002    -3.3969346800998002E-037
  -2.8500000000000001E-002    -2.3651018112920739E-037
  -2.8450000000000000E-002     7.5884211078150810E-038
  -2.8400000000000002E-002     5.7893880853356277E-037
  -2.8350000000000000E-002     1.1324489571054316E-036
  -2.8299999999999999E-002     1.4988014982343893E-036
  -2.8250000000000001E-002     1.3853143282413904E-036
  -2.8200000000000003E-002     5.3320102378008766E-037
  -2.8150000000000001E-002    -1.0799455114822707E-036
  -2.8100000000000000E-002    -3.1389468054725254E-036
  -2.8049999999999999E-002    -4.9434374221685564E-036
  -2.8000000000000001E-002    -5.5387010592901128E-036
  -2.7950000000000003E-002    -4.0350885783848259E-036
  -2.7900000000000001E-002    -4.9423271125491043E-038
  -2.7850000000000000E-002     5.8744277825213095E-036
  -2.7799999999999998E-002     1.2086949261372530E-035
  -2.7750000000000000E-002     1.6079508962013574E-035
  -2.7700000000000002E-002     1.5230939970125333E-035
  -2.7650000000000001E-002     7.9078775815551893E-036
  -2.7600000000000000E-002    -5.4177826275980401E-036
  -2.7549999999999998E-002    -2.1547314730493990E-035
  -2.7500000000000000E-002    -3.4903720124714639E-035
  -2.7450000000000002E-002    -3.9075076670980197E-035
  -2.7400000000000001E-002    -2.9319995190170280E-035
  -2.7349999999999999E-002    -5.2671432710558645E-036
  -2.7299999999999998E-002     2.7358674186272320E-035
  -2.7250000000000000E-002     5.7168634089967227E-035
  -2.7200000000000002E-002     7.0351100935196081E-035
  -2.7150000000000001E-002     5.6338581610597581E-035
  -2.7099999999999999E-002     1.4105266832457729E-035
  -2.7049999999999998E-002    -4.3599089438235049E-035
  -2.7000000000000000E-002    -9.1119519192784377E-035
  -2.6950000000000002E-002    -9.7660629339632669E-035
  -2.6900000000000000E-002    -4.1225606756823364E-035
  -2.6849999999999999E-002     7.5338329213888533E-035
  -2.6800000000000001E-002     2.1318389197538935E-034
  -2.6749999999999999E-002     2.9914546391614606E-034
  -2.6700000000000002E-002     2.4583504002445104E-034
  -2.6650000000000000E-002    -1.0396466510100309E-035
  -2.6599999999999999E-002    -4.6296474511146553E-034
  -2.6550000000000001E-002    -9.9800840448685594E-034
  -2.6500000000000003E-002    -1.3892989803478167E-033
  -2.6450000000000001E-002    -1.3440233119687941E-033
  -2.6400000000000000E-002    -6.0448759167489067E-034
  -2.6349999999999998E-002     9.1199246208433705E-034
  -2.6300000000000000E-002     2.9785642353296197E-033
  -2.6250000000000002E-002     4.9921758914171989E-033
  -2.6200000000000001E-002     6.0379773655198771E-033
  -2.6150000000000000E-002     5.1217261109338586E-033
  -2.6099999999999998E-002     1.5528214991846984E-033
  -2.6050000000000000E-002    -4.6114526148884285E-033
  -2.6000000000000002E-002    -1.2217280912384118E-032
  -2.5950000000000001E-002    -1.8950451408962384E-032
  -2.5899999999999999E-002    -2.1714950578828837E-032
  -2.5849999999999998E-002    -1.7501297374584533E-032
  -2.5800000000000000E-002    -4.6140479347784063E-033
  -2.5750000000000002E-002     1.6073520934822820E-032
  -2.5700000000000001E-002     4.0322354063042933E-032
  -2.5649999999999999E-002     6.0695031311629539E-032
  -2.5599999999999998E-002     6.8023429761842409E-032
  -2.5550000000000000E-002     5.4138607912188103E-032
  -2.5500000000000002E-002     1.5317794118025507E-032
  -2.5450000000000000E-002    -4.4587490527458553E-032
  -2.5399999999999999E-002    -1.1265107495529557E-031
  -2.5349999999999998E-002    -1.6817335609567190E-031
  -2.5300000000000000E-002    -1.8731645230392399E-031
  -2.5250000000000002E-002    -1.5052733361465855E-031
  -2.5200000000000000E-002    -5.0954579473145453E-032
  -2.5149999999999999E-002     9.8920804421031606E-032
  -2.5100000000000001E-002     2.6546706344499551E-031
  -2.5049999999999999E-002     3.9908498494885673E-031
  -2.5000000000000001E-002     4.4663303078698620E-031
  -2.4950000000000000E-002     3.6868404145499424E-031
  -2.4899999999999999E-002     1.5667385373695601E-031
  -2.4850000000000001E-002    -1.5636500948635359E-031
  -2.4800000000000003E-002    -4.9710168634353003E-031
  -2.4750000000000001E-002    -7.6776840292606710E-031
  -2.4700000000000000E-002    -8.7417509540625059E-031
  -2.4649999999999998E-002    -7.5813953785820268E-031
  -2.4600000000000000E-002    -4.2296317220686034E-031
  -2.4550000000000002E-002     5.9361068611560569E-032
  -2.4500000000000001E-002     5.6573429730092868E-031
  -2.4450000000000000E-002     9.6200951374816858E-031
  -2.4399999999999998E-002     1.1529368105181205E-030
  -2.4350000000000000E-002     1.1218265337382173E-030
  -2.4299999999999999E-002     9.3909020652662929E-031
  -2.4250000000000001E-002     7.2759297435619924E-031
  -2.4199999999999999E-002     5.9010294267811575E-031
  -2.4150000000000001E-002     5.2500044092664734E-031
  -2.4100000000000000E-002     3.7230965411469225E-031
  -2.4049999999999998E-002    -1.6624134307292632E-031
  -2.4000000000000000E-002    -1.4083751832801048E-030
  -2.3949999999999999E-002    -3.4877145163088885E-030
  -2.3900000000000001E-002    -6.1284409615811567E-030
  -2.3850000000000000E-002    -8.5016329599222923E-030
  -2.3800000000000002E-002    -9.2772143693586627E-030
  -2.3750000000000000E-002    -6.9487122862814592E-030
  -2.3699999999999999E-002    -4.2067319720836066E-031
  -2.3650000000000001E-002     1.0272245321603952E-029
  -2.3599999999999999E-002     2.3361999012381011E-029
  -2.3550000000000001E-002     3.5168512916579523E-029
  -2.3500000000000000E-002     4.0613451824173771E-029
  -2.3449999999999999E-002     3.4527307124308233E-029
  -2.3400000000000001E-002     1.3576979763526095E-029
  -2.3349999999999999E-002    -2.1671622630108871E-029
  -2.3300000000000001E-002    -6.5284974712095192E-029
  -2.3250000000000000E-002    -1.0587145269835490E-028
  -2.3199999999999998E-002    -1.2843241511880579E-028
  -2.3150000000000000E-002    -1.1820850340025807E-028
  -2.3099999999999999E-002    -6.5868546365808830E-029
  -2.3050000000000001E-002     2.7319721558828580E-029
  -2.3000000000000000E-002     1.4614961930695288E-028
  -2.2950000000000002E-002     2.6173019376235034E-028
  -2.2900000000000000E-002     3.3641386366139974E-028
  -2.2849999999999999E-002     3.3320343121386461E-028
  -2.2800000000000001E-002     2.2786341949624124E-028
  -2.2749999999999999E-002     2.0531020922286301E-029
  -2.2700000000000001E-002    -2.5711875957844513E-028
  -2.2650000000000000E-002    -5.4271225246874355E-028
  -2.2599999999999999E-002    -7.5390074941120606E-028
  -2.2550000000000001E-002    -8.0812301948773466E-028
  -2.2499999999999999E-002    -6.4744167560973827E-028
  -2.2450000000000001E-002    -2.6192749069907808E-028
  -2.2400000000000000E-002     2.9596428723245621E-028
  -2.2349999999999998E-002     9.1240290391833362E-028
  -2.2300000000000000E-002     1.4314930761409059E-027
  -2.2249999999999999E-002     1.6907318175830875E-027
  -2.2200000000000001E-002     1.5651110712852136E-027
  -2.2150000000000000E-002     1.0084398982923104E-027
  -2.2100000000000002E-002     7.9454344420186836E-029
  -2.2050000000000000E-002    -1.0569986146822527E-027
  -2.1999999999999999E-002    -2.1573084912353976E-027
  -2.1950000000000001E-002    -2.9505972404812196E-027
  -2.1899999999999999E-002    -3.2024831117775472E-027
  -2.1850000000000001E-002    -2.7747354499560531E-027
  -2.1800000000000000E-002    -1.6647513882208573E-027
  -2.1749999999999999E-002    -1.4179611640221027E-029
  -2.1700000000000001E-002     1.9149316394755323E-027
  -2.1649999999999999E-002     3.7884626361608138E-027
  -2.1600000000000001E-002     5.2582998129052724E-027
  -2.1550000000000000E-002     6.0144620924108215E-027
  -2.1499999999999998E-002     5.8211118541630452E-027
  -2.1450000000000000E-002     4.5363519338071617E-027
  -2.1399999999999999E-002     2.1259392307709910E-027
  -2.1350000000000001E-002    -1.3139848769824500E-027
  -2.1299999999999999E-002    -5.5146327644614008E-027
  -2.1250000000000002E-002    -9.9772321650256987E-027
  -2.1200000000000000E-002    -1.3926422736017910E-026
  -2.1149999999999999E-002    -1.6319259994011123E-026
  -2.1100000000000001E-002    -1.5960429032176216E-026
  -2.1049999999999999E-002    -1.1757342835353255E-026
  -2.1000000000000001E-002    -3.1060449333363005E-027
  -2.0950000000000000E-002     9.6628982805542469E-027
  -2.0899999999999998E-002     2.4912390954629286E-026
  -2.0850000000000000E-002     3.9574084091925056E-026
  -2.0799999999999999E-002     4.9434579209106595E-026
  -2.0750000000000001E-002     4.9921215391748018E-026
  -2.0700000000000000E-002     3.7337746061699444E-026
  -2.0649999999999998E-002     1.0325761966718500E-026
  -2.0600000000000000E-002    -2.8835252502333259E-026
  -2.0549999999999999E-002    -7.3566155577324470E-026
  -2.0500000000000001E-002    -1.1340336098761327E-025
  -2.0449999999999999E-002    -1.3573396274835488E-025
  -2.0400000000000001E-002    -1.2875537604773787E-025
  -2.0350000000000000E-002    -8.5150192702949824E-026
  -2.0299999999999999E-002    -5.5880644867518244E-027
  -2.0250000000000001E-002     9.9046130131853818E-026
  -2.0199999999999999E-002     2.0773117453663870E-025
  -2.0150000000000001E-002     2.9232617821288329E-025
  -2.0100000000000000E-002     3.2345341793273345E-025
  -2.0049999999999998E-002     2.7831237225322288E-025
  -2.0000000000000000E-002     1.4868660222243913E-025
  -1.9949999999999999E-002    -5.3082230348383399E-026
  -1.9900000000000001E-002    -2.9233093492084144E-025
  -1.9850000000000000E-002    -5.1600963275137546E-025
  -1.9799999999999998E-002    -6.6253069305650267E-025
  -1.9750000000000000E-002    -6.7614159583517181E-025
  -1.9699999999999999E-002    -5.2288315854083510E-025
  -1.9650000000000001E-002    -2.0415727786216656E-025
  -1.9599999999999999E-002     2.3620260548742536E-025
  -1.9550000000000001E-002     7.1449544514762679E-025
  -1.9500000000000000E-002     1.1204858638085068E-024
  -1.9449999999999999E-002     1.3399937951571451E-024
  -1.9400000000000001E-002     1.2825490905844213E-024
  -1.9349999999999999E-002     9.0793862518114430E-025
  -1.9300000000000001E-002     2.4480819671875192E-025
  -1.9250000000000000E-002    -6.0449739330237685E-025
  -1.9199999999999998E-002    -1.4760473023022012E-024
  -1.9150000000000000E-002    -2.1728255979644544E-024
  -1.9099999999999999E-002    -2.5050319370326605E-024
  -1.9050000000000001E-002    -2.3342817343063089E-024
  -1.9000000000000000E-002    -1.6120953641985686E-024
  -1.8949999999999998E-002    -4.0346157047772120E-025
  -1.8900000000000000E-002     1.1111950780482678E-024
  -1.8849999999999999E-002     2.6581688913710739E-024
  -1.8800000000000001E-002     3.9144279373778621E-024
  -1.8749999999999999E-002     4.5665569808606833E-024
  -1.8700000000000001E-002     4.3746897047273675E-024
  -1.8650000000000000E-002     3.2300966034227654E-024
  -1.8599999999999998E-002     1.1956903568993515E-024
  -1.8550000000000001E-002    -1.4790791392138584E-024
  -1.8499999999999999E-002    -4.3742201749489669E-024
  -1.8450000000000001E-002    -6.9475795531600564E-024
  -1.8400000000000000E-002    -8.6130869302785351E-024
  -1.8349999999999998E-002    -8.8420939040226540E-024
  -1.8300000000000000E-002    -7.2764784259963654E-024
  -1.8249999999999999E-002    -3.8373131352011839E-024
  -1.8200000000000001E-002     1.1915539768679935E-024
  -1.8149999999999999E-002     7.1284736634792719E-024
  -1.8100000000000002E-002     1.2930064748151134E-023
  -1.8050000000000000E-002     1.7314229515012494E-023
  -1.7999999999999999E-002     1.8972152788244357E-023
  -1.7950000000000001E-002     1.6850755301528823E-023
  -1.7899999999999999E-002     1.0462698251114061E-023
  -1.7850000000000001E-002     1.5838197672207894E-025
  -1.7800000000000000E-002    -1.2719138620105657E-023
  -1.7749999999999998E-002    -2.5872214246054381E-023
  -1.7700000000000000E-002    -3.6330278996410177E-023
  -1.7649999999999999E-002    -4.0978159398795026E-023
  -1.7600000000000001E-002    -3.7269848655869757E-023
  -1.7550000000000000E-002    -2.3999299433847377E-023
  -1.7499999999999998E-002    -1.9468855630176857E-024
  -1.7450000000000000E-002     2.5798473081872887E-023
  -1.7399999999999999E-002     5.4011432983365050E-023
  -1.7350000000000001E-002     7.6082134081945100E-023
  -1.7299999999999999E-002     8.5303686683962865E-023
  -1.7250000000000001E-002     7.6499712990687751E-023
  -1.7200000000000000E-002     4.7659309145450473E-023
  -1.7149999999999999E-002     1.1647972930548196E-024
  -1.7100000000000001E-002    -5.5794440948906066E-023
  -1.7049999999999999E-002    -1.1191184384380282E-022
  -1.7000000000000001E-002    -1.5362827474953120E-022
  -1.6950000000000000E-002    -1.6795747055031031E-022
  -1.6899999999999998E-002    -1.4576808138965463E-022
  -1.6850000000000000E-002    -8.4798221417468198E-023
  -1.6799999999999999E-002     8.4009461023909937E-024
  -1.6750000000000001E-002     1.1828568321044385E-022
  -1.6700000000000000E-002     2.2229062595132302E-022
  -1.6649999999999998E-002     2.9487529796792024E-022
  -1.6600000000000000E-002     3.1304542276150878E-022
  -1.6549999999999999E-002     2.6227837680604949E-022
  -1.6500000000000001E-002     1.4149705970375648E-022
  -1.6449999999999999E-002    -3.4264323274239356E-023
  -1.6400000000000001E-002    -2.3452960058686395E-022
  -1.6350000000000000E-002    -4.1778092544597221E-022
  -1.6299999999999999E-002    -5.3916418936546734E-022
  -1.6250000000000001E-002    -5.6022979262693436E-022
  -1.6199999999999999E-002    -4.5877210523300199E-022
  -1.6150000000000001E-002    -2.3652458352014949E-022
  -1.6100000000000000E-002     7.7364037062314403E-023
  -1.6049999999999998E-002     4.2847846651203238E-022
  -1.6000000000000000E-002     7.4524350464702148E-022
  -1.5949999999999999E-002     9.5204094204881079E-022
  -1.5900000000000001E-002     9.8515896705581731E-022
  -1.5850000000000000E-002     8.0849996638229512E-022
  -1.5799999999999998E-002     4.2563195836368564E-022
  -1.5750000000000000E-002    -1.1488443252571101E-022
  -1.5699999999999999E-002    -7.2293079517843900E-022
  -1.5650000000000001E-002    -1.2795049984473207E-021
  -1.5599999999999999E-002    -1.6572799120317795E-021
  -1.5550000000000001E-002    -1.7459287693318999E-021
  -1.5500000000000000E-002    -1.4777505097792559E-021
  -1.5449999999999998E-002    -8.4848359380367400E-022
  -1.5400000000000000E-002     7.1544502455599864E-023
  -1.5349999999999999E-002     1.1395964460498928E-021
  -1.5300000000000001E-002     2.1576554091173366E-021
  -1.5250000000000000E-002     2.9035199205522339E-021
  -1.5199999999999998E-002     3.1720483026781158E-021
  -1.5150000000000000E-002     2.8201657757643835E-021
  -1.5099999999999999E-002     1.8074099739744586E-021
  -1.5050000000000001E-002     2.2315927965662748E-022
  -1.4999999999999999E-002    -1.7074051574164646E-021
  -1.4949999999999998E-002    -3.6439308701521990E-021
  -1.4900000000000000E-002    -5.1792382171489412E-021
  -1.4849999999999999E-002    -5.9111300025744915E-021
  -1.4800000000000001E-002    -5.5277135085445578E-021
  -1.4749999999999999E-002    -3.8912934324405709E-021
  -1.4700000000000001E-002    -1.1028701824170681E-021
  -1.4650000000000000E-002     2.4706303967762423E-021
  -1.4599999999999998E-002     6.2203062610344246E-021
  -1.4550000000000000E-002     9.3763586491459618E-021
  -1.4499999999999999E-002     1.1141093720558272E-020
  -1.4450000000000001E-002     1.0856017398527821E-020
  -1.4400000000000000E-002     8.1736198303827780E-021
  -1.4349999999999998E-002     3.1968877276077473E-021
  -1.4300000000000000E-002    -3.4513037303289184E-021
  -1.4249999999999999E-002    -1.0659219652518282E-020
  -1.4200000000000001E-002    -1.6971793254510293E-020
  -1.4149999999999999E-002    -2.0841804899459218E-020
  -1.4099999999999998E-002    -2.0952051064369130E-020
  -1.4050000000000000E-002    -1.6550598815282072E-020
  -1.3999999999999999E-002    -7.7265042947764007E-021
  -1.3950000000000001E-002     4.4475549211840633E-021
  -1.3899999999999999E-002     1.7963529558862952E-020
  -1.3850000000000001E-002     3.0142790329344610E-020
  -1.3800000000000000E-002     3.8099011309235287E-020
  -1.3749999999999998E-002     3.9332525422211232E-020
  -1.3700000000000000E-002     3.2347724696975445E-020
  -1.3649999999999999E-002     1.7160475065989460E-020
  -1.3600000000000001E-002    -4.4364078689706509E-021
  -1.3550000000000000E-002    -2.8950348057497092E-020
  -1.3499999999999998E-002    -5.1650560395529749E-020
  -1.3450000000000000E-002    -6.7377482439328426E-020
  -1.3399999999999999E-002    -7.1580865045797681E-020
  -1.3350000000000001E-002    -6.1397836636445063E-020
  -1.3299999999999999E-002    -3.6543709030587204E-020
  -1.3249999999999998E-002     2.0636012919559421E-022
  -1.3200000000000000E-002     4.3112068794683113E-020
  -1.3149999999999998E-002     8.4207240332896167E-020
  -1.3100000000000001E-002     1.1462410450268671E-019
  -1.3049999999999999E-002     1.2630960164175914E-019
  -1.3000000000000001E-002     1.1383055421059581E-019
  -1.2950000000000000E-002     7.5902670094739006E-020
  -1.2899999999999998E-002     1.6285761642066691E-020
  -1.2850000000000000E-002    -5.6230043514251842E-020
  -1.2799999999999999E-002    -1.2887216730393473E-019