  -4.0000000000000001E-002     0.0000000000000000     
  -3.9949999999999999E-002     0.0000000000000000     
  -3.9899999999999998E-002     0.0000000000000000     
  -3.9850000000000003E-002     0.0000000000000000     
  -3.9800000000000002E-002     0.0000000000000000     
  -3.9750000000000001E-002     0.0000000000000000     
  -3.9699999999999999E-002     0.0000000000000000     
  -3.9649999999999998E-002     0.0000000000000000     
  -3.9600000000000003E-002     0.0000000000000000     
  -3.9550000000000002E-002     0.0000000000000000     
  -3.9500000000000000E-002     0.0000000000000000     
  -3.9449999999999999E-002     0.0000000000000000     
  -3.9399999999999998E-002     0.0000000000000000     
  -3.9350000000000003E-002     0.0000000000000000     
  -3.9300000000000002E-002     0.0000000000000000     
  -3.9250000000000000E-002     0.0000000000000000     
  -3.9199999999999999E-002     0.0000000000000000     
  -3.9150000000000004E-002     0.0000000000000000     
  -3.9100000000000003E-002     0.0000000000000000     
  -3.9050000000000001E-002     0.0000000000000000     
  -3.9000000000000000E-002     0.0000000000000000     
  -3.8949999999999999E-002     0.0000000000000000     
  -3.8900000000000004E-002     0.0000000000000000     
  -3.8850000000000003E-002     0.0000000000000000     
  -3.8800000000000001E-002     0.0000000000000000     
  -3.8750000000000000E-002     0.0000000000000000     
  -3.8699999999999998E-002     0.0000000000000000     
  -3.8650000000000004E-002     0.0000000000000000     
  -3.8600000000000002E-002    -8.1692407964612970E-040
  -3.8550000000000001E-002    -5.0885528385265087E-039
  -3.8500000000000000E-002    -1.3614435007702611E-038
  -3.8449999999999998E-002    -1.8395347051953638E-038
  -3.8400000000000004E-002     1.9484613218122015E-038
  -3.8350000000000002E-002     1.9737592925401874E-037
  -3.8300000000000001E-002     6.8661944409044915E-037
  -3.8249999999999999E-002     1.5829494449916562E-036
  -3.8199999999999998E-002     2.4201384040990234E-036
  -3.8150000000000003E-002     9.1269433701060131E-037
  -3.8100000000000002E-002    -8.6763960871794750E-036
  -3.8050000000000000E-002    -3.5861356009224838E-035
  -3.7999999999999999E-002    -8.8009981351472258E-035
  -3.7949999999999998E-002    -1.5028343122112040E-034
  -3.7900000000000003E-002    -1.4563772633441788E-034
  -3.7850000000000002E-002     1.1394946766508140E-034
  -3.7800000000000000E-002     9.3234276424060075E-034
  -3.7749999999999999E-002     2.5761262127909011E-033
  -3.7699999999999997E-002     4.8113152131996016E-033
  -3.7650000000000003E-002     6.0641469794396201E-033
  -3.7600000000000001E-002     2.4901356563848001E-033
  -3.7550000000000000E-002    -1.2081277320863748E-032
  -3.7499999999999999E-002    -4.3555363141500555E-032
  -3.7449999999999997E-002    -9.0372106572660217E-032
  -3.7400000000000003E-002    -1.3143526329316796E-031
  -3.7350000000000001E-002    -1.1375414451288233E-031
  -3.7300000000000000E-002     4.7817382254494721E-032
  -3.7249999999999998E-002     4.3923809468430412E-031
  -3.7200000000000004E-002     1.0666995059277398E-030
  -3.7150000000000002E-002     1.7311613124309257E-030
  -3.7100000000000001E-002     1.9110049657841613E-030
  -3.7050000000000000E-002     7.7054408494527997E-031
  -3.6999999999999998E-002    -2.5468718833031727E-030
  -3.6950000000000004E-002    -8.2332764007807029E-030
  -3.6900000000000002E-002    -1.4840127838327539E-029
  -3.6850000000000001E-002    -1.8486503703105357E-029
  -3.6799999999999999E-002    -1.3121800536106278E-029
  -3.6749999999999998E-002     7.1867809529562532E-030
  -3.6700000000000003E-002     4.3585280064432564E-029
  -3.6650000000000002E-002     8.6608508544034867E-029
  -3.6600000000000001E-002     1.1267337739303531E-028
  -3.6549999999999999E-002     8.8079472015428612E-029
  -3.6499999999999998E-002    -1.5101438307527217E-029
  -3.6450000000000003E-002    -1.9211190127140939E-028
  -3.6400000000000002E-002    -3.7826980668884647E-028
  -3.6350000000000000E-002    -4.4301394433374569E-028
  -3.6299999999999999E-002    -2.3097723035956039E-028
  -3.6249999999999998E-002     3.3681146319083682E-028
  -3.6200000000000003E-002     1.1239785429742556E-027
  -3.6150000000000002E-002     1.6763923321558444E-027
  -3.6100000000000000E-002     1.2734217503530876E-027
  -3.6049999999999999E-002    -7.5813277371747303E-028
  -3.6000000000000004E-002    -4.4583612222842708E-027
  -3.5950000000000003E-002    -8.5667905803483240E-027
  -3.5900000000000001E-002    -1.0200293063799179E-026
  -3.5850000000000000E-002    -5.4362500224872111E-027
  -3.5799999999999998E-002     8.7987094156412536E-027
  -3.5750000000000004E-002     3.1719809485700054E-026
  -3.5700000000000003E-002     5.5691611552203760E-026
  -3.5650000000000001E-002     6.5336462353714734E-026
  -3.5600000000000000E-002     4.1113559727442661E-026
  -3.5549999999999998E-002    -3.1358351928878163E-026
  -3.5500000000000004E-002    -1.4776881212681604E-025
  -3.5450000000000002E-002    -2.7285156265840099E-025
  -3.5400000000000001E-002    -3.3819229439409764E-025
  -3.5349999999999999E-002    -2.5900609665907902E-025
  -3.5299999999999998E-002     2.6724229032674895E-026
  -3.5250000000000004E-002     5.0487743426402810E-025
  -3.5200000000000002E-002     1.0401187154477119E-024
  -3.5150000000000001E-002     1.3718794615131730E-024
  -3.5099999999999999E-002     1.1811493482559217E-024
  -3.5049999999999998E-002     2.3487513238899502E-025
  -3.5000000000000003E-002    -1.4268933069197334E-024
  -3.4950000000000002E-002    -3.3429092231359303E-024
  -3.4900000000000000E-002    -4.6309341621464470E-024
  -3.4849999999999999E-002    -4.2255104162554678E-024
  -3.4799999999999998E-002    -1.3589361360181207E-024
  -3.4750000000000003E-002     3.8443239486855637E-024
  -3.4700000000000002E-002     9.9278375963049596E-024
  -3.4650000000000000E-002     1.4149391099502492E-023
  -3.4599999999999999E-002     1.3255567736989676E-023
  -3.4549999999999997E-002     4.9539678079047226E-024
  -3.4500000000000003E-002    -1.0349003621057568E-023
  -3.4450000000000001E-002    -2.8348965595820205E-023
  -3.4400000000000000E-002    -4.1107922013174686E-023
  -3.4349999999999999E-002    -3.9382740879603662E-023
  -3.4299999999999997E-002    -1.6805273826074270E-023
  -3.4250000000000003E-002     2.5395341202834465E-023
  -3.4200000000000001E-002     7.5360056765587039E-023
  -3.4150000000000000E-002     1.1165495883474114E-022
  -3.4099999999999998E-002     1.0977914404125831E-022
  -3.4049999999999997E-002     5.3256478085799171E-023
  -3.4000000000000002E-002    -5.4350542785882377E-023
  -3.3950000000000001E-002    -1.8229331640533126E-022
  -3.3900000000000000E-002    -2.7619009589543178E-022
  -3.3849999999999998E-002    -2.7514776515160462E-022
  -3.3799999999999997E-002    -1.3959024579894185E-022
  -3.3750000000000002E-002     1.1976746665657543E-022
  -3.3700000000000001E-002     4.2598549411437217E-022
  -3.3649999999999999E-002     6.4651007118323142E-022
  -3.3599999999999998E-002     6.3602821044448839E-022
  -3.3550000000000003E-002     3.0341753305296095E-022
  -3.3500000000000002E-002    -3.2067668556770788E-022
  -3.3450000000000001E-002    -1.0487976412538227E-021
  -3.3399999999999999E-002    -1.5643885915852732E-021
  -3.3349999999999998E-002    -1.5235359760976178E-021
  -3.3300000000000003E-002    -7.1033351868665236E-022
  -3.3250000000000002E-002     8.0822436849492616E-022
  -3.3200000000000000E-002     2.6020014544734891E-021
  -3.3149999999999999E-002     3.9382112074312214E-021
  -3.3099999999999997E-002     4.0063084460451594E-021
  -3.3050000000000003E-002     2.2623496627236126E-021
  -3.3000000000000002E-002    -1.2235084991577963E-021
  -3.2950000000000000E-002    -5.5744357744675223E-021
  -3.2899999999999999E-002    -9.2101084559608600E-021
  -3.2850000000000004E-002    -1.0299026687335346E-020
  -3.2800000000000003E-002    -7.4732993126953911E-021
  -3.2750000000000001E-002    -5.7393458580766472E-022
  -3.2700000000000000E-002     8.8916040135004882E-021
  -3.2649999999999998E-002     1.7868382416180315E-020
  -3.2600000000000004E-002     2.2571818658604581E-020
  -3.2550000000000003E-002     1.9857313662185166E-020
  -3.2500000000000001E-002     8.7124033227173374E-021
  -3.2450000000000000E-002    -8.7320747856068739E-021
  -3.2399999999999998E-002    -2.7235024117847627E-020
  -3.2350000000000004E-002    -3.9789960134835328E-020
  -3.2300000000000002E-002    -4.0058674012000777E-020
  -3.2250000000000001E-002    -2.5146820029619197E-020
  -3.2199999999999999E-002     2.3644708067570134E-021
  -3.2149999999999998E-002     3.4177026057624955E-020
  -3.2100000000000004E-002     5.8372295108310019E-020
  -3.2050000000000002E-002     6.3537242740802673E-020
  -3.2000000000000001E-002     4.3671641758519643E-020
  -3.1949999999999999E-002     1.9894548418639327E-021
  -3.1899999999999998E-002    -4.8267156586176046E-020
  -3.1850000000000003E-002    -8.7077143010639520E-020
  -3.1800000000000002E-002    -9.4571927569645628E-020
  -3.1750000000000000E-002    -5.9618210758633696E-020
  -3.1699999999999999E-002     1.3170864172020509E-020
  -3.1649999999999998E-002     1.0134547469384610E-019
  -3.1600000000000003E-002     1.6955366921113123E-019
  -3.1550000000000002E-002     1.8118442692213700E-019
  -3.1500000000000000E-002     1.1353800940890748E-019
  -3.1449999999999999E-002    -2.8885540446809179E-020
  -3.1399999999999997E-002    -2.0891634530481419E-019
  -3.1350000000000003E-002    -3.6322116555288359E-019
  -3.1300000000000001E-002    -4.2106200717659880E-019
  -3.1250000000000000E-002    -3.3070017747674557E-019
  -3.1199999999999999E-002    -8.4709153466346589E-020
  -3.1150000000000001E-002     2.6609480497199514E-019
  -3.1100000000000003E-002     6.1818630089803407E-019
  -3.1050000000000001E-002     8.4251844199936649E-019
  -3.1000000000000000E-002     8.2753421546255818E-019
  -3.0949999999999998E-002     5.2476090425054071E-019
  -3.0900000000000000E-002    -2.0007137997046245E-020
  -3.0850000000000002E-002    -6.6480747766628612E-019
  -3.0800000000000001E-002    -1.2054088230378052E-018
  -3.0750000000000000E-002    -1.4389883446372236E-018
  -3.0699999999999998E-002    -1.2389201667638517E-018
  -3.0650000000000000E-002    -6.1418465091733264E-019
  -3.0600000000000002E-002     2.7211461772925803E-019
  -3.0550000000000001E-002     1.1395633299162191E-018
  -3.0499999999999999E-002     1.6782372781388426E-018
  -3.0449999999999998E-002     1.6625509312851399E-018
  -3.0400000000000000E-002     1.0514744271849448E-018
  -3.0350000000000002E-002     3.3433320372923665E-020
  -3.0300000000000001E-002    -1.0119006142016496E-018
  -3.0249999999999999E-002    -1.6353257804143537E-018
  -3.0200000000000001E-002    -1.4909509942779867E-018
  -3.0150000000000000E-002    -5.0134544137483185E-019
  -3.0100000000000002E-002     1.0524360695378577E-018
  -3.0050000000000000E-002     2.5674262180337651E-018
  -2.9999999999999999E-002     3.2943007665957648E-018
  -2.9950000000000001E-002     2.6126639284304347E-018
  -2.9899999999999999E-002     3.1998224300349675E-019
  -2.9850000000000002E-002    -3.1751575785236272E-018
  -2.9800000000000000E-002    -6.8511575734014898E-018
  -2.9749999999999999E-002    -9.3061593752165256E-018
  -2.9700000000000001E-002    -9.1898268828823120E-018
  -2.9650000000000003E-002    -5.7175372855594257E-018
  -2.9600000000000001E-002     9.0329805258792837E-019
  -2.9550000000000000E-002     9.3067932410629188E-018
  -2.9499999999999998E-002     1.7173989517342764E-017
  -2.9450000000000000E-002     2.1811230262322324E-017
  -2.9400000000000003E-002     2.0972002365044704E-017
  -2.9350000000000001E-002     1.3685481385205096E-017
  -2.9300000000000000E-002     8.1281258588275065E-019
  -2.9249999999999998E-002    -1.4900191107491657E-017
  -2.9200000000000000E-002    -2.9370855963180988E-017
  -2.9150000000000002E-002    -3.8237857968617937E-017
  -2.9100000000000001E-002    -3.8157119106884755E-017
  -2.9049999999999999E-002    -2.7948152041550209E-017
  -2.8999999999999998E-002    -9.2046576923072604E-018
  -2.8950000000000000E-002     1.3885862971554889E-017
  -2.8900000000000002E-002     3.5537859766082401E-017
  -2.8850000000000001E-002     4.9939563254976232E-017
  -2.8799999999999999E-002     5.2951146766354470E-017
  -2.8749999999999998E-002     4.3400100902326967E-017
  -2.8700000000000000E-002     2.3534933027752984E-017
  -2.8650000000000002E-002    -1.5560814651344830E-018
  -2.8600000000000000E-002    -2.5424509614387832E-017
  -2.8549999999999999E-002    -4.2195507820105478E-017
  -2.8500000000000001E-002    -4.8334101891815990E-017
  -2.8450000000000000E-002    -4.3647996302081554E-017
  -2.8400000000000002E-002    -3.1165612764181774E-017
  -2.8350000000000000E-002    -1.5905343294788353E-017
  -2.8299999999999999E-002    -2.9480500058975090E-018
  -2.8250000000000001E-002     4.5001619116934159E-018
  -2.8200000000000003E-002     6.3253402079555647E-018
  -2.8150000000000001E-002     5.4952587362470052E-018
  -2.8100000000000000E-002     6.7426274394725835E-018
  -2.8049999999999999E-002     1.4359165040211251E-017
  -2.8000000000000001E-002     2.9902214806929003E-017
  -2.7950000000000003E-002     5.0736033823182662E-017
  -2.7900000000000001E-002     7.0112726139281766E-017
  -2.7850000000000000E-002     7.8991163548350306E-017
  -2.7799999999999998E-002     6.9152292955589390E-017
  -2.7750000000000000E-002     3.6619216843529611E-017
  -2.7700000000000002E-002    -1.5855687769638784E-017
  -2.7650000000000001E-002    -7.8293164949485448E-017
  -2.7600000000000000E-002    -1.3544642939251904E-016
  -2.7549999999999998E-002    -1.7085679405199466E-016
  -2.7500000000000000E-002    -1.7186003632010152E-016
  -2.7450000000000002E-002    -1.3393289449577358E-016
  -2.7400000000000001E-002    -6.2840215244275525E-017
  -2.7349999999999999E-002     2.6335654150818395E-017
  -2.7299999999999998E-002     1.1319260664822004E-016
  -2.7250000000000000E-002     1.7788016319800071E-016
  -2.7200000000000002E-002     2.0694847300634321E-016
  -2.7150000000000001E-002     1.9716205712226210E-016
  -2.7099999999999999E-002     1.5586697895705692E-016
  -2.7049999999999998E-002     9.7674551106749404E-017
  -2.7000000000000000E-002     3.8575573027011481E-017
  -2.6950000000000002E-002    -1.0341729959449168E-017
  -2.6900000000000000E-002    -4.7072051078712678E-017
  -2.6849999999999999E-002    -7.8876284126899094E-017
  -2.6800000000000001E-002    -1.1798005794483707E-016
  -2.6749999999999999E-002    -1.7407299632672869E-016
  -2.6700000000000002E-002    -2.4640860942046516E-016
  -2.6650000000000000E-002    -3.1893633093875107E-016
  -2.6599999999999999E-002    -3.6130018614411154E-016
  -2.6550000000000001E-002    -3.3673155168971005E-016
  -2.6500000000000003E-002    -2.1536023921592311E-016
  -2.6450000000000001E-002     1.0931734265269197E-017
  -2.6400000000000000E-002     3.1739416102996308E-016
  -2.6349999999999998E-002     6.4404375773106113E-016
  -2.6300000000000000E-002     9.0497738510099041E-016
  -2.6250000000000002E-002     1.0088186592778475E-015
  -2.6200000000000001E-002     8.8585761116731791E-016
  -2.6150000000000000E-002     5.1441970378695383E-016
  -2.6099999999999998E-002    -6.2078585803659022E-017
  -2.6050000000000000E-002    -7.3439612625349383E-016
  -2.6000000000000002E-002    -1.3460780081632253E-015
  -2.5950000000000001E-002    -1.7289914654589280E-015
  -2.5899999999999999E-002    -1.7479010088552899E-015
  -2.5849999999999998E-002    -1.3424721027919715E-015
  -2.5800000000000000E-002    -5.5440648317177946E-016
  -2.5750000000000002E-002     4.6978143928483611E-016
  -2.5700000000000001E-002     1.5039806242730255E-015
  -2.5649999999999999E-002     2.2918698555240505E-015
  -2.5599999999999998E-002     2.6096739129098410E-015
  -2.5550000000000000E-002     2.3268806381928123E-015
  -2.5500000000000002E-002     1.4488318473105744E-015
  -2.5450000000000000E-002     1.2865104790619280E-016
  -2.5399999999999999E-002    -1.3569201441204910E-015
  -2.5349999999999998E-002    -2.6643545339029382E-015
  -2.5300000000000000E-002    -3.4609875241296718E-015
  -2.5250000000000002E-002    -3.5058802926925503E-015
  -2.5200000000000000E-002    -2.7146478897885250E-015
  -2.5149999999999999E-002    -1.1919792377921702E-015
  -2.5100000000000001E-002     7.7752941669969385E-016
  -2.5049999999999999E-002     2.7804430470147761E-015
  -2.5000000000000001E-002     4.3581876416480357E-015
  -2.4950000000000000E-002     5.1065923388324918E-015
  -2.4899999999999999E-002     4.7703523337397871E-015
  -2.4850000000000001E-002     3.3116962559911048E-015
  -2.4800000000000003E-002     9.3700011327202387E-016
  -2.4750000000000001E-002    -1.9271039166285743E-015
  -2.4700000000000000E-002    -4.7065614305754601E-015
  -2.4649999999999998E-002    -6.7901333482455212E-015
  -2.4600000000000000E-002    -7.6568901476979418E-015
  -2.4550000000000002E-002    -6.9956307216143686E-015
  -2.4500000000000001E-002    -4.7903029165149893E-015
  -2.4450000000000000E-002    -1.3501163513021962E-015
  -2.4399999999999998E-002     2.7273611023522602E-015
  -2.4350000000000000E-002     6.6584691763486670E-015
  -2.4299999999999999E-002     9.6249172515759271E-015
  -2.4250000000000001E-002     1.0945548258011790E-014
  -2.4199999999999999E-002     1.0231729471666507E-014
  -2.4150000000000001E-002     7.4898928235216883E-015
  -2.4100000000000000E-002     3.1435971351874110E-015
  -2.4049999999999998E-002    -2.0358026602616793E-015
  -2.4000000000000000E-002    -7.0796489368493621E-015
  -2.3949999999999999E-002    -1.1022790420282172E-014
  -2.3900000000000001E-002    -1.3109318911484742E-014
  -2.3850000000000000E-002    -1.2954095634118593E-014
  -2.3800000000000002E-002    -1.0619977020082992E-014
  -2.3750000000000000E-002    -6.5908374274285999E-015
  -2.3699999999999999E-002    -1.6473493683841734E-015
  -2.3650000000000001E-002     3.3214026006629447E-015
  -2.3599999999999999E-002     7.5198232801019297E-015
  -2.3550000000000001E-002     1.0407058591942457E-014
  -2.3500000000000000E-002     1.1775399801997878E-014
  -2.3449999999999999E-002     1.1729215497868305E-014
  -2.3400000000000001E-002     1.0578289719602997E-014
  -2.3349999999999999E-002     8.6863228423857408E-015
  -2.3300000000000001E-002     6.3296041017774253E-015
  -2.3250000000000000E-002     3.6170769586054301E-015
  -2.3199999999999998E-002     5.0182846729706434E-016
  -2.3150000000000000E-002    -3.1189007522196535E-015
  -2.3099999999999999E-002    -7.2510455983648572E-015
  -2.3050000000000001E-002    -1.1657992903458924E-014
  -2.3000000000000000E-002    -1.5784712279384967E-014
  -2.2950000000000002E-002    -1.8797021423918811E-014
  -2.2900000000000000E-002    -1.9745418062092058E-014
  -2.2849999999999999E-002    -1.7820731511769582E-014
  -2.2800000000000001E-002    -1.2633239632165838E-014
  -2.2749999999999999E-002    -4.4300803678026464E-015
  -2.2700000000000001E-002     5.8241685025633921E-015
  -2.2650000000000000E-002     1.6545882669760818E-014
  -2.2599999999999999E-002     2.5802316235126860E-014
  -2.2550000000000001E-002     3.1697057663122384E-014
  -2.2499999999999999E-002     3.2780416415459049E-014
  -2.2450000000000001E-002     2.8386021645561504E-014
  -2.2400000000000000E-002     1.8814002568339140E-014
  -2.2349999999999998E-002     5.3226698781830216E-015
  -2.2300000000000000E-002    -1.0061297463641698E-014
  -2.2249999999999999E-002    -2.4862504864528605E-014
  -2.2200000000000001E-002    -3.6534643001855426E-014
  -2.2150000000000000E-002    -4.2828470899868594E-014
  -2.2100000000000002E-002    -4.2104423722688662E-014
  -2.2050000000000000E-002    -3.3574862206495889E-014
  -2.1999999999999999E-002    -1.7481228037282751E-014
  -2.1950000000000001E-002     4.7862164059519592E-015
  -2.1899999999999999E-002     3.0638427860864994E-014
  -2.1850000000000001E-002     5.6350041272134918E-014
  -2.1800000000000000E-002     7.7302157749391196E-014
  -2.1749999999999999E-002     8.8471464144267402E-014
  -2.1700000000000001E-002     8.5192188190052822E-014
  -2.1649999999999999E-002     6.4138237946000357E-014
  -2.1600000000000001E-002     2.4375076889042551E-014
  -2.1550000000000000E-002    -3.1756598743407550E-014
  -2.1499999999999998E-002    -9.8203403741430069E-014
  -2.1450000000000000E-002    -1.6545020250428929E-013
  -2.1399999999999999E-002    -2.2158250039035713E-013
  -2.1350000000000001E-002    -2.5409868657053651E-013
  -2.1299999999999999E-002    -2.5220231594040027E-013
  -2.1250000000000002E-002    -2.0913447042076034E-013
  -2.1200000000000000E-002    -1.2402696821883251E-013
  -2.1149999999999999E-002    -2.8066282683195803E-015
  -2.1100000000000001E-002     1.4213819646094118E-013
  -2.1049999999999999E-002     2.9354454660445366E-013
  -2.1000000000000001E-002     4.3183249936054397E-013
  -2.0950000000000000E-002     5.3811051105430590E-013
  -2.0899999999999998E-002     5.9699174215591821E-013
  -2.0850000000000000E-002     5.9863810547142622E-013
  -2.0799999999999999E-002     5.3965738452466350E-013
  -2.0750000000000001E-002     4.2278569266973100E-013
  -2.0700000000000000E-002     2.5560675084665379E-013
  -2.0649999999999998E-002     4.8795389022345660E-014
  -2.0600000000000000E-002    -1.8554599464231226E-013
  -2.0549999999999999E-002    -4.3498262242119672E-013
  -2.0500000000000001E-002    -6.8704084041082550E-013
  -2.0449999999999999E-002    -9.2877537758830485E-013
  -2.0400000000000001E-002    -1.1459625728716315E-012
  -2.0350000000000000E-002    -1.3224282328667936E-012
  -2.0299999999999999E-002    -1.4399962464206618E-012
  -2.0250000000000001E-002    -1.4793605220471540E-012
  -2.0199999999999999E-002    -1.4218870189084768E-012
  -2.0150000000000001E-002    -1.2520526798285041E-012
  -2.0100000000000000E-002    -9.6002458809422507E-013
  -2.0049999999999998E-002    -5.4383889902093966E-013
  -2.0000000000000000E-002    -1.0779541441363568E-014
  -1.9949999999999999E-002     6.2217928202859453E-013
  -1.9900000000000001E-002     1.3287060327897428E-012
  -1.9850000000000000E-002     2.0738517396335604E-012
  -1.9799999999999998E-002     2.8147783467195957E-012
  -1.9750000000000000E-002     3.5012302152236119E-012
  -1.9699999999999999E-002     4.0758032416426949E-012
  -1.9650000000000001E-002     4.4744510490521859E-012
  -1.9599999999999999E-002     4.6279253814398335E-012
  -1.9550000000000001E-002     4.4649342775025017E-012
  -1.9500000000000000E-002     3.9175757305095882E-012
  -1.9449999999999999E-002     2.9291674318129082E-012
  -1.9400000000000001E-002     1.4639731869055177E-012
  -1.9349999999999999E-002    -4.8223481811513788E-013
  -1.9300000000000001E-002    -2.8722391352725022E-012
  -1.9250000000000000E-002    -5.6195900594132474E-012
  -1.9199999999999998E-002    -8.5842125368656430E-012
  -1.9150000000000000E-002    -1.1572093978783404E-011
  -1.9099999999999999E-002    -1.4339050907906642E-011
  -1.9050000000000001E-002    -1.6597896678286131E-011
  -1.9000000000000000E-002    -1.8027996814132812E-011
  -1.8949999999999998E-002    -1.8286019869209567E-011
  -1.8900000000000000E-002    -1.7016971245004447E-011
  -1.8849999999999999E-002    -1.3864985269280874E-011
  -1.8800000000000001E-002    -8.4837250275589739E-012
  -1.8749999999999999E-002    -5.4668623393523386E-013
  -1.8700000000000001E-002     1.0242489615658165E-011
  -1.8650000000000000E-002     2.4139749694402005E-011
  -1.8599999999999998E-002     4.1350817397565916E-011
  -1.8550000000000001E-002     6.2022988354019501E-011
  -1.8499999999999999E-002     8.6239527961686018E-011
  -1.8450000000000001E-002     1.1401809878812772E-010
  -1.8400000000000000E-002     1.4531388694874276E-010
  -1.8349999999999998E-002     1.8002745364266879E-010
  -1.8300000000000000E-002     2.1801667552931201E-010
  -1.8249999999999999E-002     2.5911099742724119E-010
  -1.8200000000000001E-002     3.0312650747842896E-010
  -1.8149999999999999E-002     3.4987919928557237E-010
  -1.8100000000000002E-002     3.9919580281625234E-010
  -1.8050000000000000E-002     4.5092049028817881E-010
  -1.7999999999999999E-002     5.0491844065128110E-010
  -1.7950000000000001E-002     5.6107600809587211E-010
  -1.7899999999999999E-002     6.1929918965801379E-010
  -1.7850000000000001E-002     6.7951128960358281E-010
  -1.7800000000000000E-002     7.4165078814061112E-010
  -1.7749999999999998E-002     8.0566946862715572E-010
  -1.7700000000000000E-002     8.7153120663811589E-010
  -1.7649999999999999E-002     9.3921089500114447E-010
  -1.7600000000000001E-002     1.0086937409690358E-009
  -1.7550000000000000E-002     1.0799737976507065E-009
  -1.7499999999999998E-002     1.1530532880257277E-009
  -1.7450000000000000E-002     1.2279414680616126E-009
  -1.7399999999999999E-002     1.3046544813409559E-009
  -1.7350000000000001E-002     1.3832158475752226E-009
  -1.7299999999999999E-002     1.4636559449951216E-009
  -1.7250000000000001E-002     1.5460131152723302E-009
  -1.7200000000000000E-002     1.6303320539783346E-009
  -1.7149999999999999E-002     1.7166620856613779E-009
  -1.7100000000000001E-002     1.8050543475504620E-009
  -1.7049999999999999E-002     1.8955582413187278E-009
  -1.7000000000000001E-002     1.9882197211013508E-009
  -1.6950000000000000E-002     2.0830815563206209E-009
  -1.6899999999999998E-002     2.1801867253642977E-009
  -1.6850000000000000E-002     2.2795859334969005E-009
  -1.6799999999999999E-002     2.3813470246332216E-009
  -1.6750000000000001E-002     2.4855650179061311E-009
  -1.6700000000000000E-002     2.5923684430442417E-009
  -1.6649999999999998E-002     2.7019232099855079E-009
  -1.6600000000000000E-002     2.8144269778849905E-009
  -1.6549999999999999E-002     2.9300983691495732E-009
  -1.6500000000000001E-002     3.0491594219748546E-009
  -1.6449999999999999E-002     3.1718155047951322E-009
  -1.6400000000000001E-002     3.2982372257840737E-009
  -1.6350000000000000E-002     3.4285457811130955E-009
  -1.6299999999999999E-002     3.5628072545465378E-009
  -1.6250000000000001E-002     3.7010349341862372E-009
  -1.6199999999999999E-002     3.8431994517263077E-009
  -1.6150000000000001E-002     3.9892450244893029E-009
  -1.6100000000000000E-002     4.1391091098269866E-009
  -1.6049999999999998E-002     4.2927399987045828E-009
  -1.6000000000000000E-002     4.4501135687250752E-009
  -1.5949999999999999E-002     4.6112466903320569E-009
  -1.5900000000000001E-002     4.7762037273503924E-009
  -1.5850000000000000E-002     4.9451043293358222E-009
  -1.5799999999999998E-002     5.1181246825760938E-009
  -1.5750000000000000E-002     5.2954984947098794E-009
  -1.5699999999999999E-002     5.4775125772738724E-009
  -1.5650000000000001E-002     5.6644994891434090E-009
  -1.5599999999999999E-002     5.8568222324076827E-009
  -1.5550000000000001E-002     6.0548540025323870E-009
  -1.5500000000000000E-002     6.2589550489879112E-009
  -1.5449999999999998E-002     6.4694455654829571E-009
  -1.5400000000000000E-002     6.6865834006851588E-009
  -1.5349999999999999E-002     6.9105494065281492E-009
  -1.5300000000000001E-002     7.1414400578376187E-009
  -1.5250000000000000E-002     7.3792814750981560E-009
  -1.5199999999999998E-002     7.6240440925662719E-009
  -1.5150000000000000E-002     7.8756696320976826E-009
  -1.5099999999999999E-002     8.1341047943552787E-009
  -1.5050000000000001E-002     8.3993251648637489E-009
  -1.4999999999999999E-002     8.6713584211403348E-009
  -1.4949999999999998E-002     8.9502946767522646E-009
  -1.4900000000000000E-002     9.2362914426953254E-009
  -1.4849999999999999E-002     9.5295761507946456E-009
  -1.4800000000000001E-002     9.8304364518029761E-009
  -1.4749999999999999E-002     1.0139219709855732E-008
  -1.4700000000000001E-002     1.0456325551088184E-008
  -1.4650000000000000E-002     1.0782201894495656E-008
  -1.4599999999999998E-002     1.1117334492841449E-008
  -1.4550000000000000E-002     1.1462231514314162E-008
  -1.4499999999999999E-002     1.1817399002061292E-008
  -1.4450000000000001E-002     1.2183313962074667E-008
  -1.4400000000000000E-002     1.2560397235879166E-008
  -1.4349999999999998E-002     1.2948988171512712E-008
  -1.4300000000000000E-002     1.3349337466169758E-008
  -1.4249999999999999E-002     1.3761606784238386E-008
  -1.4200000000000001E-002     1.4185892263528028E-008
  -1.4149999999999999E-002     1.4622261361244945E-008
  -1.4099999999999998E-002     1.5070782895304726E-008
  -1.4050000000000000E-002     1.5531567659238491E-008
  -1.3999999999999999E-002     1.6004782816112201E-008
  -1.3950000000000001E-002     1.6490656749113670E-008
  -1.3899999999999999E-002     1.6989468518910023E-008
  -1.3850000000000001E-002     1.7501528869806158E-008
  -1.3800000000000000E-002     1.8027164300552984E-008
  -1.3749999999999998E-002     1.8566709971311911E-008
  -1.3700000000000000E-002     1.9120517094832192E-008
  -1.3649999999999999E-002     1.9688979625086904E-008
  -1.3600000000000001E-002     2.0272562333977559E-008
  -1.3550000000000000E-002     2.0871833053582913E-008
  -1.3499999999999998E-002     2.1487464521263177E-008
  -1.3450000000000000E-002     2.2120215685407310E-008
  -1.3399999999999999E-002     2.2770889590751542E-008
  -1.3350000000000001E-002     2.3440262827422944E-008
  -1.3299999999999999E-002     2.4129013459068681E-008
  -1.3249999999999998E-002     2.4837672834029564E-008
  -1.3200000000000000E-002     2.5566599665907162E-008
  -1.3149999999999998E-002     2.6316009775186437E-008
  -1.3100000000000001E-002     2.7086032271616327E-008
  -1.3049999999999999E-002     2.7876809075124359E-008
  -1.3000000000000001E-002     2.8688570305543235E-008
  -1.2950000000000000E-002     2.9521704664643543E-008
  -1.2899999999999998E-002     3.0376781473032810E-008
  -1.2850000000000000E-002     3.1254514542212267E-008
  -1.2799999999999999E-002     3.2155686773988544E-008