  -4.0000000000000001E-002     0.0000000000000000     
  -3.9949999999999999E-002     0.0000000000000000     
  -3.9899999999999998E-002     0.0000000000000000     
  -3.9850000000000003E-002     0.0000000000000000     
  -3.9800000000000002E-002     0.0000000000000000     
  -3.9750000000000001E-002     0.0000000000000000     
  -3.9699999999999999E-002     0.0000000000000000     
  -3.9649999999999998E-002     0.0000000000000000     
  -3.9600000000000003E-002     0.0000000000000000     
  -3.9550000000000002E-002     0.0000000000000000     
  -3.9500000000000000E-002     0.0000000000000000     
  -3.9449999999999999E-002     0.0000000000000000     
  -3.9399999999999998E-002     0.0000000000000000     
  -3.9350000000000003E-002     0.0000000000000000     
  -3.9300000000000002E-002     0.0000000000000000     
  -3.9250000000000000E-002     0.0000000000000000     
  -3.9199999999999999E-002     0.0000000000000000     
  -3.9150000000000004E-002     0.0000000000000000     
  -3.9100000000000003E-002     0.0000000000000000     
  -3.9050000000000001E-002     0.0000000000000000     
  -3.9000000000000000E-002     0.0000000000000000     
  -3.8949999999999999E-002     0.0000000000000000     
  -3.8900000000000004E-002     0.0000000000000000     
  -3.8850000000000003E-002     0.0000000000000000     
  -3.8800000000000001E-002     0.0000000000000000     
  -3.8750000000000000E-002     0.0000000000000000     
  -3.8699999999999998E-002     0.0000000000000000     
  -3.8650000000000004E-002     0.0000000000000000     
  -3.8600000000000002E-002     0.0000000000000000     
  -3.8550000000000001E-002     0.0000000000000000     
  -3.8500000000000000E-002     0.0000000000000000     
  -3.8449999999999998E-002     0.0000000000000000     
  -3.8400000000000004E-002     0.0000000000000000     
  -3.8350000000000002E-002     0.0000000000000000     
  -3.8300000000000001E-002     0.0000000000000000     
  -3.8249999999999999E-002     0.0000000000000000     
  -3.8199999999999998E-002     0.0000000000000000     
  -3.8150000000000003E-002     0.0000000000000000     
  -3.8100000000000002E-002     0.0000000000000000     
  -3.8050000000000000E-002     0.0000000000000000     
  -3.7999999999999999E-002     0.0000000000000000     
  -3.7949999999999998E-002     0.0000000000000000     
  -3.7900000000000003E-002     0.0000000000000000     
  -3.7850000000000002E-002     0.0000000000000000     
  -3.7800000000000000E-002     0.0000000000000000     
  -3.7749999999999999E-002     0.0000000000000000     
  -3.7699999999999997E-002     0.0000000000000000     
  -3.7650000000000003E-002     0.0000000000000000     
  -3.7600000000000001E-002     0.0000000000000000     
  -3.7550000000000000E-002     0.0000000000000000     
  -3.7499999999999999E-002     0.0000000000000000     
  -3.7449999999999997E-002     0.0000000000000000     
  -3.7400000000000003E-002     0.0000000000000000     
  -3.7350000000000001E-002     0.0000000000000000     
  -3.7300000000000000E-002     0.0000000000000000     
  -3.7249999999999998E-002     0.0000000000000000     
  -3.7200000000000004E-002     0.0000000000000000     
  -3.7150000000000002E-002     0.0000000000000000     
  -3.7100000000000001E-002     0.0000000000000000     
  -3.7050000000000000E-002     0.0000000000000000     
  -3.6999999999999998E-002     0.0000000000000000     
  -3.6950000000000004E-002     0.0000000000000000     
  -3.6900000000000002E-002     0.0000000000000000     
  -3.6850000000000001E-002     0.0000000000000000     
  -3.6799999999999999E-002     0.0000000000000000     
  -3.6749999999999998E-002     0.0000000000000000     
  -3.6700000000000003E-002     0.0000000000000000     
  -3.6650000000000002E-002     0.0000000000000000     
  -3.6600000000000001E-002     0.0000000000000000     
  -3.6549999999999999E-002     0.0000000000000000     
  -3.6499999999999998E-002     0.0000000000000000     
  -3.6450000000000003E-002     0.0000000000000000     
  -3.6400000000000002E-002     0.0000000000000000     
  -3.6350000000000000E-002     0.0000000000000000     
  -3.6299999999999999E-002     0.0000000000000000     
  -3.6249999999999998E-002     0.0000000000000000     
  -3.6200000000000003E-002     0.0000000000000000     
  -3.6150000000000002E-002     0.0000000000000000     
  -3.6100000000000000E-002     0.0000000000000000     
  -3.6049999999999999E-002     0.0000000000000000     
  -3.6000000000000004E-002     0.0000000000000000     
  -3.5950000000000003E-002     0.0000000000000000     
  -3.5900000000000001E-002     0.0000000000000000     
  -3.5850000000000000E-002     0.0000000000000000     
  -3.5799999999999998E-002     0.0000000000000000     
  -3.5750000000000004E-002     0.0000000000000000     
  -3.5700000000000003E-002     0.0000000000000000     
  -3.5650000000000001E-002     0.0000000000000000     
  -3.5600000000000000E-002     0.0000000000000000     
  -3.5549999999999998E-002     0.0000000000000000     
  -3.5500000000000004E-002     0.0000000000000000     
  -3.5450000000000002E-002     0.0000000000000000     
  -3.5400000000000001E-002     0.0000000000000000     
  -3.5349999999999999E-002     0.0000000000000000     
  -3.5299999999999998E-002     0.0000000000000000     
  -3.5250000000000004E-002     0.0000000000000000     
  -3.5200000000000002E-002     0.0000000000000000     
  -3.5150000000000001E-002     0.0000000000000000     
  -3.5099999999999999E-002     0.0000000000000000     
  -3.5049999999999998E-002     0.0000000000000000     
  -3.5000000000000003E-002     0.0000000000000000     
  -3.4950000000000002E-002     0.0000000000000000     
  -3.4900000000000000E-002     0.0000000000000000     
  -3.4849999999999999E-002     0.0000000000000000     
  -3.4799999999999998E-002     0.0000000000000000     
  -3.4750000000000003E-002     0.0000000000000000     
  -3.4700000000000002E-002     0.0000000000000000     
  -3.4650000000000000E-002     0.0000000000000000     
  -3.4599999999999999E-002     0.0000000000000000     
  -3.4549999999999997E-002     0.0000000000000000     
  -3.4500000000000003E-002     0.0000000000000000     
  -3.4450000000000001E-002     0.0000000000000000     
  -3.4400000000000000E-002     0.0000000000000000     
  -3.4349999999999999E-002     0.0000000000000000     
  -3.4299999999999997E-002     0.0000000000000000     
  -3.4250000000000003E-002     0.0000000000000000     
  -3.4200000000000001E-002     0.0000000000000000     
  -3.4150000000000000E-002     0.0000000000000000     
  -3.4099999999999998E-002     0.0000000000000000     
  -3.4049999999999997E-002     0.0000000000000000     
  -3.4000000000000002E-002     0.0000000000000000     
  -3.3950000000000001E-002     0.0000000000000000     
  -3.3900000000000000E-002     0.0000000000000000     
  -3.3849999999999998E-002     0.0000000000000000     
  -3.3799999999999997E-002     0.0000000000000000     
  -3.3750000000000002E-002     0.0000000000000000     
  -3.3700000000000001E-002     0.0000000000000000     
  -3.3649999999999999E-002     0.0000000000000000     
  -3.3599999999999998E-002     0.0000000000000000     
  -3.3550000000000003E-002     0.0000000000000000     
  -3.3500000000000002E-002     0.0000000000000000     
  -3.3450000000000001E-002     0.0000000000000000     
  -3.3399999999999999E-002     0.0000000000000000     
  -3.3349999999999998E-002     0.0000000000000000     
  -3.3300000000000003E-002     0.0000000000000000     
  -3.3250000000000002E-002     0.0000000000000000     
  -3.3200000000000000E-002     0.0000000000000000     
  -3.3149999999999999E-002     0.0000000000000000     
  -3.3099999999999997E-002     0.0000000000000000     
  -3.3050000000000003E-002     0.0000000000000000     
  -3.3000000000000002E-002     0.0000000000000000     
  -3.2950000000000000E-002     0.0000000000000000     
  -3.2899999999999999E-002     0.0000000000000000     
  -3.2850000000000004E-002     0.0000000000000000     
  -3.2800000000000003E-002     0.0000000000000000     
  -3.2750000000000001E-002     0.0000000000000000     
  -3.2700000000000000E-002     0.0000000000000000     
  -3.2649999999999998E-002     0.0000000000000000     
  -3.2600000000000004E-002     0.0000000000000000     
  -3.2550000000000003E-002     0.0000000000000000     
  -3.2500000000000001E-002     0.0000000000000000     
  -3.2450000000000000E-002     0.0000000000000000     
  -3.2399999999999998E-002     0.0000000000000000     
  -3.2350000000000004E-002     0.0000000000000000     
  -3.2300000000000002E-002     0.0000000000000000     
  -3.2250000000000001E-002     0.0000000000000000     
  -3.2199999999999999E-002     0.0000000000000000     
  -3.2149999999999998E-002     0.0000000000000000     
  -3.2100000000000004E-002     0.0000000000000000     
  -3.2050000000000002E-002     0.0000000000000000     
  -3.2000000000000001E-002     0.0000000000000000     
  -3.1949999999999999E-002     0.0000000000000000     
  -3.1899999999999998E-002     0.0000000000000000     
  -3.1850000000000003E-002     0.0000000000000000     
  -3.1800000000000002E-002     0.0000000000000000     
  -3.1750000000000000E-002     0.0000000000000000     
  -3.1699999999999999E-002     0.0000000000000000     
  -3.1649999999999998E-002     0.0000000000000000     
  -3.1600000000000003E-002     0.0000000000000000     
  -3.1550000000000002E-002     0.0000000000000000     
  -3.1500000000000000E-002     0.0000000000000000     
  -3.1449999999999999E-002     0.0000000000000000     
  -3.1399999999999997E-002     0.0000000000000000     
  -3.1350000000000003E-002     0.0000000000000000     
  -3.1300000000000001E-002     0.0000000000000000     
  -3.1250000000000000E-002     0.0000000000000000     
  -3.1199999999999999E-002     0.0000000000000000     
  -3.1150000000000001E-002     0.0000000000000000     
  -3.1100000000000003E-002     0.0000000000000000     
  -3.1050000000000001E-002     0.0000000000000000     
  -3.1000000000000000E-002     0.0000000000000000     
  -3.0949999999999998E-002     1.4214953501563228E-039
  -3.0900000000000000E-002     1.4214953501563228E-039
  -3.0850000000000002E-002     1.4214953501563228E-039
  -3.0800000000000001E-002    -3.6268522753798429E-039
  -3.0750000000000000E-002    -8.7539068787350138E-039
  -3.0699999999999998E-002    -9.1980706237201611E-039
  -3.0650000000000000E-002    -2.3165306339123792E-039
  -3.0600000000000002E-002     1.0137669941024502E-038
  -3.0550000000000001E-002     2.2172473009669767E-038
  -3.0499999999999999E-002     2.6188925436502110E-038
  -3.0449999999999998E-002     2.1962609606315454E-038
  -3.0400000000000000E-002     1.1937053458581940E-038
  -3.0350000000000002E-002    -2.3838868058629410E-039
  -3.0300000000000001E-002    -4.0094204820346919E-038
  -3.0249999999999999E-002    -8.1633819067992794E-038
  -3.0200000000000001E-002    -1.1871779576363941E-037
  -3.0150000000000000E-002    -1.3958461488345879E-037
  -3.0100000000000002E-002    -1.2481806817961601E-037
  -3.0050000000000000E-002    -4.6453071075702651E-038
  -2.9999999999999999E-002     1.1151404338025705E-037
  -2.9950000000000001E-002     3.6870886832485698E-037
  -2.9899999999999999E-002     6.2500667466392783E-037
  -2.9850000000000002E-002     7.6316471509350834E-037
  -2.9800000000000000E-002     6.2746320154027998E-037
  -2.9749999999999999E-002     1.0780393198084106E-037
  -2.9700000000000001E-002    -7.7005402836075048E-037
  -2.9650000000000003E-002    -1.8555121221375036E-036
  -2.9600000000000001E-002    -2.7711426372264838E-036
  -2.9550000000000000E-002    -2.9617556397187853E-036
  -2.9499999999999998E-002    -1.8662346765706690E-036
  -2.9450000000000000E-002     7.6687418702828564E-037
  -2.9400000000000003E-002     4.5466559468835063E-036
  -2.9350000000000001E-002     8.2114904958730532E-036
  -2.9300000000000000E-002     9.7958879090685385E-036
  -2.9249999999999998E-002     7.2717366304578789E-036
  -2.9200000000000000E-002    -3.8312641867487223E-037
  -2.9150000000000002E-002    -1.2012599211464022E-035
  -2.9100000000000001E-002    -2.3584295695283366E-035
  -2.9049999999999999E-002    -2.8654500785952839E-035
  -2.8999999999999998E-002    -2.0453129074029899E-035
  -2.8950000000000000E-002     4.5600271945924574E-036
  -2.8900000000000002E-002     4.2715235950726039E-035
  -2.8850000000000001E-002     8.0662730990344578E-035
  -2.8799999999999999E-002     9.6679227391051923E-035
  -2.8749999999999998E-002     6.7316815330874661E-035
  -2.8700000000000000E-002    -2.0980380495915607E-035
  -2.8650000000000002E-002    -1.5850413414971214E-034
  -2.8600000000000000E-002    -3.0311992910874566E-034
  -2.8549999999999999E-002    -3.8246955852699330E-034
  -2.8500000000000001E-002    -3.1290010421090770E-034
  -2.8450000000000000E-002    -3.5022341281851746E-035
  -2.8400000000000002E-002     4.4251114962692513E-034
  -2.8350000000000000E-002     1.0079561888388630E-033
  -2.8299999999999999E-002     1.4418163590674588E-033
  -2.8250000000000001E-002     1.4609170523665315E-033
  -2.8200000000000003E-002     8.1584598819605029E-034
  -2.8150000000000001E-002    -5.7624759233936458E-034
  -2.8100000000000000E-002    -2.5067035635270486E-033
  -2.8049999999999999E-002    -4.4186938480399672E-033
  -2.8000000000000001E-002    -5.4770622514921200E-033
  -2.7950000000000003E-002    -4.7934129491527950E-033
  -2.7900000000000001E-002    -1.7798293267955028E-033
  -2.7850000000000000E-002     3.4632090387302550E-033
  -2.7799999999999998E-002     9.8747775091507772E-033
  -2.7750000000000000E-002     1.5441635775746234E-032
  -2.7700000000000002E-002     1.7600613915575749E-032
  -2.7650000000000001E-002     1.4030759015783338E-032
  -2.7600000000000000E-002     3.6676165727026189E-033
  -2.7549999999999998E-002    -1.2383697300686028E-032
  -2.7500000000000000E-002    -3.0440236420896805E-032
  -2.7450000000000002E-002    -4.4685028806111911E-032
  -2.7400000000000001E-002    -4.8592162985385859E-032
  -2.7349999999999999E-002    -3.7115516595571928E-032
  -2.7299999999999998E-002    -9.0467992510449687E-033
  -2.7250000000000000E-002     3.1314319321642679E-032
  -2.7200000000000002E-002     7.4038345016065637E-032
  -2.7150000000000001E-002     1.0551107344593562E-031
  -2.7099999999999999E-002     1.1230661411356536E-031
  -2.7049999999999998E-002     8.6045037740060022E-032
  -2.7000000000000000E-002     2.7624485674901867E-032
  -2.6950000000000002E-002    -5.0993313742877700E-032
  -2.6900000000000000E-002    -1.2879075467503891E-031
  -2.6849999999999999E-002    -1.8166606823201455E-031
  -2.6800000000000001E-002    -1.9093672688599167E-031
  -2.6749999999999999E-002    -1.5145663487181405E-031
  -2.6700000000000002E-002    -7.5736397670650396E-032
  -2.6650000000000000E-002     8.8793548547549082E-033
  -2.6599999999999999E-002     7.0727146916815375E-032
  -2.6550000000000001E-002     8.9481786943540426E-032
  -2.6500000000000003E-002     7.1058355227358328E-032
  -2.6450000000000001E-002     5.3944894527121867E-032
  -2.6400000000000000E-002     1.0006955687871702E-031
  -2.6349999999999998E-002     2.6778520814609926E-031
  -2.6300000000000000E-002     5.7205238515463840E-031
  -2.6250000000000002E-002     9.4537020999715413E-031
  -2.6200000000000001E-002     1.2191214898806728E-030
  -2.6150000000000000E-002     1.1450995155545856E-030
  -2.6099999999999998E-002     4.6839874349991542E-031
  -2.6050000000000000E-002    -9.5453340119761267E-031
  -2.6000000000000002E-002    -3.0216167230999389E-030
  -2.5950000000000001E-002    -5.2844790207795437E-030
  -2.5899999999999999E-002    -6.9410257557138220E-030
  -2.5849999999999998E-002    -6.9706069200363949E-030
  -2.5800000000000000E-002    -4.4264941513780838E-030
  -2.5750000000000002E-002     1.1553577215045388E-030
  -2.5700000000000001E-002     9.3361732138611160E-030
  -2.5649999999999999E-002     1.8498378382925623E-029
  -2.5599999999999998E-002     2.5882073245229358E-029
  -2.5550000000000000E-002     2.8056794512963125E-029
  -2.5500000000000002E-002     2.1842081781427830E-029
  -2.5450000000000000E-002     5.5323981217748803E-030
  -2.5399999999999999E-002    -1.9884998143473836E-029
  -2.5349999999999998E-002    -4.9949563102076735E-029
  -2.5300000000000000E-002    -7.6824932112290043E-029
  -2.5250000000000002E-002    -9.0574177905375337E-029
  -2.5200000000000000E-002    -8.1616511321800781E-029
  -2.5149999999999999E-002    -4.3968988692010638E-029
  -2.5100000000000001E-002     2.1524815314461131E-029
  -2.5049999999999999E-002     1.0504142934837106E-028
  -2.5000000000000001E-002     1.8775473883953889E-028
  -2.4950000000000000E-002     2.4463986215721240E-028
  -2.4899999999999999E-002     2.5010055825179035E-028
  -2.4850000000000001E-002     1.8551407558276761E-028
  -2.4800000000000003E-002     4.6917765865089472E-029
  -2.4750000000000001E-002    -1.4947658789646561E-028
  -2.4700000000000000E-002    -3.6620081713701939E-028
  -2.4649999999999998E-002    -5.4936401856337719E-028
  -2.4600000000000000E-002    -6.3945495445188102E-028
  -2.4550000000000002E-002    -5.8639323831838080E-028
  -2.4500000000000001E-002    -3.6547432962100565E-028
  -2.4450000000000000E-002     1.0098183467962588E-029
  -2.4399999999999998E-002     4.8423860702085207E-028
  -2.4350000000000000E-002     9.6329336847177901E-028
  -2.4299999999999999E-002     1.3319327579691188E-027
  -2.4250000000000001E-002     1.4770542940218493E-027
  -2.4199999999999999E-002     1.3146875113504915E-027
  -2.4150000000000001E-002     8.1365347644024468E-028
  -2.4100000000000000E-002     1.0193876616493096E-029
  -2.4049999999999998E-002    -9.9012348527147875E-028
  -2.4000000000000000E-002    -2.0238151909185809E-027
  -2.3949999999999999E-002    -2.8917408996755424E-027
  -2.3900000000000001E-002    -3.3878102855975996E-027
  -2.3850000000000000E-002    -3.3296352493927384E-027
  -2.3800000000000002E-002    -2.5882113581416199E-027
  -2.3750000000000000E-002    -1.1160369217676255E-027
  -2.3699999999999999E-002     1.0254775716269885E-027
  -2.3650000000000001E-002     3.6394951315086944E-027
  -2.3599999999999999E-002     6.3725463333397576E-027
  -2.3550000000000001E-002     8.7095812422553023E-027
  -2.3500000000000000E-002     1.0002449002101334E-026
  -2.3449999999999999E-002     9.5507310410192057E-027
  -2.3400000000000001E-002     6.7472439429745996E-027
  -2.3349999999999999E-002     1.2831296682719525E-027
  -2.3300000000000001E-002    -6.6191381004282375E-027
  -2.3250000000000000E-002    -1.6006323867973894E-026
  -2.3199999999999998E-002    -2.5112583797412093E-026
  -2.3150000000000000E-002    -3.1482373726472922E-026
  -2.3099999999999999E-002    -3.2358283170797748E-026
  -2.3050000000000001E-002    -2.5333871317178132E-026
  -2.3000000000000000E-002    -9.1843728328118072E-027
  -2.2950000000000002E-002     1.5305970590965913E-026
  -2.2900000000000000E-002     4.4774203033895340E-026
  -2.2849999999999999E-002     7.3239768247647189E-026
  -2.2800000000000001E-002     9.2808910342366898E-026
  -2.2749999999999999E-002     9.5185499406913475E-026
  -2.2700000000000001E-002     7.3830646685405996E-026
  -2.2650000000000000E-002     2.6366551456187833E-026
  -2.2599999999999999E-002    -4.3386040500514069E-026
  -2.2550000000000001E-002    -1.2443542772741612E-025
  -2.2499999999999999E-002    -1.9932072230572559E-025
  -2.2450000000000001E-002    -2.4680211964824346E-025
  -2.2400000000000000E-002    -2.4638281495271823E-025
  -2.2349999999999998E-002    -1.8394866108714552E-025
  -2.2300000000000000E-002    -5.7303413879748017E-026
  -2.2249999999999999E-002     1.1992230606494074E-025
  -2.2200000000000001E-002     3.1746589874175230E-025
  -2.2150000000000000E-002     4.9174662411000832E-025
  -2.2100000000000002E-002     5.9346563402866646E-025
  -2.2050000000000000E-002     5.7856646230347734E-025
  -2.1999999999999999E-002     4.2053714986661486E-025
  -2.1950000000000001E-002     1.2123407841627565E-025
  -2.1899999999999999E-002    -2.8283079047898928E-025
  -2.1850000000000001E-002    -7.2129441456830777E-025
  -2.1800000000000000E-002    -1.0991469219642758E-024
  -2.1749999999999999E-002    -1.3138269942650696E-024
  -2.1700000000000001E-002    -1.2776829128373898E-024
  -2.1649999999999999E-002    -9.4151687522917260E-025
  -2.1600000000000001E-002    -3.1391794499149279E-025
  -2.1550000000000000E-002     5.2883654968889596E-025
  -2.1499999999999998E-002     1.4462320357605209E-024
  -2.1450000000000000E-002     2.2518585366205411E-024
  -2.1399999999999999E-002     2.7451373020518167E-024
  -2.1350000000000001E-002     2.7518195547785498E-024
  -2.1299999999999999E-002     2.1661387353232206E-024
  -2.1250000000000002E-002     9.8617606423714454E-025
  -2.1200000000000000E-002    -6.6578572599814375E-025
  -2.1149999999999999E-002    -2.5443405039999412E-024
  -2.1100000000000001E-002    -4.3066818090757561E-024
  -2.1049999999999999E-002    -5.5621441860288184E-024
  -2.1000000000000001E-002    -5.9403334941727127E-024
  -2.0950000000000000E-002    -5.1686164501920511E-024
  -2.0899999999999998E-002    -3.1466000482424940E-024
  -2.0850000000000000E-002    -3.4823064630933888E-027
  -2.0799999999999999E-002     3.8757861556084777E-024
  -2.0750000000000001E-002     7.8674077641743022E-024
  -2.0700000000000000E-002     1.1175961500121188E-023
  -2.0649999999999998E-002     1.2952063244584954E-023
  -2.0600000000000000E-002     1.2451160197394586E-023
  -2.0549999999999999E-002     9.2133595472783765E-024
  -2.0500000000000001E-002     3.2336715677209188E-024
  -2.0449999999999999E-002    -4.9157480876643061E-024
  -2.0400000000000001E-002    -1.4051880012084465E-023
  -2.0350000000000000E-002    -2.2469758055847212E-023
  -2.0299999999999999E-002    -2.8171341475461412E-023
  -2.0250000000000001E-002    -2.9224938650400150E-023
  -2.0199999999999999E-002    -2.4211988356664702E-023
  -2.0150000000000001E-002    -1.2683659265115543E-023
  -2.0100000000000000E-002     4.4765984206210096E-024
  -2.0049999999999998E-002     2.4897146362856606E-023
  -2.0000000000000000E-002     4.4864688785374087E-023
  -1.9949999999999999E-002     5.9822854047865580E-023
  -1.9900000000000001E-002     6.5200470749575294E-023
  -1.9850000000000000E-002     5.7459946185683608E-023
  -1.9799999999999998E-002     3.5172546619691157E-023
  -1.9750000000000000E-002    -1.3032983591152720E-025
  -1.9699999999999999E-002    -4.3590903632028068E-023
  -1.9650000000000001E-002    -8.7351520747935486E-023
  -1.9599999999999999E-002    -1.2166386629322393E-022
  -1.9550000000000001E-002    -1.3670161433080634E-022
  -1.9500000000000000E-002    -1.2480741920692247E-022
  -1.9449999999999999E-002    -8.2738558951033879E-023
  -1.9400000000000001E-002    -1.3378222439119423E-023
  -1.9349999999999999E-002     7.3608125056107146E-023
  -1.9300000000000001E-002     1.6255017138329226E-022
  -1.9250000000000000E-002     2.3409930078616841E-022
  -1.9199999999999998E-002     2.6887525333025081E-022
  -1.9150000000000000E-002     2.5184598154724114E-022
  -1.9099999999999999E-002     1.7656870535961603E-022
  -1.9050000000000001E-002     4.8287723292968600E-023
  -1.9000000000000000E-002    -1.1503362977706895E-022
  -1.8949999999999998E-002    -2.8435798898586706E-022
  -1.8900000000000000E-002    -4.2399686035766997E-022
  -1.8849999999999999E-002    -4.9829700314312277E-022
  -1.8800000000000001E-002    -4.7947469841355260E-022
  -1.8749999999999999E-002    -3.5504402008558307E-022
  -1.8700000000000001E-002    -1.3312854098302172E-022
  -1.8650000000000000E-002     1.5584763546014897E-022
  -1.8599999999999998E-002     4.6202385650210220E-022
  -1.8550000000000001E-002     7.2359975529793889E-022
  -1.8499999999999999E-002     8.7805103916153079E-022
  -1.8450000000000001E-002     8.7522253747826041E-022
  -1.8400000000000000E-002     6.8980373029326703E-022
  -1.8349999999999998E-002     3.3048188451268890E-022
  -1.8300000000000000E-002    -1.5660406817378664E-022
  -1.8249999999999999E-002    -6.9162437484985490E-022
  -1.8200000000000001E-002    -1.1722772365650984E-021
  -1.8149999999999999E-002    -1.4912358710800217E-021
  -1.8100000000000002E-002    -1.5571906273439399E-021
  -1.8050000000000000E-002    -1.3157967165395567E-021
  -1.7999999999999999E-002    -7.6636424319016208E-022
  -1.7950000000000001E-002     2.9607862959666538E-023
  -1.7899999999999999E-002     9.5091936314170941E-022
  -1.7850000000000001E-002     1.8313503088364608E-021
  -1.7800000000000000E-002     2.4855562595415713E-021
  -1.7749999999999998E-002     2.7429313690984522E-021
  -1.7700000000000000E-002     2.4841684455203193E-021
  -1.7649999999999999E-002     1.6738751276180508E-021
  -1.7600000000000001E-002     3.8221234436416716E-022
  -1.7550000000000000E-002    -1.2106236739605084E-021
  -1.7499999999999998E-002    -2.8310957782471994E-021
  -1.7450000000000000E-002    -4.1508661921221553E-021
  -1.7399999999999999E-002    -4.8436721077633419E-021
  -1.7350000000000001E-002    -4.6526804550511767E-021
  -1.7299999999999999E-002    -3.4566909120782251E-021
  -1.7250000000000001E-002    -1.3213468442212308E-021
  -1.7200000000000000E-002     1.4783912842143407E-021
  -1.7149999999999999E-002     4.4752213186903250E-021
  -1.7100000000000001E-002     7.0706154882402862E-021
  -1.7049999999999999E-002     8.6363998672965691E-021
  -1.7000000000000001E-002     8.6434764447306078E-021
  -1.6950000000000000E-002     6.7955420464823532E-021
  -1.6899999999999998E-002     3.1396272609041466E-021
  -1.6850000000000000E-002    -1.8757504892251789E-021
  -1.6799999999999999E-002    -7.4187326182028035E-021
  -1.6750000000000001E-002    -1.2380555316908099E-020
  -1.6700000000000000E-002    -1.5564912037848151E-020
  -1.6649999999999998E-002    -1.5935012658713806E-020
  -1.6600000000000000E-002    -1.2874649696709937E-020
  -1.6549999999999999E-002    -6.4073384729449987E-021
  -1.6500000000000001E-002     2.6843677867099309E-021
  -1.6449999999999999E-002     1.2886265692991148E-020
  -1.6400000000000001E-002     2.2149369955653665E-020
  -1.6350000000000000E-002     2.8244836750325190E-020
  -1.6299999999999999E-002     2.9227175811725324E-020
  -1.6250000000000001E-002     2.3921768259467752E-020
  -1.6199999999999999E-002     1.2331137517601361E-020
  -1.6150000000000001E-002    -4.1467993855881371E-021
  -1.6100000000000000E-002    -2.2772356870139883E-020
  -1.6049999999999998E-002    -3.9826915399050510E-020
  -1.6000000000000000E-002    -5.1259547939642207E-020
  -1.5949999999999999E-002    -5.3523173351488189E-020
  -1.5900000000000001E-002    -4.4447337930052335E-020
  -1.5850000000000000E-002    -2.3960159893519482E-020
  -1.5799999999999998E-002     5.5262199828870368E-021
  -1.5750000000000000E-002     3.9208509599927662E-020
  -1.5699999999999999E-002     7.0523486743279267E-020
  -1.5650000000000001E-002     9.2268747608025005E-020
  -1.5599999999999999E-002     9.8049676692835544E-020
  -1.5550000000000001E-002     8.3792536141065663E-020
  -1.5500000000000000E-002     4.9008680920013579E-020
  -1.5449999999999998E-002    -2.5001293353190991E-021
  -1.5400000000000000E-002    -6.2733296896250597E-020
  -1.5349999999999999E-002    -1.2048491401985220E-019
  -1.5300000000000001E-002    -1.6316976628005854E-019
  -1.5250000000000000E-002    -1.7922802677840308E-019
  -1.5199999999999998E-002    -1.6069739918189286E-019
  -1.5150000000000000E-002    -1.0544708562694712E-019
  -1.5099999999999999E-002    -1.8564061032786663E-020
  -1.5050000000000001E-002     8.7518509193681161E-020
  -1.4999999999999999E-002     1.9436588248897871E-019
  -1.4949999999999998E-002     2.8031019570902568E-019
  -1.4900000000000000E-002     3.2430180358007950E-019
  -1.4849999999999999E-002     3.1023986490256556E-019
  -1.4800000000000001E-002     2.3099711560166257E-019
  -1.4749999999999999E-002     9.1299129277598731E-020
  -1.4700000000000001E-002    -9.1281735874670209E-020
  -1.4650000000000000E-002    -2.8770100510934275E-019
  -1.4599999999999998E-002    -4.6128610527202535E-019
  -1.4550000000000000E-002    -5.7368895965374449E-019
  -1.4499999999999999E-002    -5.9212984731965003E-019
  -1.4450000000000001E-002    -4.9673914481850610E-019
  -1.4400000000000000E-002    -2.8659806736504942E-019
  -1.4349999999999998E-002     1.6896567721655727E-020
  -1.4300000000000000E-002     3.7043119925514689E-019
  -1.4249999999999999E-002     7.1348826574684846E-019
  -1.4200000000000001E-002     9.7718702193198800E-019
  -1.4149999999999999E-002     1.0962482403484374E-018
  -1.4099999999999998E-002     1.0223050236351095E-018
  -1.4050000000000000E-002     7.3621800574049733E-019
  -1.3999999999999999E-002     2.5683578885074855E-019
  -1.3950000000000001E-002    -3.5611719139379197E-019
  -1.3899999999999999E-002    -1.0066093908103847E-018
  -1.3850000000000001E-002    -1.5747388708149460E-018
  -1.3800000000000000E-002    -1.9359814783642872E-018
  -1.3749999999999998E-002    -1.9846724382358368E-018
  -1.3700000000000000E-002    -1.6578507460052600E-018
  -1.3649999999999999E-002    -9.5484446598197310E-019
  -1.3600000000000001E-002     5.1992321090593752E-020
  -1.3550000000000000E-002     1.2190346339004084E-018
  -1.3499999999999998E-002     2.3474201882863244E-018
  -1.3450000000000000E-002     3.2126215323962922E-018
  -1.3399999999999999E-002     3.6039875819132589E-018
  -1.3350000000000001E-002     3.3681099754939061E-018
  -1.3299999999999999E-002     2.4480706691723704E-018
  -1.3249999999999998E-002     9.1014392813075440E-019
  -1.3200000000000000E-002    -1.0493409438986906E-018
  -1.3149999999999998E-002    -3.1215017666477001E-018
  -1.3100000000000001E-002    -4.9271566478381265E-018
  -1.3049999999999999E-002    -6.0793551875169016E-018
  -1.3000000000000001E-002    -6.2570157109606847E-018
  -1.2950000000000000E-002    -5.2769084685012706E-018
  -1.2899999999999998E-002    -3.1496443446187065E-018
  -1.2850000000000000E-002    -1.0640171332460541E-019
  -1.2799999999999999E-002     3.4130498754954150E-018