  -4.0000000000000001E-002     0.0000000000000000     
  -3.9949999999999999E-002     0.0000000000000000     
  -3.9899999999999998E-002     0.0000000000000000     
  -3.9850000000000003E-002     0.0000000000000000     
  -3.9800000000000002E-002     0.0000000000000000     
  -3.9750000000000001E-002     0.0000000000000000     
  -3.9699999999999999E-002     0.0000000000000000     
  -3.9649999999999998E-002     0.0000000000000000     
  -3.9600000000000003E-002     0.0000000000000000     
  -3.9550000000000002E-002     0.0000000000000000     
  -3.9500000000000000E-002     0.0000000000000000     
  -3.9449999999999999E-002     0.0000000000000000     
  -3.9399999999999998E-002     0.0000000000000000     
  -3.9350000000000003E-002     0.0000000000000000     
  -3.9300000000000002E-002     0.0000000000000000     
  -3.9250000000000000E-002     0.0000000000000000     
  -3.9199999999999999E-002     0.0000000000000000     
  -3.9150000000000004E-002     0.0000000000000000     
  -3.9100000000000003E-002     0.0000000000000000     
  -3.9050000000000001E-002     0.0000000000000000     
  -3.9000000000000000E-002     0.0000000000000000     
  -3.8949999999999999E-002     0.0000000000000000     
  -3.8900000000000004E-002     0.0000000000000000     
  -3.8850000000000003E-002     0.0000000000000000     
  -3.8800000000000001E-002     0.0000000000000000     
  -3.8750000000000000E-002     0.0000000000000000     
  -3.8699999999999998E-002     0.0000000000000000     
  -3.8650000000000004E-002     0.0000000000000000     
  -3.8600000000000002E-002     0.0000000000000000     
  -3.8550000000000001E-002     0.0000000000000000     
  -3.8500000000000000E-002     0.0000000000000000     
  -3.8449999999999998E-002     0.0000000000000000     
  -3.8400000000000004E-002     0.0000000000000000     
  -3.8350000000000002E-002     0.0000000000000000     
  -3.8300000000000001E-002     0.0000000000000000     
  -3.8249999999999999E-002     0.0000000000000000     
  -3.8199999999999998E-002     0.0000000000000000     
  -3.8150000000000003E-002     0.0000000000000000     
  -3.8100000000000002E-002     0.0000000000000000     
  -3.8050000000000000E-002     0.0000000000000000     
  -3.7999999999999999E-002     0.0000000000000000     
  -3.7949999999999998E-002     0.0000000000000000     
  -3.7900000000000003E-002     0.0000000000000000     
  -3.7850000000000002E-002     0.0000000000000000     
  -3.7800000000000000E-002     0.0000000000000000     
  -3.7749999999999999E-002     0.0000000000000000     
  -3.7699999999999997E-002     0.0000000000000000     
  -3.7650000000000003E-002     0.0000000000000000     
  -3.7600000000000001E-002     0.0000000000000000     
  -3.7550000000000000E-002     0.0000000000000000     
  -3.7499999999999999E-002     0.0000000000000000     
  -3.7449999999999997E-002     0.0000000000000000     
  -3.7400000000000003E-002     0.0000000000000000     
  -3.7350000000000001E-002     0.0000000000000000     
  -3.7300000000000000E-002     0.0000000000000000     
  -3.7249999999999998E-002     0.0000000000000000     
  -3.7200000000000004E-002     0.0000000000000000     
  -3.7150000000000002E-002     0.0000000000000000     
  -3.7100000000000001E-002     0.0000000000000000     
  -3.7050000000000000E-002     0.0000000000000000     
  -3.6999999999999998E-002     0.0000000000000000     
  -3.6950000000000004E-002     0.0000000000000000     
  -3.6900000000000002E-002     0.0000000000000000     
  -3.6850000000000001E-002     0.0000000000000000     
  -3.6799999999999999E-002     0.0000000000000000     
  -3.6749999999999998E-002     0.0000000000000000     
  -3.6700000000000003E-002     0.0000000000000000     
  -3.6650000000000002E-002     0.0000000000000000     
  -3.6600000000000001E-002     0.0000000000000000     
  -3.6549999999999999E-002     0.0000000000000000     
  -3.6499999999999998E-002     0.0000000000000000     
  -3.6450000000000003E-002     0.0000000000000000     
  -3.6400000000000002E-002     0.0000000000000000     
  -3.6350000000000000E-002     0.0000000000000000     
  -3.6299999999999999E-002     0.0000000000000000     
  -3.6249999999999998E-002     0.0000000000000000     
  -3.6200000000000003E-002     0.0000000000000000     
  -3.6150000000000002E-002     0.0000000000000000     
  -3.6100000000000000E-002     0.0000000000000000     
  -3.6049999999999999E-002     0.0000000000000000     
  -3.6000000000000004E-002     0.0000000000000000     
  -3.5950000000000003E-002     0.0000000000000000     
  -3.5900000000000001E-002     0.0000000000000000     
  -3.5850000000000000E-002     0.0000000000000000     
  -3.5799999999999998E-002     0.0000000000000000     
  -3.5750000000000004E-002     0.0000000000000000     
  -3.5700000000000003E-002     0.0000000000000000     
  -3.5650000000000001E-002     0.0000000000000000     
  -3.5600000000000000E-002     0.0000000000000000     
  -3.5549999999999998E-002     0.0000000000000000     
  -3.5500000000000004E-002     0.0000000000000000     
  -3.5450000000000002E-002     0.0000000000000000     
  -3.5400000000000001E-002     0.0000000000000000     
  -3.5349999999999999E-002     0.0000000000000000     
  -3.5299999999999998E-002     0.0000000000000000     
  -3.5250000000000004E-002     0.0000000000000000     
  -3.5200000000000002E-002     0.0000000000000000     
  -3.5150000000000001E-002     0.0000000000000000     
  -3.5099999999999999E-002     0.0000000000000000     
  -3.5049999999999998E-002     0.0000000000000000     
  -3.5000000000000003E-002     0.0000000000000000     
  -3.4950000000000002E-002     0.0000000000000000     
  -3.4900000000000000E-002     0.0000000000000000     
  -3.4849999999999999E-002     0.0000000000000000     
  -3.4799999999999998E-002     0.0000000000000000     
  -3.4750000000000003E-002     0.0000000000000000     
  -3.4700000000000002E-002     0.0000000000000000     
  -3.4650000000000000E-002     0.0000000000000000     
  -3.4599999999999999E-002     0.0000000000000000     
  -3.4549999999999997E-002     0.0000000000000000     
  -3.4500000000000003E-002     0.0000000000000000     
  -3.4450000000000001E-002     0.0000000000000000     
  -3.4400000000000000E-002     0.0000000000000000     
  -3.4349999999999999E-002     0.0000000000000000     
  -3.4299999999999997E-002     0.0000000000000000     
  -3.4250000000000003E-002     0.0000000000000000     
  -3.4200000000000001E-002     0.0000000000000000     
  -3.4150000000000000E-002     0.0000000000000000     
  -3.4099999999999998E-002     0.0000000000000000     
  -3.4049999999999997E-002     0.0000000000000000     
  -3.4000000000000002E-002     0.0000000000000000     
  -3.3950000000000001E-002     0.0000000000000000     
  -3.3900000000000000E-002     0.0000000000000000     
  -3.3849999999999998E-002     0.0000000000000000     
  -3.3799999999999997E-002     0.0000000000000000     
  -3.3750000000000002E-002     0.0000000000000000     
  -3.3700000000000001E-002     0.0000000000000000     
  -3.3649999999999999E-002     0.0000000000000000     
  -3.3599999999999998E-002     0.0000000000000000     
  -3.3550000000000003E-002     0.0000000000000000     
  -3.3500000000000002E-002     0.0000000000000000     
  -3.3450000000000001E-002     0.0000000000000000     
  -3.3399999999999999E-002     0.0000000000000000     
  -3.3349999999999998E-002     0.0000000000000000     
  -3.3300000000000003E-002     0.0000000000000000     
  -3.3250000000000002E-002     0.0000000000000000     
  -3.3200000000000000E-002     0.0000000000000000     
  -3.3149999999999999E-002     0.0000000000000000     
  -3.3099999999999997E-002     0.0000000000000000     
  -3.3050000000000003E-002     0.0000000000000000     
  -3.3000000000000002E-002     0.0000000000000000     
  -3.2950000000000000E-002     0.0000000000000000     
  -3.2899999999999999E-002     0.0000000000000000     
  -3.2850000000000004E-002     0.0000000000000000     
  -3.2800000000000003E-002     0.0000000000000000     
  -3.2750000000000001E-002     0.0000000000000000     
  -3.2700000000000000E-002     0.0000000000000000     
  -3.2649999999999998E-002     0.0000000000000000     
  -3.2600000000000004E-002     0.0000000000000000     
  -3.2550000000000003E-002     0.0000000000000000     
  -3.2500000000000001E-002     0.0000000000000000     
  -3.2450000000000000E-002     0.0000000000000000     
  -3.2399999999999998E-002     0.0000000000000000     
  -3.2350000000000004E-002     0.0000000000000000     
  -3.2300000000000002E-002     0.0000000000000000     
  -3.2250000000000001E-002     0.0000000000000000     
  -3.2199999999999999E-002     0.0000000000000000     
  -3.2149999999999998E-002     0.0000000000000000     
  -3.2100000000000004E-002     0.0000000000000000     
  -3.2050000000000002E-002     0.0000000000000000     
  -3.2000000000000001E-002     0.0000000000000000     
  -3.1949999999999999E-002     0.0000000000000000     
  -3.1899999999999998E-002     0.0000000000000000     
  -3.1850000000000003E-002     0.0000000000000000     
  -3.1800000000000002E-002     0.0000000000000000     
  -3.1750000000000000E-002     0.0000000000000000     
  -3.1699999999999999E-002     0.0000000000000000     
  -3.1649999999999998E-002     0.0000000000000000     
  -3.1600000000000003E-002     0.0000000000000000     
  -3.1550000000000002E-002     0.0000000000000000     
  -3.1500000000000000E-002     0.0000000000000000     
  -3.1449999999999999E-002     0.0000000000000000     
  -3.1399999999999997E-002     0.0000000000000000     
  -3.1350000000000003E-002     0.0000000000000000     
  -3.1300000000000001E-002     0.0000000000000000     
  -3.1250000000000000E-002     0.0000000000000000     
  -3.1199999999999999E-002     0.0000000000000000     
  -3.1150000000000001E-002     0.0000000000000000     
  -3.1100000000000003E-002     0.0000000000000000     
  -3.1050000000000001E-002     0.0000000000000000     
  -3.1000000000000000E-002     0.0000000000000000     
  -3.0949999999999998E-002     0.0000000000000000     
  -3.0900000000000000E-002     0.0000000000000000     
  -3.0850000000000002E-002     0.0000000000000000     
  -3.0800000000000001E-002     0.0000000000000000     
  -3.0750000000000000E-002     0.0000000000000000     
  -3.0699999999999998E-002     0.0000000000000000     
  -3.0650000000000000E-002     0.0000000000000000     
  -3.0600000000000002E-002     0.0000000000000000     
  -3.0550000000000001E-002     0.0000000000000000     
  -3.0499999999999999E-002     0.0000000000000000     
  -3.0449999999999998E-002     0.0000000000000000     
  -3.0400000000000000E-002     0.0000000000000000     
  -3.0350000000000002E-002     0.0000000000000000     
  -3.0300000000000001E-002     0.0000000000000000     
  -3.0249999999999999E-002     0.0000000000000000     
  -3.0200000000000001E-002     0.0000000000000000     
  -3.0150000000000000E-002     0.0000000000000000     
  -3.0100000000000002E-002     0.0000000000000000     
  -3.0050000000000000E-002     0.0000000000000000     
  -2.9999999999999999E-002     0.0000000000000000     
  -2.9950000000000001E-002     0.0000000000000000     
  -2.9899999999999999E-002     0.0000000000000000     
  -2.9850000000000002E-002     0.0000000000000000     
  -2.9800000000000000E-002     0.0000000000000000     
  -2.9749999999999999E-002     0.0000000000000000     
  -2.9700000000000001E-002     0.0000000000000000     
  -2.9650000000000003E-002     0.0000000000000000     
  -2.9600000000000001E-002     0.0000000000000000     
  -2.9550000000000000E-002     0.0000000000000000     
  -2.9499999999999998E-002     0.0000000000000000     
  -2.9450000000000000E-002     0.0000000000000000     
  -2.9400000000000003E-002     0.0000000000000000     
  -2.9350000000000001E-002     0.0000000000000000     
  -2.9300000000000000E-002     0.0000000000000000     
  -2.9249999999999998E-002     0.0000000000000000     
  -2.9200000000000000E-002     0.0000000000000000     
  -2.9150000000000002E-002     0.0000000000000000     
  -2.9100000000000001E-002     0.0000000000000000     
  -2.9049999999999999E-002     0.0000000000000000     
  -2.8999999999999998E-002     0.0000000000000000     
  -2.8950000000000000E-002     0.0000000000000000     
  -2.8900000000000002E-002     0.0000000000000000     
  -2.8850000000000001E-002     0.0000000000000000     
  -2.8799999999999999E-002     0.0000000000000000     
  -2.8749999999999998E-002     0.0000000000000000     
  -2.8700000000000000E-002     0.0000000000000000     
  -2.8650000000000002E-002     0.0000000000000000     
  -2.8600000000000000E-002     0.0000000000000000     
  -2.8549999999999999E-002     0.0000000000000000     
  -2.8500000000000001E-002     0.0000000000000000     
  -2.8450000000000000E-002     0.0000000000000000     
  -2.8400000000000002E-002     0.0000000000000000     
  -2.8350000000000000E-002     0.0000000000000000     
  -2.8299999999999999E-002     0.0000000000000000     
  -2.8250000000000001E-002     0.0000000000000000     
  -2.8200000000000003E-002     0.0000000000000000     
  -2.8150000000000001E-002     0.0000000000000000     
  -2.8100000000000000E-002     0.0000000000000000     
  -2.8049999999999999E-002     0.0000000000000000     
  -2.8000000000000001E-002     0.0000000000000000     
  -2.7950000000000003E-002     0.0000000000000000     
  -2.7900000000000001E-002     0.0000000000000000     
  -2.7850000000000000E-002     0.0000000000000000     
  -2.7799999999999998E-002     0.0000000000000000     
  -2.7750000000000000E-002     0.0000000000000000     
  -2.7700000000000002E-002     0.0000000000000000     
  -2.7650000000000001E-002     0.0000000000000000     
  -2.7600000000000000E-002     0.0000000000000000     
  -2.7549999999999998E-002     0.0000000000000000     
  -2.7500000000000000E-002     0.0000000000000000     
  -2.7450000000000002E-002     0.0000000000000000     
  -2.7400000000000001E-002     0.0000000000000000     
  -2.7349999999999999E-002     0.0000000000000000     
  -2.7299999999999998E-002     0.0000000000000000     
  -2.7250000000000000E-002     0.0000000000000000     
  -2.7200000000000002E-002     0.0000000000000000     
  -2.7150000000000001E-002     0.0000000000000000     
  -2.7099999999999999E-002     0.0000000000000000     
  -2.7049999999999998E-002     0.0000000000000000     
  -2.7000000000000000E-002     0.0000000000000000     
  -2.6950000000000002E-002     0.0000000000000000     
  -2.6900000000000000E-002     0.0000000000000000     
  -2.6849999999999999E-002     0.0000000000000000     
  -2.6800000000000001E-002     0.0000000000000000     
  -2.6749999999999999E-002     0.0000000000000000     
  -2.6700000000000002E-002     0.0000000000000000     
  -2.6650000000000000E-002     0.0000000000000000     
  -2.6599999999999999E-002     0.0000000000000000     
  -2.6550000000000001E-002     0.0000000000000000     
  -2.6500000000000003E-002     0.0000000000000000     
  -2.6450000000000001E-002     0.0000000000000000     
  -2.6400000000000000E-002     0.0000000000000000     
  -2.6349999999999998E-002     0.0000000000000000     
  -2.6300000000000000E-002     0.0000000000000000     
  -2.6250000000000002E-002     0.0000000000000000     
  -2.6200000000000001E-002     0.0000000000000000     
  -2.6150000000000000E-002     0.0000000000000000     
  -2.6099999999999998E-002     0.0000000000000000     
  -2.6050000000000000E-002     0.0000000000000000     
  -2.6000000000000002E-002     0.0000000000000000     
  -2.5950000000000001E-002     0.0000000000000000     
  -2.5899999999999999E-002     0.0000000000000000     
  -2.5849999999999998E-002     0.0000000000000000     
  -2.5800000000000000E-002     0.0000000000000000     
  -2.5750000000000002E-002     0.0000000000000000     
  -2.5700000000000001E-002     0.0000000000000000     
  -2.5649999999999999E-002     0.0000000000000000     
  -2.5599999999999998E-002     0.0000000000000000     
  -2.5550000000000000E-002     0.0000000000000000     
  -2.5500000000000002E-002     0.0000000000000000     
  -2.5450000000000000E-002     0.0000000000000000     
  -2.5399999999999999E-002     0.0000000000000000     
  -2.5349999999999998E-002     0.0000000000000000     
  -2.5300000000000000E-002     0.0000000000000000     
  -2.5250000000000002E-002     0.0000000000000000     
  -2.5200000000000000E-002     0.0000000000000000     
  -2.5149999999999999E-002     0.0000000000000000     
  -2.5100000000000001E-002     0.0000000000000000     
  -2.5049999999999999E-002     0.0000000000000000     
  -2.5000000000000001E-002     0.0000000000000000     
  -2.4950000000000000E-002     0.0000000000000000     
  -2.4899999999999999E-002     0.0000000000000000     
  -2.4850000000000001E-002     0.0000000000000000     
  -2.4800000000000003E-002     0.0000000000000000     
  -2.4750000000000001E-002     0.0000000000000000     
  -2.4700000000000000E-002     0.0000000000000000     
  -2.4649999999999998E-002     0.0000000000000000     
  -2.4600000000000000E-002     0.0000000000000000     
  -2.4550000000000002E-002     0.0000000000000000     
  -2.4500000000000001E-002     0.0000000000000000     
  -2.4450000000000000E-002     0.0000000000000000     
  -2.4399999999999998E-002     0.0000000000000000     
  -2.4350000000000000E-002     0.0000000000000000     
  -2.4299999999999999E-002     0.0000000000000000     
  -2.4250000000000001E-002     0.0000000000000000     
  -2.4199999999999999E-002     0.0000000000000000     
  -2.4150000000000001E-002     0.0000000000000000     
  -2.4100000000000000E-002     0.0000000000000000     
  -2.4049999999999998E-002     0.0000000000000000     
  -2.4000000000000000E-002     0.0000000000000000     
  -2.3949999999999999E-002     0.0000000000000000     
  -2.3900000000000001E-002     0.0000000000000000     
  -2.3850000000000000E-002     0.0000000000000000     
  -2.3800000000000002E-002     0.0000000000000000     
  -2.3750000000000000E-002     0.0000000000000000     
  -2.3699999999999999E-002     0.0000000000000000     
  -2.3650000000000001E-002     0.0000000000000000     
  -2.3599999999999999E-002     0.0000000000000000     
  -2.3550000000000001E-002     0.0000000000000000     
  -2.3500000000000000E-002     0.0000000000000000     
  -2.3449999999999999E-002     0.0000000000000000     
  -2.3400000000000001E-002     0.0000000000000000     
  -2.3349999999999999E-002     0.0000000000000000     
  -2.3300000000000001E-002     0.0000000000000000     
  -2.3250000000000000E-002     0.0000000000000000     
  -2.3199999999999998E-002     0.0000000000000000     
  -2.3150000000000000E-002     0.0000000000000000     
  -2.3099999999999999E-002     0.0000000000000000     
  -2.3050000000000001E-002     0.0000000000000000     
  -2.3000000000000000E-002     0.0000000000000000     
  -2.2950000000000002E-002     0.0000000000000000     
  -2.2900000000000000E-002     0.0000000000000000     
  -2.2849999999999999E-002     0.0000000000000000     
  -2.2800000000000001E-002     0.0000000000000000     
  -2.2749999999999999E-002     0.0000000000000000     
  -2.2700000000000001E-002     0.0000000000000000     
  -2.2650000000000000E-002     0.0000000000000000     
  -2.2599999999999999E-002     0.0000000000000000     
  -2.2550000000000001E-002     0.0000000000000000     
  -2.2499999999999999E-002     0.0000000000000000     
  -2.2450000000000001E-002     0.0000000000000000     
  -2.2400000000000000E-002     0.0000000000000000     
  -2.2349999999999998E-002     0.0000000000000000     
  -2.2300000000000000E-002     0.0000000000000000     
  -2.2249999999999999E-002     0.0000000000000000     
  -2.2200000000000001E-002     0.0000000000000000     
  -2.2150000000000000E-002     0.0000000000000000     
  -2.2100000000000002E-002     0.0000000000000000     
  -2.2050000000000000E-002     0.0000000000000000     
  -2.1999999999999999E-002     0.0000000000000000     
  -2.1950000000000001E-002     0.0000000000000000     
  -2.1899999999999999E-002     0.0000000000000000     
  -2.1850000000000001E-002     0.0000000000000000     
  -2.1800000000000000E-002     0.0000000000000000     
  -2.1749999999999999E-002     0.0000000000000000     
  -2.1700000000000001E-002     0.0000000000000000     
  -2.1649999999999999E-002     0.0000000000000000     
  -2.1600000000000001E-002     0.0000000000000000     
  -2.1550000000000000E-002     0.0000000000000000     
  -2.1499999999999998E-002     0.0000000000000000     
  -2.1450000000000000E-002     0.0000000000000000     
  -2.1399999999999999E-002     0.0000000000000000     
  -2.1350000000000001E-002     0.0000000000000000     
  -2.1299999999999999E-002     0.0000000000000000     
  -2.1250000000000002E-002     0.0000000000000000     
  -2.1200000000000000E-002     0.0000000000000000     
  -2.1149999999999999E-002     0.0000000000000000     
  -2.1100000000000001E-002     0.0000000000000000     
  -2.1049999999999999E-002     0.0000000000000000     
  -2.1000000000000001E-002     0.0000000000000000     
  -2.0950000000000000E-002     0.0000000000000000     
  -2.0899999999999998E-002     0.0000000000000000     
  -2.0850000000000000E-002     0.0000000000000000     
  -2.0799999999999999E-002     0.0000000000000000     
  -2.0750000000000001E-002     0.0000000000000000     
  -2.0700000000000000E-002     0.0000000000000000     
  -2.0649999999999998E-002     0.0000000000000000     
  -2.0600000000000000E-002     0.0000000000000000     
  -2.0549999999999999E-002     0.0000000000000000     
  -2.0500000000000001E-002     0.0000000000000000     
  -2.0449999999999999E-002     0.0000000000000000     
  -2.0400000000000001E-002     0.0000000000000000     
  -2.0350000000000000E-002     0.0000000000000000     
  -2.0299999999999999E-002    -5.6606651728965509E-040
  -2.0250000000000001E-002    -1.2103009101788354E-039
  -2.0199999999999999E-002    -7.0525109325640382E-040
  -2.0150000000000001E-002     0.0000000000000000     
  -2.0100000000000000E-002     1.3895551950437230E-039
  -2.0049999999999998E-002     3.1161035156063584E-039
  -2.0000000000000000E-002     4.6406719775858596E-039
  -1.9949999999999999E-002     5.5224101319778788E-039
  -1.9900000000000001E-002     4.8356212754556045E-039
  -1.9850000000000000E-002    -5.1806650145330667E-040
  -1.9799999999999998E-002    -9.9538199960448473E-039
  -1.9750000000000000E-002    -2.0068384590786180E-038
  -1.9699999999999999E-002    -2.6698140663747890E-038
  -1.9650000000000001E-002    -2.1543161085520419E-038
  -1.9599999999999999E-002    -6.1655741218373908E-039
  -1.9550000000000001E-002     3.2839142369519348E-039
  -1.9500000000000000E-002     8.3886854376214803E-039
  -1.9449999999999999E-002     3.6479123562894867E-038
  -1.9400000000000001E-002     5.7627348325096631E-038
  -1.9349999999999999E-002     8.4604999622169504E-038
  -1.9300000000000001E-002     9.8451747310865644E-038
  -1.9250000000000000E-002     5.4591284621179595E-038
  -1.9199999999999998E-002    -2.1138184674751151E-038
  -1.9150000000000000E-002    -8.2715911285226771E-038
  -1.9099999999999999E-002    -9.2077755362874534E-038
  -1.9050000000000001E-002    -9.1441626213378090E-038
  -1.9000000000000000E-002    -1.3162588161234616E-037
  -1.8949999999999998E-002    -2.0813034065321536E-037
  -1.8900000000000000E-002    -2.5401119259546970E-037
  -1.8849999999999999E-002    -1.9785546155571772E-037
  -1.8800000000000001E-002     1.8453463326227343E-038
  -1.8749999999999999E-002     3.3043924959496051E-037
  -1.8700000000000001E-002     6.2446352832385455E-037
  -1.8650000000000000E-002     8.0329397834013529E-037
  -1.8599999999999998E-002     8.1982629030550121E-037
  -1.8550000000000001E-002     6.5258655892361289E-037
  -1.8499999999999999E-002     2.6973541070453253E-037
  -1.8450000000000001E-002    -3.6402549361995200E-037
  -1.8400000000000000E-002    -1.2164337022011473E-036
  -1.8349999999999998E-002    -2.1169698354169135E-036
  -1.8300000000000000E-002    -2.7524299370969464E-036
  -1.8249999999999999E-002    -2.7607909091831871E-036
  -1.8200000000000001E-002    -1.8793055496625379E-036
  -1.8149999999999999E-002    -7.1008347171192738E-038
  -1.8100000000000002E-002     2.4233228258551848E-036
  -1.8050000000000000E-002     5.1034805846985351E-036
  -1.7999999999999999E-002     7.2661979168500327E-036
  -1.7950000000000001E-002     8.1063385506750814E-036
  -1.7899999999999999E-002     6.8845022332975058E-036
  -1.7850000000000001E-002     3.1795191394072082E-036
  -1.7800000000000000E-002    -2.8258074183782719E-036
  -1.7749999999999998E-002    -1.0151873613983589E-035
  -1.7700000000000000E-002    -1.7055324991435536E-035
  -1.7649999999999999E-002    -2.1348534778750584E-035
  -1.7600000000000001E-002    -2.0947588075401695E-035
  -1.7550000000000000E-002    -1.4508237715743742E-035
  -1.7499999999999998E-002    -1.9837347912912918E-036
  -1.7450000000000000E-002     1.5035353750099329E-035
  -1.7399999999999999E-002     3.3305688569794744E-035
  -1.7350000000000001E-002     4.8312646444448024E-035
  -1.7299999999999999E-002     5.5073537689440982E-035
  -1.7250000000000001E-002     4.9293445072283833E-035
  -1.7200000000000000E-002     2.8677134556962587E-035
  -1.7149999999999999E-002    -5.9095635670647957E-036
  -1.7100000000000001E-002    -4.9770470479223662E-035
  -1.7049999999999999E-002    -9.4480414710082573E-035
  -1.7000000000000001E-002    -1.2890041633267606E-034
  -1.6950000000000000E-002    -1.4108986277093481E-034
  -1.6899999999999998E-002    -1.2093504507442761E-034
  -1.6850000000000000E-002    -6.3146489641315925E-035
  -1.6799999999999999E-002     2.9902335843028707E-035
  -1.6750000000000001E-002     1.4619222768845353E-034
  -1.6700000000000000E-002     2.6372396076812398E-034
  -1.6649999999999998E-002     3.5255812623229856E-034
  -1.6600000000000000E-002     3.7965279520903252E-034
  -1.6549999999999999E-002     3.1635611811312726E-034
  -1.6500000000000001E-002     1.4761813443120743E-034
  -1.6449999999999999E-002    -1.1890495033271865E-034
  -1.6400000000000001E-002    -4.4644673703892504E-034
  -1.6350000000000000E-002    -7.6834897905940976E-034
  -1.6299999999999999E-002    -9.9539932373402429E-034
  -1.6250000000000001E-002    -1.0323812072829105E-033
  -1.6199999999999999E-002    -8.0258650331553052E-034
  -1.6150000000000001E-002    -2.7613074551096075E-034
  -1.6100000000000000E-002     5.0484927031516688E-034
  -1.6049999999999998E-002     1.4126927706555144E-033
  -1.6000000000000000E-002     2.2405972032307124E-033
  -1.5949999999999999E-002     2.7340097384840057E-033
  -1.5900000000000001E-002     2.6464385073267583E-033
  -1.5850000000000000E-002     1.8115897588891580E-033
  -1.5799999999999998E-002     2.1622166069471164E-034
  -1.5750000000000000E-002    -1.9471134678239806E-033
  -1.5699999999999999E-002    -4.2688797629503642E-033
  -1.5650000000000001E-002    -6.1688251098043414E-033
  -1.5599999999999999E-002    -7.0038074215749125E-033
  -1.5550000000000001E-002    -6.2250059402774431E-033
  -1.5500000000000000E-002    -3.5550313494543679E-033
  -1.5449999999999998E-002     8.5818129356502206E-034
  -1.5400000000000000E-002     6.3590239133219968E-033
  -1.5349999999999999E-002     1.1815035030278983E-032
  -1.5300000000000001E-002     1.5782784191019647E-032
  -1.5250000000000000E-002     1.6800468294262299E-032
  -1.5199999999999998E-002     1.3763475194805334E-032
  -1.5150000000000000E-002     6.3070357232518156E-033
  -1.5099999999999999E-002    -4.9001186669556200E-033
  -1.5050000000000001E-002    -1.8047792251038206E-032
  -1.4999999999999999E-002    -3.0335780593585665E-032
  -1.4949999999999998E-002    -3.8412326489677094E-032
  -1.4900000000000000E-002    -3.9064286888851161E-032
  -1.4849999999999999E-002    -3.0054420809048966E-032
  -1.4800000000000001E-002    -1.0940471482644875E-032
  -1.4749999999999999E-002     1.6326697672388849E-032
  -1.4700000000000001E-002     4.7228347413531669E-032
  -1.4650000000000000E-002     7.5082200608373608E-032
  -1.4599999999999998E-002     9.2086552883526725E-032
  -1.4550000000000000E-002     9.0929786699439076E-032
  -1.4499999999999999E-002     6.6734952253891297E-032
  -1.4450000000000001E-002     1.8961865293410602E-032
  -1.4400000000000000E-002    -4.7212218491004271E-032
  -1.4349999999999998E-002    -1.2052819289095586E-031
  -1.4300000000000000E-002    -1.8469058254355780E-031
  -1.4249999999999999E-002    -2.2098487664540994E-031
  -1.4200000000000001E-002    -2.1228069171129992E-031
  -1.4149999999999999E-002    -1.4782271195093206E-031
  -1.4099999999999998E-002    -2.7822610184908502E-032
  -1.4050000000000000E-002     1.3338957392032715E-031
  -1.3999999999999999E-002     3.0690268265098070E-031
  -1.3950000000000001E-002     4.5237644950186290E-031
  -1.3899999999999999E-002     5.2506271885500992E-031
  -1.3850000000000001E-002     4.8600401004840207E-031
  -1.3800000000000000E-002     3.1367299817403064E-031
  -1.3749999999999998E-002     1.4424811447535809E-032
  -1.3700000000000000E-002    -3.7130971720673291E-031
  -1.3649999999999999E-002    -7.6990663940315890E-031
  -1.3600000000000001E-002    -1.0842481935803826E-030
  -1.3550000000000000E-002    -1.2121348147476937E-030
  -1.3499999999999998E-002    -1.0709874546601417E-030
  -1.3450000000000000E-002    -6.2412721924120388E-031
  -1.3399999999999999E-002     9.7734160228574820E-032
  -1.3350000000000001E-002     9.8656579289006840E-031
  -1.3299999999999999E-002     1.8641665822948307E-030
  -1.3249999999999998E-002     2.5089095705729475E-030
  -1.3200000000000000E-002     2.7002226596465494E-030
  -1.3149999999999998E-002     2.2739872557701332E-030
  -1.3100000000000001E-002     1.1776283657099665E-030
  -1.3049999999999999E-002    -4.8893777023439149E-031
  -1.3000000000000001E-002    -2.4601070135094106E-030
  -1.2950000000000000E-002    -4.3290581286177134E-030
  -1.2899999999999998E-002    -5.6128827709278720E-030
  -1.2850000000000000E-002    -5.8520892452144346E-030
  -1.2799999999999999E-002    -4.7283833749342164E-030