  -4.0000000000000001E-002     0.0000000000000000     
  -3.9949999999999999E-002     0.0000000000000000     
  -3.9899999999999998E-002     0.0000000000000000     
  -3.9850000000000003E-002     0.0000000000000000     
  -3.9800000000000002E-002     0.0000000000000000     
  -3.9750000000000001E-002     0.0000000000000000     
  -3.9699999999999999E-002     0.0000000000000000     
  -3.9649999999999998E-002     0.0000000000000000     
  -3.9600000000000003E-002     0.0000000000000000     
  -3.9550000000000002E-002     0.0000000000000000     
  -3.9500000000000000E-002     0.0000000000000000     
  -3.9449999999999999E-002     0.0000000000000000     
  -3.9399999999999998E-002     0.0000000000000000     
  -3.9350000000000003E-002     0.0000000000000000     
  -3.9300000000000002E-002     0.0000000000000000     
  -3.9250000000000000E-002     0.0000000000000000     
  -3.9199999999999999E-002     0.0000000000000000     
  -3.9150000000000004E-002     0.0000000000000000     
  -3.9100000000000003E-002     0.0000000000000000     
  -3.9050000000000001E-002     0.0000000000000000     
  -3.9000000000000000E-002     0.0000000000000000     
  -3.8949999999999999E-002     0.0000000000000000     
  -3.8900000000000004E-002     0.0000000000000000     
  -3.8850000000000003E-002     0.0000000000000000     
  -3.8800000000000001E-002     0.0000000000000000     
  -3.8750000000000000E-002     0.0000000000000000     
  -3.8699999999999998E-002     0.0000000000000000     
  -3.8650000000000004E-002     0.0000000000000000     
  -3.8600000000000002E-002     0.0000000000000000     
  -3.8550000000000001E-002     0.0000000000000000     
  -3.8500000000000000E-002     0.0000000000000000     
  -3.8449999999999998E-002     0.0000000000000000     
  -3.8400000000000004E-002     0.0000000000000000     
  -3.8350000000000002E-002     0.0000000000000000     
  -3.8300000000000001E-002     0.0000000000000000     
  -3.8249999999999999E-002     0.0000000000000000     
  -3.8199999999999998E-002     0.0000000000000000     
  -3.8150000000000003E-002     0.0000000000000000     
  -3.8100000000000002E-002     0.0000000000000000     
  -3.8050000000000000E-002     0.0000000000000000     
  -3.7999999999999999E-002     0.0000000000000000     
  -3.7949999999999998E-002     0.0000000000000000     
  -3.7900000000000003E-002     0.0000000000000000     
  -3.7850000000000002E-002     0.0000000000000000     
  -3.7800000000000000E-002     0.0000000000000000     
  -3.7749999999999999E-002     0.0000000000000000     
  -3.7699999999999997E-002     0.0000000000000000     
  -3.7650000000000003E-002     0.0000000000000000     
  -3.7600000000000001E-002     0.0000000000000000     
  -3.7550000000000000E-002     0.0000000000000000     
  -3.7499999999999999E-002     0.0000000000000000     
  -3.7449999999999997E-002     0.0000000000000000     
  -3.7400000000000003E-002     0.0000000000000000     
  -3.7350000000000001E-002     0.0000000000000000     
  -3.7300000000000000E-002     0.0000000000000000     
  -3.7249999999999998E-002     0.0000000000000000     
  -3.7200000000000004E-002     0.0000000000000000     
  -3.7150000000000002E-002     0.0000000000000000     
  -3.7100000000000001E-002     0.0000000000000000     
  -3.7050000000000000E-002     0.0000000000000000     
  -3.6999999999999998E-002     0.0000000000000000     
  -3.6950000000000004E-002     0.0000000000000000     
  -3.6900000000000002E-002     0.0000000000000000     
  -3.6850000000000001E-002     0.0000000000000000     
  -3.6799999999999999E-002     0.0000000000000000     
  -3.6749999999999998E-002     0.0000000000000000     
  -3.6700000000000003E-002     0.0000000000000000     
  -3.6650000000000002E-002     0.0000000000000000     
  -3.6600000000000001E-002     0.0000000000000000     
  -3.6549999999999999E-002     0.0000000000000000     
  -3.6499999999999998E-002     0.0000000000000000     
  -3.6450000000000003E-002     0.0000000000000000     
  -3.6400000000000002E-002     0.0000000000000000     
  -3.6350000000000000E-002     0.0000000000000000     
  -3.6299999999999999E-002     0.0000000000000000     
  -3.6249999999999998E-002     0.0000000000000000     
  -3.6200000000000003E-002     0.0000000000000000     
  -3.6150000000000002E-002     0.0000000000000000     
  -3.6100000000000000E-002     0.0000000000000000     
  -3.6049999999999999E-002     0.0000000000000000     
  -3.6000000000000004E-002     0.0000000000000000     
  -3.5950000000000003E-002     0.0000000000000000     
  -3.5900000000000001E-002     0.0000000000000000     
  -3.5850000000000000E-002     0.0000000000000000     
  -3.5799999999999998E-002     0.0000000000000000     
  -3.5750000000000004E-002     0.0000000000000000     
  -3.5700000000000003E-002     0.0000000000000000     
  -3.5650000000000001E-002     0.0000000000000000     
  -3.5600000000000000E-002     0.0000000000000000     
  -3.5549999999999998E-002     0.0000000000000000     
  -3.5500000000000004E-002     0.0000000000000000     
  -3.5450000000000002E-002     0.0000000000000000     
  -3.5400000000000001E-002     0.0000000000000000     
  -3.5349999999999999E-002     0.0000000000000000     
  -3.5299999999999998E-002     0.0000000000000000     
  -3.5250000000000004E-002     0.0000000000000000     
  -3.5200000000000002E-002     0.0000000000000000     
  -3.5150000000000001E-002     0.0000000000000000     
  -3.5099999999999999E-002     0.0000000000000000     
  -3.5049999999999998E-002     0.0000000000000000     
  -3.5000000000000003E-002     0.0000000000000000     
  -3.4950000000000002E-002     0.0000000000000000     
  -3.4900000000000000E-002     0.0000000000000000     
  -3.4849999999999999E-002     0.0000000000000000     
  -3.4799999999999998E-002     0.0000000000000000     
  -3.4750000000000003E-002     0.0000000000000000     
  -3.4700000000000002E-002     0.0000000000000000     
  -3.4650000000000000E-002     0.0000000000000000     
  -3.4599999999999999E-002     0.0000000000000000     
  -3.4549999999999997E-002     0.0000000000000000     
  -3.4500000000000003E-002     0.0000000000000000     
  -3.4450000000000001E-002     0.0000000000000000     
  -3.4400000000000000E-002     0.0000000000000000     
  -3.4349999999999999E-002     0.0000000000000000     
  -3.4299999999999997E-002     0.0000000000000000     
  -3.4250000000000003E-002     0.0000000000000000     
  -3.4200000000000001E-002     0.0000000000000000     
  -3.4150000000000000E-002     0.0000000000000000     
  -3.4099999999999998E-002     0.0000000000000000     
  -3.4049999999999997E-002     0.0000000000000000     
  -3.4000000000000002E-002     0.0000000000000000     
  -3.3950000000000001E-002     0.0000000000000000     
  -3.3900000000000000E-002     0.0000000000000000     
  -3.3849999999999998E-002     0.0000000000000000     
  -3.3799999999999997E-002     1.9188390299641294E-039
  -3.3750000000000002E-002     4.1145544340595348E-039
  -3.3700000000000001E-002     2.5092556643116309E-039
  -3.3649999999999999E-002    -3.7545787900685702E-039
  -3.3599999999999998E-002    -1.3804528256994865E-038
  -3.3550000000000003E-002    -2.3038752127991974E-038
  -3.3500000000000002E-002    -2.0771534859017552E-038
  -3.3450000000000001E-002     1.2374421354990305E-038
  -3.3399999999999999E-002     7.4518889693619376E-038
  -3.3349999999999998E-002     1.3680857218130005E-037
  -3.3300000000000003E-002     1.2698589918055384E-037
  -3.3250000000000002E-002     1.5544434230835778E-038
  -3.3200000000000000E-002    -1.8259376243115769E-037
  -3.3149999999999999E-002    -3.7277857172196772E-037
  -3.3099999999999997E-002    -3.9961330342814182E-037
  -3.3050000000000003E-002    -1.3069031826246659E-037
  -3.3000000000000002E-002     4.4070123173360562E-037
  -3.2950000000000000E-002     1.1085362618209847E-036
  -3.2899999999999999E-002     1.4121504883515938E-036
  -3.2850000000000004E-002     8.2725581597337445E-037
  -3.2800000000000003E-002    -9.4513159441442158E-037
  -3.2750000000000001E-002    -3.5621710496235655E-036
  -3.2700000000000000E-002    -5.7651578732309695E-036
  -3.2649999999999998E-002    -5.5297867843036048E-036
  -3.2600000000000004E-002    -8.7114107341193374E-037
  -3.2550000000000003E-002     8.7279437211870717E-036
  -3.2500000000000001E-002     2.0757445525126184E-035
  -3.2450000000000000E-002     2.8944301260143194E-035
  -3.2399999999999998E-002     2.4444979570199301E-035
  -3.2350000000000004E-002    -3.2086062790583030E-037
  -3.2300000000000002E-002    -4.5733771950098863E-035
  -3.2250000000000001E-002    -9.9193766639434338E-035
  -3.2199999999999999E-002    -1.3332760792888852E-034
  -3.2149999999999998E-002    -1.1213611815311720E-034
  -3.2100000000000004E-002    -6.9659045810700309E-036
  -3.2050000000000002E-002     1.8078990120362584E-034
  -3.2000000000000001E-002     3.9951000216996642E-034
  -3.1949999999999999E-002     5.4361229349625592E-034
  -3.1899999999999998E-002     4.7938115598259017E-034
  -3.1850000000000003E-002     1.0417163006526421E-034
  -3.1800000000000002E-002    -5.7465423133642853E-034
  -3.1750000000000000E-002    -1.3748537576062417E-033
  -3.1699999999999999E-002    -1.9346765631036679E-033
  -3.1649999999999998E-002    -1.8072547674347399E-033
  -3.1600000000000003E-002    -6.5826472585774311E-034
  -3.1550000000000002E-002     1.4858870471242698E-033
  -3.1500000000000000E-002     4.0509937804655735E-033
  -3.1449999999999999E-002     5.9281208566561821E-033
  -3.1399999999999997E-002     5.7882726222275239E-033
  -3.1350000000000003E-002     2.6838280990641288E-033
  -3.1300000000000001E-002    -3.2481834439546732E-033
  -3.1250000000000000E-002    -1.0320119314859595E-032
  -3.1199999999999999E-002    -1.5445051244260300E-032
  -3.1150000000000001E-002    -1.5130153571670305E-032
  -3.1100000000000003E-002    -7.1739252132262587E-033
  -3.1050000000000001E-002     7.5385103316653356E-033
  -3.1000000000000000E-002     2.4103328644446034E-032
  -3.0949999999999998E-002     3.4472129959142251E-032
  -3.0900000000000000E-002     3.0506410602449998E-032
  -3.0850000000000002E-002     8.5213300340435671E-033
  -3.0800000000000001E-002    -2.6564591259900644E-032
  -3.0750000000000000E-002    -6.0049643019013025E-032
  -3.0699999999999998E-002    -7.1360292723588780E-032
  -3.0650000000000000E-002    -4.3271147580415254E-032
  -3.0600000000000002E-002     2.6312930769231404E-032
  -3.0550000000000001E-002     1.1559116317728756E-031
  -3.0499999999999999E-002     1.7969561335684604E-031
  -3.0449999999999998E-002     1.6538935536239625E-031
  -3.0400000000000000E-002     3.8017707558784156E-032
  -3.0350000000000002E-002    -1.8874281945182501E-031
  -3.0300000000000001E-002    -4.3603354597954383E-031
  -3.0249999999999999E-002    -5.7185871630531068E-031
  -3.0200000000000001E-002    -4.5935592623058426E-031
  -3.0150000000000000E-002    -3.1610432673596059E-032
  -3.0100000000000002E-002     6.3636579343415031E-031
  -3.0050000000000000E-002     1.3003867308006235E-030
  -2.9999999999999999E-002     1.6013362616300614E-030
  -2.9950000000000001E-002     1.2093957488065720E-030
  -2.9899999999999999E-002     2.0293553410924304E-032
  -2.9850000000000002E-002    -1.6815825440919320E-030
  -2.9800000000000000E-002    -3.2002748753298676E-030
  -2.9749999999999999E-002    -3.6251004008240103E-030
  -2.9700000000000001E-002    -2.2419026363914269E-030
  -2.9650000000000003E-002     9.6890624910419688E-031
  -2.9600000000000001E-002     4.9848094492388939E-030
  -2.9550000000000000E-002     7.8123189622859423E-030
  -2.9499999999999998E-002     7.1429640605912824E-030
  -2.9450000000000000E-002     1.5185510243186068E-030
  -2.9400000000000003E-002    -8.3862427043720601E-030
  -2.9350000000000001E-002    -1.9011635663296478E-029
  -2.9300000000000000E-002    -2.4368832234942747E-029
  -2.9249999999999998E-002    -1.8066256776533723E-029
  -2.9200000000000000E-002     3.3892440204407685E-030
  -2.9150000000000002E-002     3.7123946658195409E-029
  -2.9100000000000001E-002     7.1989583606636498E-029
  -2.9049999999999999E-002     8.9968936542913105E-029
  -2.8999999999999998E-002     7.1796751560654798E-029
  -2.8950000000000000E-002     6.0110542860663970E-030
  -2.8900000000000002E-002    -1.0140465028282775E-028
  -2.8850000000000001E-002    -2.2120239999819144E-028
  -2.8799999999999999E-002    -3.0341670859660073E-028
  -2.8749999999999998E-002    -2.9083630428095650E-028
  -2.8700000000000000E-002    -1.4193622088575353E-028
  -2.8650000000000002E-002     1.4319513275553777E-028
  -2.8600000000000000E-002     5.0443881852705858E-028
  -2.8549999999999999E-002     8.2209399883115663E-028
  -2.8500000000000001E-002     9.4360055284903757E-028
  -2.8450000000000000E-002     7.3518077749409404E-028
  -2.8400000000000002E-002     1.4562407057208010E-028
  -2.8350000000000000E-002    -7.4054935641511325E-028
  -2.8299999999999999E-002    -1.6869510212760969E-027
  -2.8250000000000001E-002    -2.3461571089755353E-027
  -2.8200000000000003E-002    -2.3602639667065700E-027
  -2.8150000000000001E-002    -1.4998452669026372E-027
  -2.8100000000000000E-002     2.0292583281171970E-028
  -2.8049999999999999E-002     2.3829191055184074E-027
  -2.8000000000000001E-002     4.3804457350730718E-027
  -2.7950000000000003E-002     5.4072462205819347E-027
  -2.7900000000000001E-002     4.8114701054349179E-027
  -2.7850000000000000E-002     2.3648907121331319E-027
  -2.7799999999999998E-002    -1.5349848079865779E-027
  -2.7750000000000000E-002    -5.8507677025764498E-027
  -2.7700000000000002E-002    -9.1346332946951722E-027
  -2.7650000000000001E-002    -9.9747687089327561E-027
  -2.7600000000000000E-002    -7.5391928497775593E-027
  -2.7549999999999998E-002    -2.0282199459723408E-027
  -2.7500000000000000E-002     5.1643829083327863E-027
  -2.7450000000000002E-002     1.1715864802848531E-026
  -2.7400000000000001E-002     1.5063705749197608E-026
  -2.7349999999999999E-002     1.3350751935806216E-026
  -2.7299999999999998E-002     6.3155350329788490E-027
  -2.7250000000000000E-002    -4.2366503450909127E-027
  -2.7200000000000002E-002    -1.4669870003352705E-026
  -2.7150000000000001E-002    -2.0541689567037838E-026
  -2.7099999999999999E-002    -1.8208230074650579E-026
  -2.7049999999999998E-002    -6.5266997282208147E-027
  -2.7000000000000000E-002     1.1985001483680781E-026
  -2.6950000000000002E-002     3.1123294293105314E-026
  -2.6900000000000000E-002     4.2418233645234012E-026
  -2.6849999999999999E-002     3.7843711992277875E-026
  -2.6800000000000001E-002     1.3149543638970651E-026
  -2.6749999999999999E-002    -2.9249280612758087E-026
  -2.6700000000000002E-002    -7.9002189727939982E-026
  -2.6650000000000000E-002    -1.1907679166880262E-025
  -2.6599999999999999E-002    -1.2980103805258033E-025
  -2.6550000000000001E-002    -9.5081525378923942E-026
  -2.6500000000000003E-002    -9.3063316459157182E-027
  -2.6450000000000001E-002     1.1716610804391438E-025
  -2.6400000000000000E-002     2.5612702444403432E-025
  -2.6349999999999998E-002     3.6489077966183857E-025
  -2.6300000000000000E-002     3.9539395622516032E-025
  -2.6250000000000002E-002     3.0788895056339651E-025
  -2.6200000000000001E-002     8.6413285906112133E-026
  -2.6150000000000000E-002    -2.4812228124313853E-025
  -2.6099999999999998E-002    -6.3191771643904251E-025
  -2.6050000000000000E-002    -9.6339241023711062E-025
  -2.6000000000000002E-002    -1.1214857471163629E-024
  -2.5950000000000001E-002    -9.9599924296310303E-025
  -2.5899999999999999E-002    -5.2487640523738932E-025
  -2.5849999999999998E-002     2.7048793853798807E-025
  -2.5800000000000000E-002     1.2632931733297681E-024
  -2.5750000000000002E-002     2.2240072504835710E-024
  -2.5700000000000001E-002     2.8553103717534120E-024
  -2.5649999999999999E-002     2.8595935474308117E-024
  -2.5599999999999998E-002     2.0292022265089047E-024
  -2.5550000000000000E-002     3.3901300837588016E-025
  -2.5500000000000002E-002    -1.9868215336356348E-024
  -2.5450000000000000E-002    -4.4634363851680328E-024
  -2.5399999999999999E-002    -6.4107280682368909E-024
  -2.5349999999999998E-002    -7.0996784318973248E-024
  -2.5300000000000000E-002    -5.9587012618018166E-024
  -2.5250000000000002E-002    -2.7932412833716159E-024
  -2.5200000000000000E-002     2.0467636980321810E-024
  -2.5149999999999999E-002     7.6197160350931142E-024
  -2.5100000000000001E-002     1.2514655358361601E-023
  -2.5049999999999999E-002     1.5151419599423295E-023
  -2.5000000000000001E-002     1.4211938577710992E-023
  -2.4950000000000000E-002     9.1010547518258208E-024
  -2.4899999999999999E-002     2.9922908213767953E-025
  -2.4850000000000001E-002    -1.0530487967709783E-023
  -2.4800000000000003E-002    -2.0773360899692313E-023
  -2.4750000000000001E-002    -2.7436880547893003E-023
  -2.4700000000000000E-002    -2.7963294957960126E-023
  -2.4649999999999998E-002    -2.1076037779209079E-023
  -2.4600000000000000E-002    -7.4001056618494273E-024
  -2.4550000000000002E-002     1.0384811780524993E-023
  -2.4500000000000001E-002     2.7996660979047918E-023
  -2.4450000000000000E-002     4.0576800167804911E-023
  -2.4399999999999998E-002     4.4063135125042319E-023
  -2.4350000000000000E-002     3.6527948857100561E-023
  -2.4299999999999999E-002     1.9039971393659027E-023
  -2.4250000000000001E-002    -4.3090777180889403E-024
  -2.4199999999999999E-002    -2.7354281272711705E-023
  -2.4150000000000001E-002    -4.3615704533697230E-023
  -2.4100000000000000E-002    -4.8388978800155093E-023
  -2.4049999999999998E-002    -4.0492694405509336E-023
  -2.4000000000000000E-002    -2.2998684048649724E-023
  -2.3949999999999999E-002    -2.5129424824698104E-024
  -2.3900000000000001E-002     1.2979243550436156E-023
  -2.3850000000000000E-002     1.7159563420901881E-023
  -2.3800000000000002E-002     8.3260060870266335E-024
  -2.3750000000000000E-002    -8.9205747289013843E-024
  -2.3699999999999999E-002    -2.4207006679125296E-023
  -2.3650000000000001E-002    -2.4477947588024742E-023
  -2.3599999999999999E-002     8.9561035312915973E-025
  -2.3550000000000001E-002     5.4432278780385619E-023
  -2.3500000000000000E-002     1.2632456678455819E-022
  -2.3449999999999999E-002     1.9374997523971763E-022
  -2.3400000000000001E-002     2.2504528199053674E-022
  -2.3349999999999999E-002     1.8869469816361656E-022
  -2.3300000000000001E-002     6.5346424515399062E-023
  -2.3250000000000000E-002    -1.4050297610264707E-022
  -2.3199999999999998E-002    -3.9335786875506658E-022
  -2.3150000000000000E-002    -6.2794747688274844E-022
  -2.3099999999999999E-002    -7.6092287128261981E-022
  -2.3050000000000001E-002    -7.1224076285684133E-022
  -2.3000000000000000E-002    -4.3206305261816191E-022
  -2.2950000000000002E-002     7.3899496350038683E-023
  -2.2900000000000000E-002     7.2905732033658696E-022
  -2.2849999999999999E-002     1.3881632789770841E-021
  -2.2800000000000001E-002     1.8611182078009881E-021
  -2.2749999999999999E-002     1.9568080272987681E-021
  -2.2700000000000001E-002     1.5389587960669722E-021
  -2.2650000000000000E-002     5.8043378201454874E-022
  -2.2599999999999999E-002    -8.0039675559907201E-022
  -2.2550000000000001E-002    -2.3361702378943568E-021
  -2.2499999999999999E-002    -3.6487458331942674E-021
  -2.2450000000000001E-002    -4.3278673675887749E-021
  -2.2400000000000000E-002    -4.0371295443682488E-021
  -2.2349999999999998E-002    -2.6234271329710441E-021
  -2.2300000000000000E-002    -1.9998832070681279E-022
  -2.2249999999999999E-002     2.8257656607714425E-021
  -2.2200000000000001E-002     5.7987560843332316E-021
  -2.2150000000000000E-002     7.9395576770535525E-021
  -2.2100000000000002E-002     8.5260662056775003E-021
  -2.2050000000000000E-002     7.0954355659494788E-021
  -2.1999999999999999E-002     3.6154509642140867E-021
  -2.1950000000000001E-002    -1.4265281500311099E-021
  -2.1899999999999999E-002    -7.0557849609508400E-021
  -2.1850000000000001E-002    -1.1976239002073862E-020
  -2.1800000000000000E-002    -1.4848796515683827E-020
  -2.1749999999999999E-002    -1.4626693147152153E-020
  -2.1700000000000001E-002    -1.0868227442500630E-020
  -2.1649999999999999E-002    -3.9409081523714174E-021
  -2.1600000000000001E-002     4.9528402786617965E-021
  -2.1550000000000000E-002     1.3960695692450682E-020
  -2.1499999999999998E-002     2.0956625339036881E-020
  -2.1450000000000000E-002     2.4034979790762116E-020
  -2.1399999999999999E-002     2.2008270798282252E-020
  -2.1350000000000001E-002     1.4779337190969656E-020
  -2.1299999999999999E-002     3.4770112608293934E-021
  -2.1250000000000002E-002    -9.7045755528587574E-021
  -2.1200000000000000E-002    -2.1949700800086411E-020
  -2.1149999999999999E-002    -3.0456931716605580E-020
  -2.1100000000000001E-002    -3.3116123728977620E-020
  -2.1049999999999999E-002    -2.9051585791067915E-020
  -2.1000000000000001E-002    -1.8879508991522414E-020
  -2.0950000000000000E-002    -4.5960242583631649E-021
  -2.0899999999999998E-002     1.0890015299553927E-020
  -2.0850000000000000E-002     2.4463741650791775E-020
  -2.0799999999999999E-002     3.3559755794487743E-020
  -2.0750000000000001E-002     3.6752266132834425E-020
  -2.0700000000000000E-002     3.4006218937944980E-020
  -2.0649999999999998E-002     2.6513754833633669E-020
  -2.0600000000000000E-002     1.6170336004729722E-020
  -2.0549999999999999E-002     4.8683979624002406E-021
  -2.0500000000000001E-002    -6.1382954129032187E-021
  -2.0449999999999999E-002    -1.6550653223299452E-020
  -2.0400000000000001E-002    -2.6864677878016507E-020
  -2.0350000000000000E-002    -3.7743759682645820E-020
  -2.0299999999999999E-002    -4.9118391274619451E-020
  -2.0250000000000001E-002    -5.9360545291496631E-020
  -2.0199999999999999E-002    -6.4934411253434522E-020
  -2.0150000000000001E-002    -6.0844558383932764E-020
  -2.0100000000000000E-002    -4.1984747963060180E-020
  -2.0049999999999998E-002    -5.1812694907138149E-021
  -2.0000000000000000E-002     4.8592950633781424E-020
  -1.9949999999999999E-002     1.1257789216445629E-019
  -1.9900000000000001E-002     1.7393147376034377E-019
  -1.9850000000000000E-002     2.1533134081247278E-019
  -1.9799999999999998E-002     2.1856748106481546E-019
  -1.9750000000000000E-002     1.6961296266990132E-019
  -1.9699999999999999E-002     6.4057927259666176E-020
  -1.9650000000000001E-002    -8.8620354215235508E-020
  -1.9599999999999999E-002    -2.6353326581731354E-019
  -1.9550000000000001E-002    -4.2278231524092831E-019
  -1.9500000000000000E-002    -5.2212469292679063E-019
  -1.9449999999999999E-002    -5.2110620136635079E-019
  -1.9400000000000001E-002    -3.9470134591325904E-019
  -1.9349999999999999E-002    -1.4362956329783298E-019
  -1.9300000000000001E-002     1.9974953131460060E-019
  -1.9250000000000000E-002     5.7252853691290245E-019
  -1.9199999999999998E-002     8.9055279794952986E-019
  -1.9150000000000000E-002     1.0652009697071134E-018
  -1.9099999999999999E-002     1.0247809269380000E-018
  -1.9050000000000001E-002     7.3589273710623081E-019
  -1.9000000000000000E-002     2.1923460177915593E-019
  -1.8949999999999998E-002    -4.4525579380990612E-019
  -1.8900000000000000E-002    -1.1271888159462152E-018
  -1.8849999999999999E-002    -1.6686831043116309E-018
  -1.8800000000000001E-002    -1.9181460292722513E-018
  -1.8749999999999999E-002    -1.7681877507825317E-018
  -1.8700000000000001E-002    -1.1888432554586338E-018
  -1.8650000000000000E-002    -2.4706454086919231E-019
  -1.8599999999999998E-002     8.9447464007279209E-019
  -1.8550000000000001E-002     2.0020511718002457E-018
  -1.8499999999999999E-002     2.8163443862194401E-018
  -1.8450000000000001E-002     3.1103933478711351E-018
  -1.8400000000000000E-002     2.7475462665953928E-018
  -1.8349999999999998E-002     1.7252589560847562E-018
  -1.8300000000000000E-002     1.9231044259309293E-019
  -1.8249999999999999E-002    -1.5679202694781453E-018
  -1.8200000000000001E-002    -3.1879729243742296E-018
  -1.8149999999999999E-002    -4.2921542849005028E-018
  -1.8100000000000002E-002    -4.5821458606619017E-018
  -1.8050000000000000E-002    -3.9128515946911121E-018
  -1.7999999999999999E-002    -2.3395022279193663E-018
  -1.7950000000000001E-002    -1.2232573851753091E-019
  -1.7899999999999999E-002     2.3157301221126944E-018
  -1.7850000000000001E-002     4.4717263668228796E-018
  -1.7800000000000000E-002     5.8691728003249779E-018
  -1.7749999999999998E-002     6.1646730807387513E-018
  -1.7700000000000000E-002     5.2298987432314460E-018
  -1.7649999999999999E-002     3.1887569667332616E-018
  -1.7600000000000001E-002     3.9958506110913023E-019
  -1.7550000000000000E-002    -2.6149094582354587E-018
  -1.7499999999999998E-002    -5.2746272414276310E-018
  -1.7450000000000000E-002    -7.0615684949420275E-018
  -1.7399999999999999E-002    -7.6244177673440694E-018
  -1.7350000000000001E-002    -6.8447339069492254E-018
  -1.7299999999999999E-002    -4.8512491495466044E-018
  -1.7250000000000001E-002    -1.9820844057264929E-018
  -1.7200000000000000E-002     1.2922125829587579E-018
  -1.7149999999999999E-002     4.4628847981699905E-018
  -1.7100000000000001E-002     7.0700180183657410E-018
  -1.7049999999999999E-002     8.7628612068248698E-018
  -1.7000000000000001E-002     9.3244460157404176E-018
  -1.6950000000000000E-002     8.6645154859264886E-018
  -1.6899999999999998E-002     6.7957392119897438E-018
  -1.6850000000000000E-002     3.8132640677329380E-018
  -1.6799999999999999E-002    -1.0555884255032693E-019
  -1.6750000000000001E-002    -4.6753442073923133E-018
  -1.6700000000000000E-002    -9.4604430305844161E-018
  -1.6649999999999998E-002    -1.3840831656579267E-017
  -1.6600000000000000E-002    -1.7018917670759452E-017
  -1.6549999999999999E-002    -1.8096875118783066E-017
  -1.6500000000000001E-002    -1.6237867835335590E-017
  -1.6449999999999999E-002    -1.0897734022591544E-017
  -1.6400000000000001E-002    -2.0825816250421100E-018
  -1.6350000000000000E-002     9.4380437405089463E-018
  -1.6299999999999999E-002     2.2043650015289451E-017
  -1.6250000000000001E-002     3.3370782681411053E-017
  -1.6199999999999999E-002     4.0650555351436156E-017
  -1.6150000000000001E-002     4.1254142862478232E-017
  -1.6100000000000000E-002     3.3360803629469472E-017
  -1.6049999999999998E-002     1.6607013896604556E-017
  -1.6000000000000000E-002    -7.4552006802162175E-018
  -1.5949999999999999E-002    -3.5254153320087081E-017
  -1.5900000000000001E-002    -6.1558044780396682E-017
  -1.5850000000000000E-002    -8.0313874353843143E-017
  -1.5799999999999998E-002    -8.5864089138039306E-017
  -1.5750000000000000E-002    -7.4324753598249367E-017
  -1.5699999999999999E-002    -4.4826596518728872E-017
  -1.5650000000000001E-002    -2.9708311501272637E-019
  -1.5599999999999999E-002     5.2486330082699480E-017
  -1.5550000000000001E-002     1.0371486839911845E-016
  -1.5500000000000000E-002     1.4219944324835652E-016
  -1.5449999999999998E-002     1.5761122851841907E-016
  -1.5400000000000000E-002     1.4289302488912800E-016
  -1.5349999999999999E-002     9.6318644879230254E-017
  -1.5300000000000001E-002     2.2681359887431165E-017
  -1.5250000000000000E-002    -6.6780607875783986E-017
  -1.5199999999999998E-002    -1.5588003528707851E-016
  -1.5150000000000000E-002    -2.2625479387390136E-016
  -1.5099999999999999E-002    -2.6097128330004779E-016
  -1.5050000000000001E-002    -2.4826927221561212E-016
  -1.4999999999999999E-002    -1.8464920942187946E-016
  -1.4949999999999998E-002    -7.6561949090011622E-017
  -1.4900000000000000E-002     5.9809544702174847E-017
  -1.4849999999999999E-002     2.0082062822261507E-016
  -1.4800000000000001E-002     3.1940073290804308E-016
  -1.4749999999999999E-002     3.9016381290878473E-016
  -1.4700000000000001E-002     3.9461769543525929E-016
  -1.4650000000000000E-002     3.2540585685309102E-016
  -1.4599999999999998E-002     1.8864541944942218E-016
  -1.4550000000000000E-002     3.7674919271277862E-018
  -1.4499999999999999E-002    -1.9925169197386848E-016
  -1.4450000000000001E-002    -3.8485170170219067E-016
  -1.4400000000000000E-002    -5.1816607800105251E-016
  -1.4349999999999998E-002    -5.7145367439964300E-016
  -1.4300000000000000E-002    -5.2946567227599042E-016
  -1.4249999999999999E-002    -3.9272346984024163E-016
  -1.4200000000000001E-002    -1.7807900976781660E-016
  -1.4149999999999999E-002     8.3556262454898225E-017
  -1.4099999999999998E-002     3.5190418791757661E-016
  -1.4050000000000000E-002     5.8360660252053528E-016
  -1.3999999999999999E-002     7.3903573514870398E-016
  -1.3950000000000001E-002     7.8853271174706650E-016
  -1.3899999999999999E-002     7.1714883953318174E-016
  -1.3850000000000001E-002     5.2726914514000579E-016
  -1.3800000000000000E-002     2.3886053184841204E-016
  -1.3749999999999998E-002    -1.1257923593039311E-016
  -1.3700000000000000E-002    -4.8004663866568250E-016
  -1.3649999999999999E-002    -8.1055868657706069E-016
  -1.3600000000000001E-002    -1.0516449114604870E-015
  -1.3550000000000000E-002    -1.1582470766639689E-015
  -1.3499999999999998E-002    -1.0994305838203395E-015
  -1.3450000000000000E-002    -8.6425010371123732E-016
  -1.3399999999999999E-002    -4.6599399983913033E-016
  -1.3350000000000001E-002     5.6037704446279932E-017
  -1.3299999999999999E-002     6.3805599304268364E-016
  -1.3249999999999998E-002     1.1972270649757848E-015
  -1.3200000000000000E-002     1.6412070362912141E-015
  -1.3149999999999998E-002     1.8812376349007181E-015
  -1.3100000000000001E-002     1.8474213972633990E-015
  -1.3049999999999999E-002     1.5039533744665163E-015
  -1.3000000000000001E-002     8.6147602706097600E-016
  -1.2950000000000000E-002    -1.6432616987005208E-017
  -1.2899999999999998E-002    -1.0151658765096475E-015
  -1.2850000000000000E-002    -1.9807800607217042E-015
  -1.2799999999999999E-002    -2.7411597079176255E-015