  -4.0000000000000001E-002     0.0000000000000000     
  -3.9949999999999999E-002     0.0000000000000000     
  -3.9899999999999998E-002     0.0000000000000000     
  -3.9850000000000003E-002     0.0000000000000000     
  -3.9800000000000002E-002     0.0000000000000000     
  -3.9750000000000001E-002     0.0000000000000000     
  -3.9699999999999999E-002     0.0000000000000000     
  -3.9649999999999998E-002     0.0000000000000000     
  -3.9600000000000003E-002     0.0000000000000000     
  -3.9550000000000002E-002     0.0000000000000000     
  -3.9500000000000000E-002     0.0000000000000000     
  -3.9449999999999999E-002     0.0000000000000000     
  -3.9399999999999998E-002     0.0000000000000000     
  -3.9350000000000003E-002     0.0000000000000000     
  -3.9300000000000002E-002     0.0000000000000000     
  -3.9250000000000000E-002     0.0000000000000000     
  -3.9199999999999999E-002     0.0000000000000000     
  -3.9150000000000004E-002     0.0000000000000000     
  -3.9100000000000003E-002     0.0000000000000000     
  -3.9050000000000001E-002     0.0000000000000000     
  -3.9000000000000000E-002     0.0000000000000000     
  -3.8949999999999999E-002     0.0000000000000000     
  -3.8900000000000004E-002     0.0000000000000000     
  -3.8850000000000003E-002     0.0000000000000000     
  -3.8800000000000001E-002     0.0000000000000000     
  -3.8750000000000000E-002     0.0000000000000000     
  -3.8699999999999998E-002     0.0000000000000000     
  -3.8650000000000004E-002     0.0000000000000000     
  -3.8600000000000002E-002     0.0000000000000000     
  -3.8550000000000001E-002     0.0000000000000000     
  -3.8500000000000000E-002     0.0000000000000000     
  -3.8449999999999998E-002     0.0000000000000000     
  -3.8400000000000004E-002     0.0000000000000000     
  -3.8350000000000002E-002     0.0000000000000000     
  -3.8300000000000001E-002     0.0000000000000000     
  -3.8249999999999999E-002     0.0000000000000000     
  -3.8199999999999998E-002     0.0000000000000000     
  -3.8150000000000003E-002     0.0000000000000000     
  -3.8100000000000002E-002     0.0000000000000000     
  -3.8050000000000000E-002     0.0000000000000000     
  -3.7999999999999999E-002     0.0000000000000000     
  -3.7949999999999998E-002     0.0000000000000000     
  -3.7900000000000003E-002     0.0000000000000000     
  -3.7850000000000002E-002     0.0000000000000000     
  -3.7800000000000000E-002     0.0000000000000000     
  -3.7749999999999999E-002     0.0000000000000000     
  -3.7699999999999997E-002     0.0000000000000000     
  -3.7650000000000003E-002     0.0000000000000000     
  -3.7600000000000001E-002     0.0000000000000000     
  -3.7550000000000000E-002     0.0000000000000000     
  -3.7499999999999999E-002     0.0000000000000000     
  -3.7449999999999997E-002     0.0000000000000000     
  -3.7400000000000003E-002     0.0000000000000000     
  -3.7350000000000001E-002     0.0000000000000000     
  -3.7300000000000000E-002     0.0000000000000000     
  -3.7249999999999998E-002     0.0000000000000000     
  -3.7200000000000004E-002     0.0000000000000000     
  -3.7150000000000002E-002     0.0000000000000000     
  -3.7100000000000001E-002     0.0000000000000000     
  -3.7050000000000000E-002     0.0000000000000000     
  -3.6999999999999998E-002     0.0000000000000000     
  -3.6950000000000004E-002     0.0000000000000000     
  -3.6900000000000002E-002     0.0000000000000000     
  -3.6850000000000001E-002     0.0000000000000000     
  -3.6799999999999999E-002     0.0000000000000000     
  -3.6749999999999998E-002     0.0000000000000000     
  -3.6700000000000003E-002     0.0000000000000000     
  -3.6650000000000002E-002     0.0000000000000000     
  -3.6600000000000001E-002     0.0000000000000000     
  -3.6549999999999999E-002     0.0000000000000000     
  -3.6499999999999998E-002     0.0000000000000000     
  -3.6450000000000003E-002     0.0000000000000000     
  -3.6400000000000002E-002     0.0000000000000000     
  -3.6350000000000000E-002     0.0000000000000000     
  -3.6299999999999999E-002     0.0000000000000000     
  -3.6249999999999998E-002     0.0000000000000000     
  -3.6200000000000003E-002     0.0000000000000000     
  -3.6150000000000002E-002     0.0000000000000000     
  -3.6100000000000000E-002     0.0000000000000000     
  -3.6049999999999999E-002     0.0000000000000000     
  -3.6000000000000004E-002     0.0000000000000000     
  -3.5950000000000003E-002     0.0000000000000000     
  -3.5900000000000001E-002     0.0000000000000000     
  -3.5850000000000000E-002     0.0000000000000000     
  -3.5799999999999998E-002     0.0000000000000000     
  -3.5750000000000004E-002     0.0000000000000000     
  -3.5700000000000003E-002     0.0000000000000000     
  -3.5650000000000001E-002     0.0000000000000000     
  -3.5600000000000000E-002     0.0000000000000000     
  -3.5549999999999998E-002     0.0000000000000000     
  -3.5500000000000004E-002     0.0000000000000000     
  -3.5450000000000002E-002     0.0000000000000000     
  -3.5400000000000001E-002     0.0000000000000000     
  -3.5349999999999999E-002     0.0000000000000000     
  -3.5299999999999998E-002     0.0000000000000000     
  -3.5250000000000004E-002     0.0000000000000000     
  -3.5200000000000002E-002     0.0000000000000000     
  -3.5150000000000001E-002     0.0000000000000000     
  -3.5099999999999999E-002     0.0000000000000000     
  -3.5049999999999998E-002     0.0000000000000000     
  -3.5000000000000003E-002     0.0000000000000000     
  -3.4950000000000002E-002     0.0000000000000000     
  -3.4900000000000000E-002     0.0000000000000000     
  -3.4849999999999999E-002     0.0000000000000000     
  -3.4799999999999998E-002     0.0000000000000000     
  -3.4750000000000003E-002     0.0000000000000000     
  -3.4700000000000002E-002     0.0000000000000000     
  -3.4650000000000000E-002     0.0000000000000000     
  -3.4599999999999999E-002     0.0000000000000000     
  -3.4549999999999997E-002     0.0000000000000000     
  -3.4500000000000003E-002     0.0000000000000000     
  -3.4450000000000001E-002     0.0000000000000000     
  -3.4400000000000000E-002     0.0000000000000000     
  -3.4349999999999999E-002     0.0000000000000000     
  -3.4299999999999997E-002     0.0000000000000000     
  -3.4250000000000003E-002     0.0000000000000000     
  -3.4200000000000001E-002     0.0000000000000000     
  -3.4150000000000000E-002     0.0000000000000000     
  -3.4099999999999998E-002     0.0000000000000000     
  -3.4049999999999997E-002     0.0000000000000000     
  -3.4000000000000002E-002     0.0000000000000000     
  -3.3950000000000001E-002     0.0000000000000000     
  -3.3900000000000000E-002     0.0000000000000000     
  -3.3849999999999998E-002     0.0000000000000000     
  -3.3799999999999997E-002     0.0000000000000000     
  -3.3750000000000002E-002     0.0000000000000000     
  -3.3700000000000001E-002     0.0000000000000000     
  -3.3649999999999999E-002     0.0000000000000000     
  -3.3599999999999998E-002     0.0000000000000000     
  -3.3550000000000003E-002     0.0000000000000000     
  -3.3500000000000002E-002     0.0000000000000000     
  -3.3450000000000001E-002     0.0000000000000000     
  -3.3399999999999999E-002     0.0000000000000000     
  -3.3349999999999998E-002     0.0000000000000000     
  -3.3300000000000003E-002     0.0000000000000000     
  -3.3250000000000002E-002     0.0000000000000000     
  -3.3200000000000000E-002     0.0000000000000000     
  -3.3149999999999999E-002     0.0000000000000000     
  -3.3099999999999997E-002     0.0000000000000000     
  -3.3050000000000003E-002     0.0000000000000000     
  -3.3000000000000002E-002     0.0000000000000000     
  -3.2950000000000000E-002     0.0000000000000000     
  -3.2899999999999999E-002     0.0000000000000000     
  -3.2850000000000004E-002     0.0000000000000000     
  -3.2800000000000003E-002     0.0000000000000000     
  -3.2750000000000001E-002     0.0000000000000000     
  -3.2700000000000000E-002     0.0000000000000000     
  -3.2649999999999998E-002     0.0000000000000000     
  -3.2600000000000004E-002     0.0000000000000000     
  -3.2550000000000003E-002     0.0000000000000000     
  -3.2500000000000001E-002     0.0000000000000000     
  -3.2450000000000000E-002     0.0000000000000000     
  -3.2399999999999998E-002     0.0000000000000000     
  -3.2350000000000004E-002     0.0000000000000000     
  -3.2300000000000002E-002     0.0000000000000000     
  -3.2250000000000001E-002     0.0000000000000000     
  -3.2199999999999999E-002     0.0000000000000000     
  -3.2149999999999998E-002     0.0000000000000000     
  -3.2100000000000004E-002     0.0000000000000000     
  -3.2050000000000002E-002     0.0000000000000000     
  -3.2000000000000001E-002     0.0000000000000000     
  -3.1949999999999999E-002     0.0000000000000000     
  -3.1899999999999998E-002     0.0000000000000000     
  -3.1850000000000003E-002     0.0000000000000000     
  -3.1800000000000002E-002     0.0000000000000000     
  -3.1750000000000000E-002     0.0000000000000000     
  -3.1699999999999999E-002     0.0000000000000000     
  -3.1649999999999998E-002     0.0000000000000000     
  -3.1600000000000003E-002     0.0000000000000000     
  -3.1550000000000002E-002     0.0000000000000000     
  -3.1500000000000000E-002     0.0000000000000000     
  -3.1449999999999999E-002     0.0000000000000000     
  -3.1399999999999997E-002     0.0000000000000000     
  -3.1350000000000003E-002     0.0000000000000000     
  -3.1300000000000001E-002     0.0000000000000000     
  -3.1250000000000000E-002     0.0000000000000000     
  -3.1199999999999999E-002     0.0000000000000000     
  -3.1150000000000001E-002     0.0000000000000000     
  -3.1100000000000003E-002     0.0000000000000000     
  -3.1050000000000001E-002     0.0000000000000000     
  -3.1000000000000000E-002     0.0000000000000000     
  -3.0949999999999998E-002     0.0000000000000000     
  -3.0900000000000000E-002     0.0000000000000000     
  -3.0850000000000002E-002     0.0000000000000000     
  -3.0800000000000001E-002     0.0000000000000000     
  -3.0750000000000000E-002     0.0000000000000000     
  -3.0699999999999998E-002     0.0000000000000000     
  -3.0650000000000000E-002     0.0000000000000000     
  -3.0600000000000002E-002     0.0000000000000000     
  -3.0550000000000001E-002     0.0000000000000000     
  -3.0499999999999999E-002     0.0000000000000000     
  -3.0449999999999998E-002     0.0000000000000000     
  -3.0400000000000000E-002     0.0000000000000000     
  -3.0350000000000002E-002     0.0000000000000000     
  -3.0300000000000001E-002     0.0000000000000000     
  -3.0249999999999999E-002     0.0000000000000000     
  -3.0200000000000001E-002     0.0000000000000000     
  -3.0150000000000000E-002     0.0000000000000000     
  -3.0100000000000002E-002     0.0000000000000000     
  -3.0050000000000000E-002     0.0000000000000000     
  -2.9999999999999999E-002     0.0000000000000000     
  -2.9950000000000001E-002     0.0000000000000000     
  -2.9899999999999999E-002     0.0000000000000000     
  -2.9850000000000002E-002     0.0000000000000000     
  -2.9800000000000000E-002     0.0000000000000000     
  -2.9749999999999999E-002     0.0000000000000000     
  -2.9700000000000001E-002     0.0000000000000000     
  -2.9650000000000003E-002     0.0000000000000000     
  -2.9600000000000001E-002     0.0000000000000000     
  -2.9550000000000000E-002     0.0000000000000000     
  -2.9499999999999998E-002     0.0000000000000000     
  -2.9450000000000000E-002     0.0000000000000000     
  -2.9400000000000003E-002     0.0000000000000000     
  -2.9350000000000001E-002     0.0000000000000000     
  -2.9300000000000000E-002     0.0000000000000000     
  -2.9249999999999998E-002     0.0000000000000000     
  -2.9200000000000000E-002     0.0000000000000000     
  -2.9150000000000002E-002     0.0000000000000000     
  -2.9100000000000001E-002     0.0000000000000000     
  -2.9049999999999999E-002     0.0000000000000000     
  -2.8999999999999998E-002     0.0000000000000000     
  -2.8950000000000000E-002     0.0000000000000000     
  -2.8900000000000002E-002     0.0000000000000000     
  -2.8850000000000001E-002     0.0000000000000000     
  -2.8799999999999999E-002     0.0000000000000000     
  -2.8749999999999998E-002     0.0000000000000000     
  -2.8700000000000000E-002     0.0000000000000000     
  -2.8650000000000002E-002     0.0000000000000000     
  -2.8600000000000000E-002     0.0000000000000000     
  -2.8549999999999999E-002     0.0000000000000000     
  -2.8500000000000001E-002     0.0000000000000000     
  -2.8450000000000000E-002     0.0000000000000000     
  -2.8400000000000002E-002     0.0000000000000000     
  -2.8350000000000000E-002     0.0000000000000000     
  -2.8299999999999999E-002     0.0000000000000000     
  -2.8250000000000001E-002     0.0000000000000000     
  -2.8200000000000003E-002     0.0000000000000000     
  -2.8150000000000001E-002     0.0000000000000000     
  -2.8100000000000000E-002     0.0000000000000000     
  -2.8049999999999999E-002     0.0000000000000000     
  -2.8000000000000001E-002     0.0000000000000000     
  -2.7950000000000003E-002     0.0000000000000000     
  -2.7900000000000001E-002     0.0000000000000000     
  -2.7850000000000000E-002     0.0000000000000000     
  -2.7799999999999998E-002     0.0000000000000000     
  -2.7750000000000000E-002     0.0000000000000000     
  -2.7700000000000002E-002     0.0000000000000000     
  -2.7650000000000001E-002     0.0000000000000000     
  -2.7600000000000000E-002     0.0000000000000000     
  -2.7549999999999998E-002     0.0000000000000000     
  -2.7500000000000000E-002     0.0000000000000000     
  -2.7450000000000002E-002     0.0000000000000000     
  -2.7400000000000001E-002     0.0000000000000000     
  -2.7349999999999999E-002     0.0000000000000000     
  -2.7299999999999998E-002     0.0000000000000000     
  -2.7250000000000000E-002     0.0000000000000000     
  -2.7200000000000002E-002     0.0000000000000000     
  -2.7150000000000001E-002     0.0000000000000000     
  -2.7099999999999999E-002     0.0000000000000000     
  -2.7049999999999998E-002     0.0000000000000000     
  -2.7000000000000000E-002     0.0000000000000000     
  -2.6950000000000002E-002     0.0000000000000000     
  -2.6900000000000000E-002     0.0000000000000000     
  -2.6849999999999999E-002     0.0000000000000000     
  -2.6800000000000001E-002     0.0000000000000000     
  -2.6749999999999999E-002     0.0000000000000000     
  -2.6700000000000002E-002     0.0000000000000000     
  -2.6650000000000000E-002     0.0000000000000000     
  -2.6599999999999999E-002     0.0000000000000000     
  -2.6550000000000001E-002     0.0000000000000000     
  -2.6500000000000003E-002     0.0000000000000000     
  -2.6450000000000001E-002     0.0000000000000000     
  -2.6400000000000000E-002     0.0000000000000000     
  -2.6349999999999998E-002     0.0000000000000000     
  -2.6300000000000000E-002     0.0000000000000000     
  -2.6250000000000002E-002     0.0000000000000000     
  -2.6200000000000001E-002     0.0000000000000000     
  -2.6150000000000000E-002     0.0000000000000000     
  -2.6099999999999998E-002     0.0000000000000000     
  -2.6050000000000000E-002     0.0000000000000000     
  -2.6000000000000002E-002     0.0000000000000000     
  -2.5950000000000001E-002     0.0000000000000000     
  -2.5899999999999999E-002     0.0000000000000000     
  -2.5849999999999998E-002     0.0000000000000000     
  -2.5800000000000000E-002     0.0000000000000000     
  -2.5750000000000002E-002     0.0000000000000000     
  -2.5700000000000001E-002     0.0000000000000000     
  -2.5649999999999999E-002     0.0000000000000000     
  -2.5599999999999998E-002     0.0000000000000000     
  -2.5550000000000000E-002     0.0000000000000000     
  -2.5500000000000002E-002     0.0000000000000000     
  -2.5450000000000000E-002     1.4320891729291317E-038
  -2.5399999999999999E-002     2.8962492500399820E-038
  -2.5349999999999998E-002     1.3908067112558393E-038
  -2.5300000000000000E-002    -3.8206149848964807E-038
  -2.5250000000000002E-002    -9.3252960966256753E-038
  -2.5200000000000000E-002    -1.1331225601309372E-037
  -2.5149999999999999E-002    -5.8570972593486422E-038
  -2.5100000000000001E-002     6.4788966656795905E-038
  -2.5049999999999999E-002     1.8259304222705522E-037
  -2.5000000000000001E-002     2.3863173880496810E-037
  -2.4950000000000000E-002     1.8567665686748173E-037
  -2.4899999999999999E-002     4.8140096624756524E-038
  -2.4850000000000001E-002    -1.1826255745030953E-037
  -2.4800000000000003E-002    -2.3303651256009473E-037
  -2.4750000000000001E-002    -2.3183247893453849E-037
  -2.4700000000000000E-002    -1.3747075416152726E-037
  -2.4649999999999998E-002    -1.4267689757546266E-038
  -2.4600000000000000E-002     2.3676832780605740E-038
  -2.4550000000000002E-002    -6.0989008262988183E-038
  -2.4500000000000001E-002    -2.5206804044636230E-037
  -2.4450000000000000E-002    -4.5155307414362611E-037
  -2.4399999999999998E-002    -4.8341445928779836E-037
  -2.4350000000000000E-002    -1.9731233281244715E-037
  -2.4299999999999999E-002     4.7437108807990585E-037
  -2.4250000000000001E-002     1.4555474767509309E-036
  -2.4199999999999999E-002     2.4810008511070180E-036
  -2.4150000000000001E-002     3.1169719009319467E-036
  -2.4100000000000000E-002     2.8290785171874065E-036
  -2.4049999999999998E-002     1.1557915503206720E-036
  -2.4000000000000000E-002    -2.0564700196190451E-036
  -2.3949999999999999E-002    -6.4031456025000007E-036
  -2.3900000000000001E-002    -1.0763772508023746E-035
  -2.3850000000000000E-002    -1.3372345505762170E-035
  -2.3800000000000002E-002    -1.2205681160809601E-035
  -2.3750000000000000E-002    -5.6971750214822466E-036
  -2.3699999999999999E-002     6.3735925309667575E-036
  -2.3650000000000001E-002     2.2117259301016025E-035
  -2.3599999999999999E-002     3.7287412681270787E-035
  -2.3550000000000001E-002     4.5890423719237841E-035
  -2.3500000000000000E-002     4.1767822629094849E-035
  -2.3449999999999999E-002     2.0901548606879806E-035
  -2.3400000000000001E-002    -1.6192091354182909E-035
  -2.3349999999999999E-002    -6.2885233467829189E-035
  -2.3300000000000001E-002    -1.0657967189860123E-034
  -2.3250000000000000E-002    -1.3110569364731622E-034
  -2.3199999999999998E-002    -1.2123513331453315E-034
  -2.3150000000000000E-002    -6.8324361293635138E-035
  -2.3099999999999999E-002     2.4621516223737305E-035
  -2.3050000000000001E-002     1.4046291720849461E-034
  -2.3000000000000000E-002     2.4963345574161261E-034
  -2.2950000000000002E-002     3.1654227300814686E-034
  -2.2900000000000000E-002     3.0956728506230004E-034
  -2.2849999999999999E-002     2.1194415690388237E-034
  -2.2800000000000001E-002     2.9945038929738034E-035
  -2.2749999999999999E-002    -2.0496143823349317E-034
  -2.2700000000000001E-002    -4.4160103256567294E-034
  -2.2650000000000000E-002    -6.2122396371373098E-034
  -2.2599999999999999E-002    -6.9259070457223167E-034
  -2.2550000000000001E-002    -6.2482095757535486E-034
  -2.2499999999999999E-002    -4.1340023017119081E-034
  -2.2450000000000001E-002    -7.7593226063783880E-035
  -2.2400000000000000E-002     3.4825353597235016E-034
  -2.2349999999999998E-002     8.2328037379178787E-034
  -2.2300000000000000E-002     1.3012533766458916E-033
  -2.2249999999999999E-002     1.7201635862059724E-033
  -2.2200000000000001E-002     1.9834984459387096E-033
  -2.2150000000000000E-002     1.9454803814495446E-033
  -2.2100000000000002E-002     1.4189911345904967E-033
  -2.2050000000000000E-002     2.2373254108370967E-034
  -2.1999999999999999E-002    -1.7199397879155293E-033
  -2.1950000000000001E-002    -4.2683987758004300E-033
  -2.1899999999999999E-002    -6.9466641915358283E-033
  -2.1850000000000001E-002    -8.9176763167224402E-033
  -2.1800000000000000E-002    -9.0915766775921092E-033
  -2.1749999999999999E-002    -6.4082164605242262E-033
  -2.1700000000000001E-002    -2.6710050968338851E-034
  -2.1649999999999999E-002     8.9973011078545380E-033
  -2.1600000000000001E-002     1.9765140021158464E-032
  -2.1550000000000000E-002     2.9103931126636832E-032
  -2.1499999999999998E-002     3.3222054567255389E-032
  -2.1450000000000000E-002     2.8440332846572539E-032
  -2.1399999999999999E-002     1.2535755765642459E-032
  -2.1350000000000001E-002    -1.3886300377649150E-032
  -2.1299999999999999E-002    -4.6476572668110700E-032
  -2.1250000000000002E-002    -7.7179381925309489E-032
  -2.1200000000000000E-002    -9.5552091954981022E-032
  -2.1149999999999999E-002    -9.1353035276274191E-032
  -2.1100000000000001E-002    -5.7936643128198965E-032
  -2.1049999999999999E-002     4.4278745593382099E-033
  -2.1000000000000001E-002     8.6437979901009660E-032
  -2.0950000000000000E-002     1.6988381359381925E-031
  -2.0899999999999998E-002     2.3060781463372723E-031
  -2.0850000000000000E-002     2.4411769352676987E-031
  -2.0799999999999999E-002     1.9277527879698890E-031
  -2.0750000000000001E-002     7.2733798079815508E-032
  -2.0700000000000000E-002    -1.0152489466088914E-031
  -2.0649999999999998E-002    -2.9690447196813157E-031
  -2.0600000000000000E-002    -4.6657975618862310E-031
  -2.0549999999999999E-002    -5.5960820828774359E-031
  -2.0500000000000001E-002    -5.3339670295712323E-031
  -2.0449999999999999E-002    -3.6611371516418340E-031
  -2.0400000000000001E-002    -6.5844832406696845E-032
  -2.0350000000000000E-002     3.2610738486727179E-031
  -2.0299999999999999E-002     7.3904213541830317E-031
  -2.0250000000000001E-002     1.0833967706075950E-030
  -2.0199999999999999E-002     1.2661559726411992E-030
  -2.0150000000000001E-002     1.2084882248375416E-030
  -2.0100000000000000E-002     8.6296516330341434E-031
  -2.0049999999999998E-002     2.2828476116062200E-031
  -2.0000000000000000E-002    -6.3998539949967790E-031
  -1.9949999999999999E-002    -1.6240752537242824E-030
  -1.9900000000000001E-002    -2.5462778737915444E-030
  -1.9850000000000000E-002    -3.1822426379048503E-030
  -1.9799999999999998E-002    -3.2894675536014732E-030
  -1.9750000000000000E-002    -2.6540242298822112E-030
  -1.9699999999999999E-002    -1.1543706475650326E-030
  -1.9650000000000001E-002     1.1662722144852245E-030
  -1.9599999999999999E-002     4.0367175685033515E-030
  -1.9550000000000001E-002     6.9293832774663498E-030
  -1.9500000000000000E-002     9.0945112028971618E-030
  -1.9449999999999999E-002     9.6776162076354531E-030
  -1.9400000000000001E-002     7.9218594189017326E-030
  -1.9349999999999999E-002     3.4285564263969346E-030
  -1.9300000000000001E-002    -3.5827833359513548E-030
  -1.9250000000000000E-002    -1.2098193275627786E-029
  -1.9199999999999998E-002    -2.0306009953029997E-029
  -1.9150000000000000E-002    -2.5833789779557235E-029
  -1.9099999999999999E-002    -2.6239741968936040E-029
  -1.9050000000000001E-002    -1.9696890690432313E-029
  -1.9000000000000000E-002    -5.7264210003247548E-030
  -1.8949999999999998E-002     1.4225741485187476E-029
  -1.8900000000000000E-002     3.6591550673371849E-029
  -1.8849999999999999E-002     5.6037179959117733E-029
  -1.8800000000000001E-002     6.6431898425874800E-029
  -1.8749999999999999E-002     6.2322717020529500E-029
  -1.8700000000000001E-002     4.0630823560688310E-029
  -1.8650000000000000E-002     2.1470684461952662E-030
  -1.8599999999999998E-002    -4.7644623511546417E-029
  -1.8550000000000001E-002    -9.8811259809073083E-029
  -1.8499999999999999E-002    -1.3847230621965570E-028
  -1.8450000000000001E-002    -1.5344583992197769E-028
  -1.8400000000000000E-002    -1.3359320961467751E-028
  -1.8349999999999998E-002    -7.5137679123237127E-029
  -1.8300000000000000E-002     1.6904017469851355E-029
  -1.8249999999999999E-002     1.2797504625594510E-028
  -1.8200000000000001E-002     2.3543670671230875E-028
  -1.8149999999999999E-002     3.1230001186130993E-028
  -1.8100000000000002E-002     3.3276287373323507E-028
  -1.8050000000000000E-002     2.7858396672808740E-028
  -1.7999999999999999E-002     1.4497547501811113E-028
  -1.7950000000000001E-002    -5.5402122292536522E-029
  -1.7899999999999999E-002    -2.9157312225048770E-028
  -1.7850000000000001E-002    -5.1727076656541413E-028
  -1.7800000000000000E-002    -6.7794060578697264E-028
  -1.7749999999999998E-002    -7.2102605489933274E-028
  -1.7700000000000000E-002    -6.0806788407093414E-028
  -1.7649999999999999E-002    -3.2650631245694914E-028
  -1.7600000000000001E-002     1.0131427785612874E-028
  -1.7550000000000000E-002     6.1447122650950802E-028
  -1.7499999999999998E-002     1.1172345412358801E-027
  -1.7450000000000000E-002     1.4914544503594122E-027
  -1.7399999999999999E-002     1.6172707075846414E-027
  -1.7350000000000001E-002     1.3999588477544563E-027
  -1.7299999999999999E-002     7.9866268841583610E-028
  -1.7250000000000001E-002    -1.4905238372166743E-028
  -1.7200000000000000E-002    -1.3138908315931081E-027
  -1.7149999999999999E-002    -2.4794419860803795E-027
  -1.7100000000000001E-002    -3.3691593063780289E-027
  -1.7049999999999999E-002    -3.6959675647602392E-027
  -1.7000000000000001E-002    -3.2290725632182812E-027
  -1.6950000000000000E-002    -1.8663729839894285E-027
  -1.6899999999999998E-002     3.0422497643020759E-028
  -1.6850000000000000E-002     2.9735353261041022E-027
  -1.6799999999999999E-002     5.6266373210066083E-027
  -1.6750000000000001E-002     7.6146755996060686E-027
  -1.6700000000000000E-002     8.2802558095069390E-027
  -1.6649999999999998E-002     7.1189651028770893E-027
  -1.6600000000000000E-002     3.9452445412975862E-027
  -1.6549999999999999E-002    -9.7884846084600013E-028
  -1.6500000000000001E-002    -6.8946543579427004E-027
  -1.6449999999999999E-002    -1.2610552412104519E-026
  -1.6400000000000001E-002    -1.6690174718938637E-026
  -1.6350000000000000E-002    -1.7747913614614975E-026
  -1.6299999999999999E-002    -1.4802804402094989E-026
  -1.6250000000000001E-002    -7.6155005440871065E-027
  -1.6199999999999999E-002     3.0799354675708212E-027
  -1.6150000000000001E-002     1.5531011135717881E-026
  -1.6100000000000000E-002     2.7161361041820526E-026
  -1.6049999999999998E-002     3.5009496049947597E-026
  -1.6000000000000000E-002     3.6357111402369757E-026
  -1.5949999999999999E-002     2.9434328873378961E-026
  -1.5900000000000001E-002     1.4047660988242467E-026
  -1.5850000000000000E-002    -8.0361314221396925E-027
  -1.5799999999999998E-002    -3.3091709286599190E-026
  -1.5750000000000000E-002    -5.5899943724572575E-026
  -1.5699999999999999E-002    -7.0659120126184852E-026
  -1.5650000000000001E-002    -7.2218021309614065E-026
  -1.5599999999999999E-002    -5.7407712856341517E-026
  -1.5550000000000001E-002    -2.6183398498586510E-026
  -1.5500000000000000E-002     1.7723634448477066E-026
  -1.5449999999999998E-002     6.6889368667993858E-026
  -1.5400000000000000E-002     1.1114132850064005E-025
  -1.5349999999999999E-002     1.3931918687880705E-025
  -1.5300000000000001E-002     1.4161512400564959E-025
  -1.5250000000000000E-002     1.1208201132470059E-025
  -1.5199999999999998E-002     5.0778819256604236E-026
  -1.5150000000000000E-002    -3.5001744739274744E-026
  -1.5099999999999999E-002    -1.3088541824500315E-025
  -1.5050000000000001E-002    -2.1719749494289193E-025
  -1.4999999999999999E-002    -2.7231055367221479E-025
  -1.4949999999999998E-002    -2.7713391622052230E-025
  -1.4900000000000000E-002    -2.1997556415055652E-025
  -1.4849999999999999E-002    -1.0075938574678838E-025
  -1.4800000000000001E-002     6.6493322791523826E-026
  -1.4749999999999999E-002     2.5385392404255576E-025
  -1.4700000000000001E-002     4.2288361939511258E-025
  -1.4650000000000000E-002     5.3116019057443852E-025
  -1.4599999999999998E-002     5.4112507131211780E-025
  -1.4550000000000000E-002     4.2972817319312539E-025
  -1.4499999999999999E-002     1.9682580964420416E-025
  -1.4450000000000001E-002    -1.2988066866732204E-025
  -1.4400000000000000E-002    -4.9526602092582063E-025
  -1.4349999999999998E-002    -8.2363624746821350E-025
  -1.4300000000000000E-002    -1.0318265582477985E-024
  -1.4249999999999999E-002    -1.0468456183360205E-024
  -1.4200000000000001E-002    -8.2493185085375436E-025
  -1.4149999999999999E-002    -3.6786735908373147E-025
  -1.4099999999999998E-002     2.6785689909471788E-025
  -1.4050000000000000E-002     9.7269824093633286E-025
  -1.3999999999999999E-002     1.5984449190344254E-024
  -1.3950000000000001E-002     1.9846273775656129E-024
  -1.3899999999999999E-002     1.9932763357019785E-024
  -1.3850000000000001E-002     1.5455994276014292E-024
  -1.3800000000000000E-002     6.5237082846104018E-025
  -1.3749999999999998E-002    -5.7038123643386820E-025
  -1.3700000000000000E-002    -1.9070514257000119E-024
  -1.3649999999999999E-002    -3.0724782489108552E-024
  -1.3600000000000001E-002    -3.7641648827870896E-024
  -1.3550000000000000E-002    -3.7289119698547369E-024
  -1.3499999999999998E-002    -2.8311717328430356E-024
  -1.3450000000000000E-002    -1.1075359511457396E-024
  -1.3399999999999999E-002     1.2080165367662517E-024
  -1.3350000000000001E-002     3.6996396518527206E-024
  -1.3299999999999999E-002     5.8301610329987426E-024
  -1.3249999999999998E-002     7.0412618381102039E-024
  -1.3200000000000000E-002     6.8777255162968760E-024
  -1.3149999999999998E-002     5.1116811541639531E-024
  -1.3100000000000001E-002     1.8382658329594422E-024
  -1.3049999999999999E-002    -2.4846318452020412E-024
  -1.3000000000000001E-002    -7.0721363363381505E-024
  -1.2950000000000000E-002    -1.0929593865987314E-023
  -1.2899999999999998E-002    -1.3039637525072405E-023
  -1.2850000000000000E-002    -1.2589489982500057E-023
  -1.2799999999999999E-002    -9.1942538553109831E-024