  -4.0000000000000001E-002     0.0000000000000000     
  -3.9949999999999999E-002     0.0000000000000000     
  -3.9899999999999998E-002     0.0000000000000000     
  -3.9850000000000003E-002     0.0000000000000000     
  -3.9800000000000002E-002     0.0000000000000000     
  -3.9750000000000001E-002     0.0000000000000000     
  -3.9699999999999999E-002     0.0000000000000000     
  -3.9649999999999998E-002     0.0000000000000000     
  -3.9600000000000003E-002     0.0000000000000000     
  -3.9550000000000002E-002     0.0000000000000000     
  -3.9500000000000000E-002     0.0000000000000000     
  -3.9449999999999999E-002     0.0000000000000000     
  -3.9399999999999998E-002     0.0000000000000000     
  -3.9350000000000003E-002     0.0000000000000000     
  -3.9300000000000002E-002     0.0000000000000000     
  -3.9250000000000000E-002     0.0000000000000000     
  -3.9199999999999999E-002     0.0000000000000000     
  -3.9150000000000004E-002     0.0000000000000000     
  -3.9100000000000003E-002     0.0000000000000000     
  -3.9050000000000001E-002     0.0000000000000000     
  -3.9000000000000000E-002     0.0000000000000000     
  -3.8949999999999999E-002     0.0000000000000000     
  -3.8900000000000004E-002     0.0000000000000000     
  -3.8850000000000003E-002     0.0000000000000000     
  -3.8800000000000001E-002     0.0000000000000000     
  -3.8750000000000000E-002     0.0000000000000000     
  -3.8699999999999998E-002     0.0000000000000000     
  -3.8650000000000004E-002     0.0000000000000000     
  -3.8600000000000002E-002     0.0000000000000000     
  -3.8550000000000001E-002     0.0000000000000000     
  -3.8500000000000000E-002     0.0000000000000000     
  -3.8449999999999998E-002     0.0000000000000000     
  -3.8400000000000004E-002     0.0000000000000000     
  -3.8350000000000002E-002     0.0000000000000000     
  -3.8300000000000001E-002     0.0000000000000000     
  -3.8249999999999999E-002     0.0000000000000000     
  -3.8199999999999998E-002     0.0000000000000000     
  -3.8150000000000003E-002     0.0000000000000000     
  -3.8100000000000002E-002     0.0000000000000000     
  -3.8050000000000000E-002     0.0000000000000000     
  -3.7999999999999999E-002     0.0000000000000000     
  -3.7949999999999998E-002     0.0000000000000000     
  -3.7900000000000003E-002     0.0000000000000000     
  -3.7850000000000002E-002     0.0000000000000000     
  -3.7800000000000000E-002     0.0000000000000000     
  -3.7749999999999999E-002     0.0000000000000000     
  -3.7699999999999997E-002     0.0000000000000000     
  -3.7650000000000003E-002     0.0000000000000000     
  -3.7600000000000001E-002     0.0000000000000000     
  -3.7550000000000000E-002     0.0000000000000000     
  -3.7499999999999999E-002     0.0000000000000000     
  -3.7449999999999997E-002     0.0000000000000000     
  -3.7400000000000003E-002     0.0000000000000000     
  -3.7350000000000001E-002     0.0000000000000000     
  -3.7300000000000000E-002     0.0000000000000000     
  -3.7249999999999998E-002     0.0000000000000000     
  -3.7200000000000004E-002     0.0000000000000000     
  -3.7150000000000002E-002     0.0000000000000000     
  -3.7100000000000001E-002     0.0000000000000000     
  -3.7050000000000000E-002     0.0000000000000000     
  -3.6999999999999998E-002     0.0000000000000000     
  -3.6950000000000004E-002     0.0000000000000000     
  -3.6900000000000002E-002     0.0000000000000000     
  -3.6850000000000001E-002     0.0000000000000000     
  -3.6799999999999999E-002     0.0000000000000000     
  -3.6749999999999998E-002     0.0000000000000000     
  -3.6700000000000003E-002     0.0000000000000000     
  -3.6650000000000002E-002     0.0000000000000000     
  -3.6600000000000001E-002     0.0000000000000000     
  -3.6549999999999999E-002     0.0000000000000000     
  -3.6499999999999998E-002     0.0000000000000000     
  -3.6450000000000003E-002     0.0000000000000000     
  -3.6400000000000002E-002     0.0000000000000000     
  -3.6350000000000000E-002     0.0000000000000000     
  -3.6299999999999999E-002     0.0000000000000000     
  -3.6249999999999998E-002     0.0000000000000000     
  -3.6200000000000003E-002     0.0000000000000000     
  -3.6150000000000002E-002     0.0000000000000000     
  -3.6100000000000000E-002     0.0000000000000000     
  -3.6049999999999999E-002     0.0000000000000000     
  -3.6000000000000004E-002     0.0000000000000000     
  -3.5950000000000003E-002     0.0000000000000000     
  -3.5900000000000001E-002     0.0000000000000000     
  -3.5850000000000000E-002     0.0000000000000000     
  -3.5799999999999998E-002     0.0000000000000000     
  -3.5750000000000004E-002     0.0000000000000000     
  -3.5700000000000003E-002     4.9960201107591203E-039
  -3.5650000000000001E-002     1.2239983313311368E-038
  -3.5600000000000000E-002     1.5472893437262875E-038
  -3.5549999999999998E-002     4.4608756062003505E-039
  -3.5500000000000004E-002    -3.5311150710905088E-038
  -3.5450000000000002E-002    -9.6892846758104050E-038
  -3.5400000000000001E-002    -1.3975251691985032E-037
  -3.5349999999999999E-002    -1.1196128914495200E-037
  -3.5299999999999998E-002     1.4672730725338311E-038
  -3.5250000000000004E-002     2.2240270045107799E-037
  -3.5200000000000002E-002     4.9039182965052604E-037
  -3.5150000000000001E-002     7.2515777776245426E-037
  -3.5099999999999999E-002     7.2380229810674287E-037
  -3.5049999999999998E-002     2.3699893057077797E-037
  -3.5000000000000003E-002    -8.6880589999167405E-037
  -3.4950000000000002E-002    -2.3751057067108001E-036
  -3.4900000000000000E-002    -3.5501208571738925E-036
  -3.4849999999999999E-002    -3.2470585487481419E-036
  -3.4799999999999998E-002    -4.4131655022008000E-037
  -3.4750000000000003E-002     4.8426808573345856E-036
  -3.4700000000000002E-002     1.0586255795024113E-035
  -3.4650000000000000E-002     1.2570957931096860E-035
  -3.4599999999999999E-002     5.7754045758774735E-036
  -3.4549999999999997E-002    -1.2223716957308684E-035
  -3.4500000000000003E-002    -3.6677761389311302E-035
  -3.4450000000000001E-002    -5.2487874971577798E-035
  -3.4400000000000000E-002    -3.6356001941117559E-035
  -3.4349999999999999E-002     3.2250808697964437E-035
  -3.4299999999999997E-002     1.5145646367758772E-034
  -3.4250000000000003E-002     2.7570903898473662E-034
  -3.4200000000000001E-002     3.0790096286434423E-034
  -3.4150000000000000E-002     1.2370874334290562E-034
  -3.4099999999999998E-002    -3.5992094725427990E-034
  -3.4049999999999997E-002    -1.0822648000374680E-033
  -3.4000000000000002E-002    -1.7466407826811172E-033
  -3.3950000000000001E-002    -1.8148172319211786E-033
  -3.3900000000000000E-002    -6.6889682986099699E-034
  -3.3849999999999998E-002     2.0274211053291324E-033
  -3.3799999999999997E-002     5.8487382124705711E-033
  -3.3750000000000002E-002     9.2387376302712172E-033
  -3.3700000000000001E-002     9.5939882321109144E-033
  -3.3649999999999999E-002     4.1128068351359789E-033
  -3.3599999999999998E-002    -8.5421904013940617E-033
  -3.3550000000000003E-002    -2.6217948340199978E-032
  -3.3500000000000002E-002    -4.1912543838817851E-032
  -3.3450000000000001E-002    -4.4458724484074396E-032
  -3.3399999999999999E-002    -2.2332006296430724E-032
  -3.3349999999999998E-002     2.9528559644991621E-032
  -3.3300000000000003E-002     1.0196975353373229E-031
  -3.3250000000000002E-002     1.6706587512440155E-031
  -3.3200000000000000E-002     1.8174748089730424E-031
  -3.3149999999999999E-002     1.0298717513369355E-031
  -3.3099999999999997E-002    -8.6860637085439363E-032
  -3.3050000000000003E-002    -3.5301479284725209E-031
  -3.3000000000000002E-002    -5.9445183272344493E-031
  -3.2950000000000000E-002    -6.5989460429804421E-031
  -3.2899999999999999E-002    -4.0296029948130226E-031
  -3.2850000000000004E-002     2.3139058756987976E-031
  -3.2800000000000003E-002     1.1200309037805767E-030
  -3.2750000000000001E-002     1.9241894196832858E-030
  -3.2700000000000000E-002     2.1520427711142952E-030
  -3.2649999999999998E-002     1.3443507946175987E-030
  -3.2600000000000004E-002    -6.5079341676740995E-031
  -3.2550000000000003E-002    -3.4178941501967662E-030
  -3.2500000000000001E-002    -5.8825252074282431E-030
  -3.2450000000000000E-002    -6.5331558596029273E-030
  -3.2399999999999998E-002    -4.0060409741044176E-030
  -3.2350000000000004E-002     2.0910670363946797E-030
  -3.2300000000000002E-002     1.0438000238952827E-029
  -3.2250000000000001E-002     1.7789586931748352E-029
  -3.2199999999999999E-002     1.9681605235900394E-029
  -3.2149999999999998E-002     1.2151083491043893E-029
  -3.2100000000000004E-002    -5.9257211606217140E-030
  -3.2050000000000002E-002    -3.0796514502146174E-029
  -3.2000000000000001E-002    -5.3303242734411653E-029
  -3.1949999999999999E-002    -6.0855434234822367E-029
  -3.1899999999999998E-002    -4.2077102871550145E-029
  -3.1850000000000003E-002     6.9893382335150608E-030
  -3.1800000000000002E-002     7.7522686578755406E-029
  -3.1750000000000000E-002     1.4642519130807610E-028
  -3.1699999999999999E-002     1.8106091700470853E-028
  -3.1649999999999998E-002     1.5050244433181721E-028
  -3.1600000000000003E-002     4.0480645037812069E-029
  -3.1550000000000002E-002    -1.3365189099361949E-028
  -3.1500000000000000E-002    -3.2279866681008251E-028
  -3.1449999999999999E-002    -4.5391388550654758E-028
  -3.1399999999999997E-002    -4.5388231962679867E-028
  -3.1350000000000003E-002    -2.8096907247655040E-028
  -3.1300000000000001E-002     4.8405823471950274E-029
  -3.1250000000000000E-002     4.5136916926046720E-028
  -3.1199999999999999E-002     7.9777861409016383E-028
  -3.1150000000000001E-002     9.5508348762240652E-028
  -3.1100000000000003E-002     8.4382816735761949E-028
  -3.1050000000000001E-002     4.7918268396436689E-028
  -3.1000000000000000E-002    -2.5791766482523186E-029
  -3.0949999999999998E-002    -5.0607849098990486E-028
  -3.0900000000000000E-002    -8.2714703801053979E-028
  -3.0850000000000002E-002    -9.6658271519601212E-028
  -3.0800000000000001E-002    -1.0452036386810038E-027
  -3.0750000000000000E-002    -1.2692684529506349E-027
  -3.0699999999999998E-002    -1.7832486662062873E-027
  -3.0650000000000000E-002    -2.4864752990817610E-027
  -3.0600000000000002E-002    -2.9133263959953998E-027
  -3.0550000000000001E-002    -2.2866718361177684E-027
  -3.0499999999999999E-002     1.9276372989665056E-028
  -3.0449999999999998E-002     4.8614746873147989E-027
  -3.0400000000000000E-002     1.1080660651556656E-026
  -3.0350000000000002E-002     1.6959584418956901E-026
  -3.0300000000000001E-002     1.9578607391372367E-026
  -3.0249999999999999E-002     1.5841555557563018E-026
  -3.0200000000000001E-002     3.8312584032755107E-027
  -3.0150000000000000E-002    -1.5756745363035679E-026
  -3.0100000000000002E-002    -3.8739864678603283E-026
  -3.0050000000000000E-002    -5.7761679452270358E-026
  -2.9999999999999999E-002    -6.4111601249742279E-026
  -2.9950000000000001E-002    -5.0798655119469861E-026
  -2.9899999999999999E-002    -1.5968824664956177E-026
  -2.9850000000000002E-002     3.4711624683816296E-026
  -2.9800000000000000E-002     8.8078353344355044E-026
  -2.9749999999999999E-002     1.2663358231247062E-025
  -2.9700000000000001E-002     1.3441159033229016E-025
  -2.9650000000000003E-002     1.0374914339494677E-025
  -2.9600000000000001E-002     4.0203961759602870E-026
  -2.9550000000000000E-002    -3.7130751428013373E-026
  -2.9499999999999998E-002    -1.0138468296534011E-025
  -2.9450000000000000E-002    -1.2882701420208768E-025
  -2.9400000000000003E-002    -1.1128810646658421E-025
  -2.9350000000000001E-002    -6.4493240470478376E-026
  -2.9300000000000000E-002    -2.6745326483272939E-026
  -2.9249999999999998E-002    -4.5053842369785510E-026
  -2.9200000000000000E-002    -1.5078316355226965E-025
  -2.9150000000000002E-002    -3.3271981429610925E-025
  -2.9100000000000001E-002    -5.1979197508311390E-025
  -2.9049999999999999E-002    -5.8604880299027462E-025
  -2.8999999999999998E-002    -3.8534939498331764E-025
  -2.8950000000000000E-002     1.8717958525851805E-025
  -2.8900000000000002E-002     1.1228367283341248E-024
  -2.8850000000000001E-002     2.2431080177126834E-024
  -2.8799999999999999E-002     3.1901532544309831E-024
  -2.8749999999999998E-002     3.4872158542388890E-024
  -2.8700000000000000E-002     2.6727746146259385E-024
  -2.8650000000000002E-002     4.8476407763922776E-025
  -2.8600000000000000E-002    -2.9563112537546443E-024
  -2.8549999999999999E-002    -7.0336417866971183E-024
  -2.8500000000000001E-002    -1.0655220801190113E-023
  -2.8450000000000000E-002    -1.2447908477110440E-023
  -2.8400000000000002E-002    -1.1113690858064924E-023
  -2.8350000000000000E-002    -5.8785656663089640E-024
  -2.8299999999999999E-002     3.0863605196646831E-024
  -2.8250000000000001E-002     1.4415627201619758E-023
  -2.8200000000000003E-002     2.5598087277069079E-023
  -2.8150000000000001E-002     3.3386768878412078E-023
  -2.8100000000000000E-002     3.4536403895684948E-023
  -2.8049999999999999E-002     2.6728228350167632E-023
  -2.8000000000000001E-002     9.4564802230213118E-024
  -2.7950000000000003E-002    -1.5382902147199334E-023
  -2.7900000000000001E-002    -4.3425046523799792E-023
  -2.7850000000000000E-002    -6.8408599388760902E-023
  -2.7799999999999998E-002    -8.3352396041107956E-023
  -2.7750000000000000E-002    -8.2136666489059455E-023
  -2.7700000000000002E-002    -6.1158199821099085E-023
  -2.7650000000000001E-002    -2.0669469288718049E-023
  -2.7600000000000000E-002     3.4556214101739933E-023
  -2.7549999999999998E-002     9.5470884554061594E-023
  -2.7500000000000000E-002     1.4996519788895666E-022
  -2.7450000000000002E-002     1.8490278764605246E-022
  -2.7400000000000001E-002     1.8865350977477400E-022
  -2.7349999999999999E-002     1.5368766995968949E-022
  -2.7299999999999998E-002     7.8756233023881642E-023
  -2.7250000000000000E-002    -2.9775086838786307E-023
  -2.7200000000000002E-002    -1.5776310257918323E-022
  -2.7150000000000001E-002    -2.8446925556220827E-022
  -2.7099999999999999E-002    -3.8508259786414552E-022
  -2.7049999999999998E-002    -4.3438889988497328E-022
  -2.7000000000000000E-002    -4.1119861837686792E-022
  -2.6950000000000002E-002    -3.0296684428250702E-022
  -2.6900000000000000E-002    -1.0989437601641388E-022
  -2.6849999999999999E-002     1.5227534425732146E-022
  -2.6800000000000001E-002     4.5151299861282538E-022
  -2.6749999999999999E-002     7.4139328827406892E-022
  -2.6700000000000002E-002     9.6588437990526074E-022
  -2.6650000000000000E-002     1.0668794371485778E-021
  -2.6599999999999999E-002     9.9383650075415012E-022
  -2.6550000000000001E-002     7.1444378364977465E-022
  -2.6500000000000003E-002     2.2486562904076994E-022
  -2.6450000000000001E-002    -4.4209740939854319E-022
  -2.6400000000000000E-002    -1.2126810280752057E-021
  -2.6349999999999998E-002    -1.9733426672965374E-021
  -2.6300000000000000E-002    -2.5789277263154427E-021
  -2.6250000000000002E-002    -2.8688308102162881E-021
  -2.6200000000000001E-002    -2.6913640669869036E-021
  -2.6150000000000000E-002    -1.9352355885688526E-021
  -2.6099999999999998E-002    -5.6509768683407534E-022
  -2.6050000000000000E-002     1.3442959003945781E-021
  -2.6000000000000002E-002     3.5832940233945401E-021
  -2.5950000000000001E-002     5.8016955327703093E-021
  -2.5899999999999999E-002     7.5320651091894333E-021
  -2.5849999999999998E-002     8.2490706443552398E-021
  -2.5800000000000000E-002     7.4656975456864069E-021
  -2.5750000000000002E-002     4.8577111477409693E-021
  -2.5700000000000001E-002     3.9644708813318545E-022
  -2.5649999999999999E-002    -5.5404850947627155E-021
  -2.5599999999999998E-002    -1.2117143996354845E-020
  -2.5550000000000000E-002    -1.8080605005451786E-020
  -2.5500000000000002E-002    -2.1918277209517313E-020
  -2.5450000000000000E-002    -2.2130841269526033E-020
  -2.5399999999999999E-002    -1.7589816213129277E-020
  -2.5349999999999998E-002    -7.9165582623051930E-021
  -2.5300000000000000E-002     6.2060037816942376E-021
  -2.5250000000000002E-002     2.2886624563876620E-020
  -2.5200000000000000E-002     3.9127870884830223E-020
  -2.5149999999999999E-002     5.1220862058552642E-020
  -2.5100000000000001E-002     5.5414312961547574E-020
  -2.5049999999999999E-002     4.8766245381941713E-020
  -2.5000000000000001E-002     3.0018694391001473E-020
  -2.4950000000000000E-002     2.9185496074647932E-022
  -2.4899999999999999E-002    -3.6608568331458503E-020
  -2.4850000000000001E-002    -7.4429527943219434E-020
  -2.4800000000000003E-002    -1.0531647891795839E-019
  -2.4750000000000001E-002    -1.2119820466627196E-019
  -2.4700000000000000E-002    -1.1550249984552281E-019
  -2.4649999999999998E-002    -8.4878816522828800E-020
  -2.4600000000000000E-002    -3.0544501994780487E-020
  -2.4550000000000002E-002     4.1109407811970494E-020
  -2.4500000000000001E-002     1.1891119781164494E-019
  -2.4450000000000000E-002     1.8837798934394989E-019
  -2.4399999999999998E-002     2.3411672457318414E-019
  -2.4350000000000000E-002     2.4279020907387747E-019
  -2.4299999999999999E-002     2.0611396182433856E-019
  -2.4250000000000001E-002     1.2327601243061873E-019
  -2.4199999999999999E-002     2.2194784338585407E-021
  -2.4150000000000001E-002    -1.4060306613639127E-019
  -2.4100000000000000E-002    -2.8213111857025779E-019
  -2.4049999999999998E-002    -3.9607059308430926E-019
  -2.4000000000000000E-002    -4.5726218907979260E-019
  -2.3949999999999999E-002    -4.4634466004511169E-019
  -2.3900000000000001E-002    -3.5391301471954371E-019
  -2.3850000000000000E-002    -1.8341187146491389E-019
  -2.3800000000000002E-002     4.7821878533462414E-020
  -2.3750000000000000E-002     3.0967721695501179E-019
  -2.3699999999999999E-002     5.6254117308613703E-019
  -2.3650000000000001E-002     7.6239826983201821E-019
  -2.3599999999999999E-002     8.6717183372589375E-019
  -2.3550000000000001E-002     8.4354147293268507E-019
  -2.3500000000000000E-002     6.7337502914242128E-019
  -2.3449999999999999E-002     3.5889975872114870E-019
  -2.3400000000000001E-002    -7.4216905451611748E-020
  -2.3349999999999999E-002    -5.7660640164975886E-019
  -2.3300000000000001E-002    -1.0783194719437116E-018
  -2.3250000000000000E-002    -1.4956335725815546E-018
  -2.3199999999999998E-002    -1.7414699062666278E-018
  -2.3150000000000000E-002    -1.7387972561827734E-018
  -2.3099999999999999E-002    -1.4357305373656638E-018
  -2.3050000000000001E-002    -8.2028610787633905E-019
  -2.3000000000000000E-002     6.7890313192527865E-020
  -2.2950000000000002E-002     1.1318806602916450E-018
  -2.2900000000000000E-002     2.2208247845217573E-018
  -2.2849999999999999E-002     3.1442533751186463E-018
  -2.2800000000000001E-002     3.6978213310984029E-018
  -2.2749999999999999E-002     3.6985372709734772E-018
  -2.2700000000000001E-002     3.0249739039568081E-018
  -2.2650000000000000E-002     1.6555269546584793E-018
  -2.2599999999999999E-002    -3.0375918953042056E-019
  -2.2550000000000001E-002    -2.6103181191323348E-018
  -2.2499999999999999E-002    -4.9017965192276847E-018
  -2.2450000000000001E-002    -6.7411049726033778E-018
  -2.2400000000000000E-002    -7.6869820128949965E-018
  -2.2349999999999998E-002    -7.3809912654497417E-018
  -2.2300000000000000E-002    -5.6362071122449834E-018
  -2.2249999999999999E-002    -2.5092072414900016E-018
  -2.2200000000000001E-002     1.6632903873916606E-018
  -2.2150000000000000E-002     6.2779602483280908E-018
  -2.2100000000000002E-002     1.0535455766456161E-017
  -2.2050000000000000E-002     1.3563932920683207E-017
  -2.1999999999999999E-002     1.4579264127615751E-017
  -2.1950000000000001E-002     1.3054968790726143E-017
  -2.1899999999999999E-002     8.8682357052671087E-018
  -2.1850000000000001E-002     2.3880610452927996E-018
  -2.1800000000000000E-002    -5.5216135069039692E-018
  -2.1749999999999999E-002    -1.3596973098707315E-017
  -2.1700000000000001E-002    -2.0362249759491263E-017
  -2.1649999999999999E-002    -2.4385063325563413E-017
  -2.1600000000000001E-002    -2.4556539594244715E-017
  -2.1550000000000000E-002    -2.0343237815509921E-017
  -2.1499999999999998E-002    -1.1957550444488452E-017
  -2.1450000000000000E-002    -4.0390586525266425E-019
  -2.1399999999999999E-002     1.2621261095198284E-017
  -2.1350000000000001E-002     2.4970605429444029E-017
  -2.1299999999999999E-002     3.4394549738551063E-017
  -2.1250000000000002E-002     3.8940006267706966E-017
  -2.1200000000000000E-002     3.7327627137921093E-017
  -2.1149999999999999E-002     2.9235433383982485E-017
  -2.1100000000000001E-002     1.5430213298146104E-017
  -2.1049999999999999E-002    -2.2859940729768951E-018
  -2.1000000000000001E-002    -2.1313872599514453E-017
  -2.0950000000000000E-002    -3.8644743499386964E-017
  -2.0899999999999998E-002    -5.1335742101190348E-017
  -2.0850000000000000E-002    -5.6992959436879975E-017
  -2.0799999999999999E-002    -5.4181628216620823E-017
  -2.0750000000000001E-002    -4.2695356970643672E-017
  -2.0700000000000000E-002    -2.3641358320286982E-017
  -2.0649999999999998E-002     6.7036784459209608E-019
  -2.0600000000000000E-002     2.7014600768662939E-017
  -2.0549999999999999E-002     5.1670938594601872E-017
  -2.0500000000000001E-002     7.0916655334305508E-017
  -2.0449999999999999E-002     8.1528381002216385E-017
  -2.0400000000000001E-002     8.1234036748168821E-017
  -2.0350000000000000E-002     6.9066905619794131E-017
  -2.0299999999999999E-002     4.5586962938085852E-017
  -2.0250000000000001E-002     1.2944807332961702E-017
  -2.0199999999999999E-002    -2.5228135844862833E-017
  -2.0150000000000001E-002    -6.4112614314540338E-017
  -2.0100000000000000E-002    -9.8178601798522553E-017
  -2.0049999999999998E-002    -1.2183114459931367E-016
  -2.0000000000000000E-002    -1.3018503352932041E-016
  -1.9949999999999999E-002    -1.1989460948567193E-016
  -1.9900000000000001E-002    -8.9927932408935762E-017
  -1.9850000000000000E-002    -4.2144438965264063E-017
  -1.9799999999999998E-002     1.8476222233452223E-017
  -1.9750000000000000E-002     8.4086229864122323E-017
  -1.9699999999999999E-002     1.4477725203517511E-016
  -1.9650000000000001E-002     1.8992384676709865E-016
  -1.9599999999999999E-002     2.0992554479815372E-016
  -1.9550000000000001E-002     1.9809099918482994E-016
  -1.9500000000000000E-002     1.5231784010731198E-016
  -1.9449999999999999E-002     7.6188466088042016E-017
  -1.9400000000000001E-002    -2.0849914217336884E-017
  -1.9349999999999999E-002    -1.2442023223683069E-016
  -1.9300000000000001E-002    -2.1725854540820522E-016
  -1.9250000000000000E-002    -2.8211708105478313E-016
  -1.9199999999999998E-002    -3.0504957265446772E-016
  -1.9150000000000000E-002    -2.7844559858499803E-016
  -1.9099999999999999E-002    -2.0314257471827116E-016
  -1.9050000000000001E-002    -8.9056406405218360E-017
  -1.9000000000000000E-002     4.5974268317042462E-017
  -1.8949999999999998E-002     1.7907446189804707E-016
  -1.8900000000000000E-002     2.8650374707857575E-016
  -1.8849999999999999E-002     3.4832852030848470E-016
  -1.8800000000000001E-002     3.5262094606432574E-016
  -1.8749999999999999E-002     2.9822335376972914E-016
  -1.8700000000000001E-002     1.9535696083431728E-016
  -1.8650000000000000E-002     6.3788723046267151E-017
  -1.8599999999999998E-002    -7.1187331689134230E-017
  -1.8550000000000001E-002    -1.8416462655632561E-016
  -1.8499999999999999E-002    -2.5525393480853590E-016
  -1.8450000000000001E-002    -2.7460731196854444E-016
  -1.8400000000000000E-002    -2.4468332706760789E-016
  -1.8349999999999998E-002    -1.7956622682462863E-016
  -1.8300000000000000E-002    -1.0132739736969153E-016
  -1.8249999999999999E-002    -3.4155494076879129E-017
  -1.8200000000000001E-002     2.3947261145557010E-018
  -1.8149999999999999E-002    -6.5719357845406818E-019
  -1.8100000000000002E-002    -3.8230140054867895E-017
  -1.8050000000000000E-002    -9.1319724849917461E-017
  -1.7999999999999999E-002    -1.3112179654221540E-016
  -1.7950000000000001E-002    -1.2651401538422656E-016
  -1.7899999999999999E-002    -5.3330959959631469E-017
  -1.7850000000000001E-002     9.6776247052294173E-017
  -1.7800000000000000E-002     3.1027645248429790E-016
  -1.7749999999999998E-002     5.5047248991278807E-016
  -1.7700000000000000E-002     7.6204487721008214E-016
  -1.7649999999999999E-002     8.8118700283053289E-016
  -1.7600000000000001E-002     8.4971283210605316E-016
  -1.7550000000000000E-002     6.3036107794548677E-016
  -1.7499999999999998E-002     2.1988402494347417E-016
  -1.7450000000000000E-002    -3.4340827030577817E-016
  -1.7399999999999999E-002    -9.8013798143427589E-016
  -1.7350000000000001E-002    -1.5793791351840162E-015
  -1.7299999999999999E-002    -2.0163429098503241E-015
  -1.7250000000000001E-002    -2.1755232471302910E-015
  -1.7200000000000000E-002    -1.9751598917857258E-015
  -1.7149999999999999E-002    -1.3881985601124310E-015
  -1.7100000000000001E-002    -4.5519839372855607E-016
  -1.7049999999999999E-002     7.1415576527701908E-016
  -1.7000000000000001E-002     1.9522978549774309E-015
  -1.6950000000000000E-002     3.0568123182031559E-015
  -1.6899999999999998E-002     3.8219940167660731E-015
  -1.6850000000000000E-002     4.0739336146525916E-015
  -1.6799999999999999E-002     3.7032370541527487E-015
  -1.6750000000000001E-002     2.6896612029268114E-015
  -1.6700000000000000E-002     1.1141034125485318E-015
  -1.6649999999999998E-002    -8.4463928372921192E-016
  -1.6600000000000000E-002    -2.9285726711407273E-015
  -1.6549999999999999E-002    -4.8325384552940934E-015
  -1.6500000000000001E-002    -6.2454825060989245E-015
  -1.6449999999999999E-002    -6.8955642272661043E-015
  -1.6400000000000001E-002    -6.5931650749277868E-015
  -1.6350000000000000E-002    -5.2660923086448308E-015
  -1.6299999999999999E-002    -2.9820598732111090E-015
  -1.6250000000000001E-002     4.5224037498463334E-017
  -1.6199999999999999E-002     3.4685149606056108E-015
  -1.6150000000000001E-002     6.8385196202124724E-015
  -1.6100000000000000E-002     9.6529714195706263E-015
  -1.6049999999999998E-002     1.1419803522642937E-014
  -1.6000000000000000E-002     1.1728681768281874E-014
  -1.5949999999999999E-002     1.0322895071456147E-014
  -1.5900000000000001E-002     7.1616663926218196E-015
  -1.5850000000000000E-002     2.4619311652658413E-015
  -1.5799999999999998E-002    -3.2910712772117402E-015
  -1.5750000000000000E-002    -9.3727103396076048E-015
  -1.5699999999999999E-002    -1.4891202928421454E-014
  -1.5650000000000001E-002    -1.8900441724489732E-014
  -1.5599999999999999E-002    -2.0542899100078891E-014
  -1.5550000000000001E-002    -1.9204240719104917E-014
  -1.5500000000000000E-002    -1.4655096322480775E-014
  -1.5449999999999998E-002    -7.1526129929164925E-015
  -1.5400000000000000E-002     2.5237617087779451E-015
  -1.5349999999999999E-002     1.3120509859186512E-014
  -1.5300000000000001E-002     2.3048386240665080E-014
  -1.5250000000000000E-002     3.0601049973271402E-014
  -1.5199999999999998E-002     3.4227750455270698E-014
  -1.5150000000000000E-002     3.2819356612380385E-014
  -1.5099999999999999E-002     2.5958273201697079E-014
  -1.5050000000000001E-002     1.4082203506231357E-014
  -1.4999999999999999E-002    -1.4794941341280917E-015
  -1.4949999999999998E-002    -1.8620175671740494E-014
  -1.4900000000000000E-002    -3.4719713964574785E-014
  -1.4849999999999999E-002    -4.7028902065030649E-014
  -1.4800000000000001E-002    -5.3120506990933977E-014
  -1.4749999999999999E-002    -5.1334768724991792E-014
  -1.4700000000000001E-002    -4.1140510951951055E-014
  -1.4650000000000000E-002    -2.3340057828898588E-014
  -1.4599999999999998E-002    -6.6955981744697377E-017
  -1.4550000000000000E-002     2.5442681915400322E-014
  -1.4499999999999999E-002     4.9286120818566632E-014
  -1.4450000000000001E-002     6.7480619366125595E-014
  -1.4400000000000000E-002     7.6613199590681855E-014
  -1.4349999999999998E-002     7.4448499957092220E-014
  -1.4300000000000000E-002     6.0389190310548856E-014
  -1.4249999999999999E-002     3.5701174814181591E-014
  -1.4200000000000001E-002     3.4494930888425851E-015
  -1.4149999999999999E-002    -3.1863785211036975E-014
  -1.4099999999999998E-002    -6.4919541862119328E-014
  -1.4050000000000000E-002    -9.0374400330998678E-014
  -1.3999999999999999E-002    -1.0370810565392659E-013
  -1.3950000000000001E-002    -1.0199229224636873E-013
  -1.3899999999999999E-002    -8.4453420626761095E-014
  -1.3850000000000001E-002    -5.2729228693425175E-014
  -1.3800000000000000E-002    -1.0762391299386217E-014
  -1.3749999999999998E-002     3.5670961776511823E-014
  -1.3700000000000000E-002     7.9742935774586440E-014
  -1.3649999999999999E-002     1.1456064797524997E-013
  -1.3600000000000001E-002     1.3421709772212397E-013
  -1.3550000000000000E-002     1.3474951971016300E-013
  -1.3499999999999998E-002     1.1485601622508192E-013
  -1.3450000000000000E-002     7.6250334432997654E-014
  -1.3399999999999999E-002     2.3584343832679522E-014
  -1.3350000000000001E-002    -3.6073605167178930E-014
  -1.3299999999999999E-002    -9.4150450102216471E-014
  -1.3249999999999998E-002    -1.4175823539908129E-013
  -1.3200000000000000E-002    -1.7100309185607754E-013
  -1.3149999999999998E-002    -1.7622918896229890E-013
  -1.3100000000000001E-002    -1.5501152547815637E-013
  -1.3049999999999999E-002    -1.0873636200610978E-013
  -1.3000000000000001E-002    -4.2656681146974628E-014
  -1.2950000000000000E-002     3.4622136359646106E-014
  -1.2899999999999998E-002     1.1219177095387579E-013
  -1.2850000000000000E-002     1.7831044263884958E-013
  -1.2799999999999999E-002     2.2210629886850905E-013