  -4.0000000000000001E-002     0.0000000000000000     
  -3.9949999999999999E-002     0.0000000000000000     
  -3.9899999999999998E-002     0.0000000000000000     
  -3.9850000000000003E-002     0.0000000000000000     
  -3.9800000000000002E-002     0.0000000000000000     
  -3.9750000000000001E-002     0.0000000000000000     
  -3.9699999999999999E-002     0.0000000000000000     
  -3.9649999999999998E-002     0.0000000000000000     
  -3.9600000000000003E-002     0.0000000000000000     
  -3.9550000000000002E-002     0.0000000000000000     
  -3.9500000000000000E-002     0.0000000000000000     
  -3.9449999999999999E-002     0.0000000000000000     
  -3.9399999999999998E-002     0.0000000000000000     
  -3.9350000000000003E-002     0.0000000000000000     
  -3.9300000000000002E-002     0.0000000000000000     
  -3.9250000000000000E-002     0.0000000000000000     
  -3.9199999999999999E-002     0.0000000000000000     
  -3.9150000000000004E-002     0.0000000000000000     
  -3.9100000000000003E-002     0.0000000000000000     
  -3.9050000000000001E-002     0.0000000000000000     
  -3.9000000000000000E-002     0.0000000000000000     
  -3.8949999999999999E-002     0.0000000000000000     
  -3.8900000000000004E-002     0.0000000000000000     
  -3.8850000000000003E-002     0.0000000000000000     
  -3.8800000000000001E-002     0.0000000000000000     
  -3.8750000000000000E-002     0.0000000000000000     
  -3.8699999999999998E-002     0.0000000000000000     
  -3.8650000000000004E-002     0.0000000000000000     
  -3.8600000000000002E-002     0.0000000000000000     
  -3.8550000000000001E-002     0.0000000000000000     
  -3.8500000000000000E-002     0.0000000000000000     
  -3.8449999999999998E-002     0.0000000000000000     
  -3.8400000000000004E-002     0.0000000000000000     
  -3.8350000000000002E-002     0.0000000000000000     
  -3.8300000000000001E-002     0.0000000000000000     
  -3.8249999999999999E-002     0.0000000000000000     
  -3.8199999999999998E-002     0.0000000000000000     
  -3.8150000000000003E-002     0.0000000000000000     
  -3.8100000000000002E-002     0.0000000000000000     
  -3.8050000000000000E-002     0.0000000000000000     
  -3.7999999999999999E-002     0.0000000000000000     
  -3.7949999999999998E-002     0.0000000000000000     
  -3.7900000000000003E-002     0.0000000000000000     
  -3.7850000000000002E-002     0.0000000000000000     
  -3.7800000000000000E-002     0.0000000000000000     
  -3.7749999999999999E-002     0.0000000000000000     
  -3.7699999999999997E-002     0.0000000000000000     
  -3.7650000000000003E-002     0.0000000000000000     
  -3.7600000000000001E-002     0.0000000000000000     
  -3.7550000000000000E-002     0.0000000000000000     
  -3.7499999999999999E-002     0.0000000000000000     
  -3.7449999999999997E-002     0.0000000000000000     
  -3.7400000000000003E-002     0.0000000000000000     
  -3.7350000000000001E-002     0.0000000000000000     
  -3.7300000000000000E-002     0.0000000000000000     
  -3.7249999999999998E-002     0.0000000000000000     
  -3.7200000000000004E-002     0.0000000000000000     
  -3.7150000000000002E-002     0.0000000000000000     
  -3.7100000000000001E-002     0.0000000000000000     
  -3.7050000000000000E-002     0.0000000000000000     
  -3.6999999999999998E-002     0.0000000000000000     
  -3.6950000000000004E-002     0.0000000000000000     
  -3.6900000000000002E-002     0.0000000000000000     
  -3.6850000000000001E-002     0.0000000000000000     
  -3.6799999999999999E-002     0.0000000000000000     
  -3.6749999999999998E-002     0.0000000000000000     
  -3.6700000000000003E-002     0.0000000000000000     
  -3.6650000000000002E-002     0.0000000000000000     
  -3.6600000000000001E-002     0.0000000000000000     
  -3.6549999999999999E-002     0.0000000000000000     
  -3.6499999999999998E-002     0.0000000000000000     
  -3.6450000000000003E-002     0.0000000000000000     
  -3.6400000000000002E-002     0.0000000000000000     
  -3.6350000000000000E-002     0.0000000000000000     
  -3.6299999999999999E-002     0.0000000000000000     
  -3.6249999999999998E-002     0.0000000000000000     
  -3.6200000000000003E-002     0.0000000000000000     
  -3.6150000000000002E-002     0.0000000000000000     
  -3.6100000000000000E-002     0.0000000000000000     
  -3.6049999999999999E-002     0.0000000000000000     
  -3.6000000000000004E-002     0.0000000000000000     
  -3.5950000000000003E-002     0.0000000000000000     
  -3.5900000000000001E-002     0.0000000000000000     
  -3.5850000000000000E-002     0.0000000000000000     
  -3.5799999999999998E-002     0.0000000000000000     
  -3.5750000000000004E-002     0.0000000000000000     
  -3.5700000000000003E-002     0.0000000000000000     
  -3.5650000000000001E-002     0.0000000000000000     
  -3.5600000000000000E-002     0.0000000000000000     
  -3.5549999999999998E-002     0.0000000000000000     
  -3.5500000000000004E-002     0.0000000000000000     
  -3.5450000000000002E-002     0.0000000000000000     
  -3.5400000000000001E-002     0.0000000000000000     
  -3.5349999999999999E-002     0.0000000000000000     
  -3.5299999999999998E-002     0.0000000000000000     
  -3.5250000000000004E-002     0.0000000000000000     
  -3.5200000000000002E-002     0.0000000000000000     
  -3.5150000000000001E-002     0.0000000000000000     
  -3.5099999999999999E-002     0.0000000000000000     
  -3.5049999999999998E-002     0.0000000000000000     
  -3.5000000000000003E-002     0.0000000000000000     
  -3.4950000000000002E-002     0.0000000000000000     
  -3.4900000000000000E-002     0.0000000000000000     
  -3.4849999999999999E-002     0.0000000000000000     
  -3.4799999999999998E-002     0.0000000000000000     
  -3.4750000000000003E-002     0.0000000000000000     
  -3.4700000000000002E-002     0.0000000000000000     
  -3.4650000000000000E-002     0.0000000000000000     
  -3.4599999999999999E-002     0.0000000000000000     
  -3.4549999999999997E-002     0.0000000000000000     
  -3.4500000000000003E-002     0.0000000000000000     
  -3.4450000000000001E-002     0.0000000000000000     
  -3.4400000000000000E-002     0.0000000000000000     
  -3.4349999999999999E-002     0.0000000000000000     
  -3.4299999999999997E-002     0.0000000000000000     
  -3.4250000000000003E-002     0.0000000000000000     
  -3.4200000000000001E-002     0.0000000000000000     
  -3.4150000000000000E-002     0.0000000000000000     
  -3.4099999999999998E-002     0.0000000000000000     
  -3.4049999999999997E-002     0.0000000000000000     
  -3.4000000000000002E-002     0.0000000000000000     
  -3.3950000000000001E-002     0.0000000000000000     
  -3.3900000000000000E-002     0.0000000000000000     
  -3.3849999999999998E-002     0.0000000000000000     
  -3.3799999999999997E-002     0.0000000000000000     
  -3.3750000000000002E-002     0.0000000000000000     
  -3.3700000000000001E-002     0.0000000000000000     
  -3.3649999999999999E-002     0.0000000000000000     
  -3.3599999999999998E-002     0.0000000000000000     
  -3.3550000000000003E-002     0.0000000000000000     
  -3.3500000000000002E-002     0.0000000000000000     
  -3.3450000000000001E-002     0.0000000000000000     
  -3.3399999999999999E-002     0.0000000000000000     
  -3.3349999999999998E-002     0.0000000000000000     
  -3.3300000000000003E-002     0.0000000000000000     
  -3.3250000000000002E-002     0.0000000000000000     
  -3.3200000000000000E-002     0.0000000000000000     
  -3.3149999999999999E-002     0.0000000000000000     
  -3.3099999999999997E-002     0.0000000000000000     
  -3.3050000000000003E-002     0.0000000000000000     
  -3.3000000000000002E-002     0.0000000000000000     
  -3.2950000000000000E-002     0.0000000000000000     
  -3.2899999999999999E-002     0.0000000000000000     
  -3.2850000000000004E-002     0.0000000000000000     
  -3.2800000000000003E-002     0.0000000000000000     
  -3.2750000000000001E-002     0.0000000000000000     
  -3.2700000000000000E-002     0.0000000000000000     
  -3.2649999999999998E-002     0.0000000000000000     
  -3.2600000000000004E-002     0.0000000000000000     
  -3.2550000000000003E-002     0.0000000000000000     
  -3.2500000000000001E-002     0.0000000000000000     
  -3.2450000000000000E-002     0.0000000000000000     
  -3.2399999999999998E-002     0.0000000000000000     
  -3.2350000000000004E-002     0.0000000000000000     
  -3.2300000000000002E-002     0.0000000000000000     
  -3.2250000000000001E-002     0.0000000000000000     
  -3.2199999999999999E-002     0.0000000000000000     
  -3.2149999999999998E-002     0.0000000000000000     
  -3.2100000000000004E-002     0.0000000000000000     
  -3.2050000000000002E-002     0.0000000000000000     
  -3.2000000000000001E-002     0.0000000000000000     
  -3.1949999999999999E-002     0.0000000000000000     
  -3.1899999999999998E-002     0.0000000000000000     
  -3.1850000000000003E-002     0.0000000000000000     
  -3.1800000000000002E-002     0.0000000000000000     
  -3.1750000000000000E-002     0.0000000000000000     
  -3.1699999999999999E-002     0.0000000000000000     
  -3.1649999999999998E-002     0.0000000000000000     
  -3.1600000000000003E-002     0.0000000000000000     
  -3.1550000000000002E-002     0.0000000000000000     
  -3.1500000000000000E-002     0.0000000000000000     
  -3.1449999999999999E-002     0.0000000000000000     
  -3.1399999999999997E-002     0.0000000000000000     
  -3.1350000000000003E-002     0.0000000000000000     
  -3.1300000000000001E-002     0.0000000000000000     
  -3.1250000000000000E-002     0.0000000000000000     
  -3.1199999999999999E-002     0.0000000000000000     
  -3.1150000000000001E-002     0.0000000000000000     
  -3.1100000000000003E-002     0.0000000000000000     
  -3.1050000000000001E-002     0.0000000000000000     
  -3.1000000000000000E-002     0.0000000000000000     
  -3.0949999999999998E-002     0.0000000000000000     
  -3.0900000000000000E-002     0.0000000000000000     
  -3.0850000000000002E-002     0.0000000000000000     
  -3.0800000000000001E-002     0.0000000000000000     
  -3.0750000000000000E-002     0.0000000000000000     
  -3.0699999999999998E-002     0.0000000000000000     
  -3.0650000000000000E-002     0.0000000000000000     
  -3.0600000000000002E-002     0.0000000000000000     
  -3.0550000000000001E-002     0.0000000000000000     
  -3.0499999999999999E-002     0.0000000000000000     
  -3.0449999999999998E-002     0.0000000000000000     
  -3.0400000000000000E-002     0.0000000000000000     
  -3.0350000000000002E-002     0.0000000000000000     
  -3.0300000000000001E-002     0.0000000000000000     
  -3.0249999999999999E-002     0.0000000000000000     
  -3.0200000000000001E-002     0.0000000000000000     
  -3.0150000000000000E-002     0.0000000000000000     
  -3.0100000000000002E-002     0.0000000000000000     
  -3.0050000000000000E-002     0.0000000000000000     
  -2.9999999999999999E-002     0.0000000000000000     
  -2.9950000000000001E-002     0.0000000000000000     
  -2.9899999999999999E-002     0.0000000000000000     
  -2.9850000000000002E-002     0.0000000000000000     
  -2.9800000000000000E-002     0.0000000000000000     
  -2.9749999999999999E-002     0.0000000000000000     
  -2.9700000000000001E-002     0.0000000000000000     
  -2.9650000000000003E-002     0.0000000000000000     
  -2.9600000000000001E-002     0.0000000000000000     
  -2.9550000000000000E-002     0.0000000000000000     
  -2.9499999999999998E-002     0.0000000000000000     
  -2.9450000000000000E-002     0.0000000000000000     
  -2.9400000000000003E-002     0.0000000000000000     
  -2.9350000000000001E-002     0.0000000000000000     
  -2.9300000000000000E-002     0.0000000000000000     
  -2.9249999999999998E-002     0.0000000000000000     
  -2.9200000000000000E-002     0.0000000000000000     
  -2.9150000000000002E-002     0.0000000000000000     
  -2.9100000000000001E-002     0.0000000000000000     
  -2.9049999999999999E-002     0.0000000000000000     
  -2.8999999999999998E-002     0.0000000000000000     
  -2.8950000000000000E-002     0.0000000000000000     
  -2.8900000000000002E-002     0.0000000000000000     
  -2.8850000000000001E-002     0.0000000000000000     
  -2.8799999999999999E-002     0.0000000000000000     
  -2.8749999999999998E-002     0.0000000000000000     
  -2.8700000000000000E-002     0.0000000000000000     
  -2.8650000000000002E-002     0.0000000000000000     
  -2.8600000000000000E-002     0.0000000000000000     
  -2.8549999999999999E-002     0.0000000000000000     
  -2.8500000000000001E-002     0.0000000000000000     
  -2.8450000000000000E-002     0.0000000000000000     
  -2.8400000000000002E-002     0.0000000000000000     
  -2.8350000000000000E-002     0.0000000000000000     
  -2.8299999999999999E-002     0.0000000000000000     
  -2.8250000000000001E-002     0.0000000000000000     
  -2.8200000000000003E-002     0.0000000000000000     
  -2.8150000000000001E-002     0.0000000000000000     
  -2.8100000000000000E-002     0.0000000000000000     
  -2.8049999999999999E-002     0.0000000000000000     
  -2.8000000000000001E-002     0.0000000000000000     
  -2.7950000000000003E-002     0.0000000000000000     
  -2.7900000000000001E-002     0.0000000000000000     
  -2.7850000000000000E-002     0.0000000000000000     
  -2.7799999999999998E-002     0.0000000000000000     
  -2.7750000000000000E-002     0.0000000000000000     
  -2.7700000000000002E-002     0.0000000000000000     
  -2.7650000000000001E-002     0.0000000000000000     
  -2.7600000000000000E-002     0.0000000000000000     
  -2.7549999999999998E-002     0.0000000000000000     
  -2.7500000000000000E-002     0.0000000000000000     
  -2.7450000000000002E-002     0.0000000000000000     
  -2.7400000000000001E-002     0.0000000000000000     
  -2.7349999999999999E-002     0.0000000000000000     
  -2.7299999999999998E-002     0.0000000000000000     
  -2.7250000000000000E-002     0.0000000000000000     
  -2.7200000000000002E-002     0.0000000000000000     
  -2.7150000000000001E-002     0.0000000000000000     
  -2.7099999999999999E-002     0.0000000000000000     
  -2.7049999999999998E-002     0.0000000000000000     
  -2.7000000000000000E-002     0.0000000000000000     
  -2.6950000000000002E-002     0.0000000000000000     
  -2.6900000000000000E-002     0.0000000000000000     
  -2.6849999999999999E-002     0.0000000000000000     
  -2.6800000000000001E-002     0.0000000000000000     
  -2.6749999999999999E-002     0.0000000000000000     
  -2.6700000000000002E-002     0.0000000000000000     
  -2.6650000000000000E-002     0.0000000000000000     
  -2.6599999999999999E-002     0.0000000000000000     
  -2.6550000000000001E-002     0.0000000000000000     
  -2.6500000000000003E-002     0.0000000000000000     
  -2.6450000000000001E-002     0.0000000000000000     
  -2.6400000000000000E-002     0.0000000000000000     
  -2.6349999999999998E-002     0.0000000000000000     
  -2.6300000000000000E-002     0.0000000000000000     
  -2.6250000000000002E-002     0.0000000000000000     
  -2.6200000000000001E-002     0.0000000000000000     
  -2.6150000000000000E-002     0.0000000000000000     
  -2.6099999999999998E-002     0.0000000000000000     
  -2.6050000000000000E-002     0.0000000000000000     
  -2.6000000000000002E-002     0.0000000000000000     
  -2.5950000000000001E-002     0.0000000000000000     
  -2.5899999999999999E-002     0.0000000000000000     
  -2.5849999999999998E-002     0.0000000000000000     
  -2.5800000000000000E-002     0.0000000000000000     
  -2.5750000000000002E-002     0.0000000000000000     
  -2.5700000000000001E-002     0.0000000000000000     
  -2.5649999999999999E-002     0.0000000000000000     
  -2.5599999999999998E-002     0.0000000000000000     
  -2.5550000000000000E-002     0.0000000000000000     
  -2.5500000000000002E-002     0.0000000000000000     
  -2.5450000000000000E-002     0.0000000000000000     
  -2.5399999999999999E-002     0.0000000000000000     
  -2.5349999999999998E-002     0.0000000000000000     
  -2.5300000000000000E-002     0.0000000000000000     
  -2.5250000000000002E-002     0.0000000000000000     
  -2.5200000000000000E-002     0.0000000000000000     
  -2.5149999999999999E-002     0.0000000000000000     
  -2.5100000000000001E-002     0.0000000000000000     
  -2.5049999999999999E-002     0.0000000000000000     
  -2.5000000000000001E-002     0.0000000000000000     
  -2.4950000000000000E-002     0.0000000000000000     
  -2.4899999999999999E-002     0.0000000000000000     
  -2.4850000000000001E-002     0.0000000000000000     
  -2.4800000000000003E-002     0.0000000000000000     
  -2.4750000000000001E-002     0.0000000000000000     
  -2.4700000000000000E-002     0.0000000000000000     
  -2.4649999999999998E-002     0.0000000000000000     
  -2.4600000000000000E-002     0.0000000000000000     
  -2.4550000000000002E-002     0.0000000000000000     
  -2.4500000000000001E-002     0.0000000000000000     
  -2.4450000000000000E-002     0.0000000000000000     
  -2.4399999999999998E-002     0.0000000000000000     
  -2.4350000000000000E-002     0.0000000000000000     
  -2.4299999999999999E-002     0.0000000000000000     
  -2.4250000000000001E-002     0.0000000000000000     
  -2.4199999999999999E-002     0.0000000000000000     
  -2.4150000000000001E-002     0.0000000000000000     
  -2.4100000000000000E-002     0.0000000000000000     
  -2.4049999999999998E-002     0.0000000000000000     
  -2.4000000000000000E-002     0.0000000000000000     
  -2.3949999999999999E-002     0.0000000000000000     
  -2.3900000000000001E-002     0.0000000000000000     
  -2.3850000000000000E-002     0.0000000000000000     
  -2.3800000000000002E-002     0.0000000000000000     
  -2.3750000000000000E-002     0.0000000000000000     
  -2.3699999999999999E-002     0.0000000000000000     
  -2.3650000000000001E-002     0.0000000000000000     
  -2.3599999999999999E-002     0.0000000000000000     
  -2.3550000000000001E-002     0.0000000000000000     
  -2.3500000000000000E-002     0.0000000000000000     
  -2.3449999999999999E-002     0.0000000000000000     
  -2.3400000000000001E-002     0.0000000000000000     
  -2.3349999999999999E-002     0.0000000000000000     
  -2.3300000000000001E-002     0.0000000000000000     
  -2.3250000000000000E-002     0.0000000000000000     
  -2.3199999999999998E-002     0.0000000000000000     
  -2.3150000000000000E-002    -1.7536006660369457E-039
  -2.3099999999999999E-002    -3.5858544160555747E-039
  -2.3050000000000001E-002    -3.4374246966516668E-039
  -2.3000000000000000E-002     0.0000000000000000     
  -2.2950000000000002E-002     7.8133503524811739E-039
  -2.2900000000000000E-002     1.4200480734361958E-038
  -2.2849999999999999E-002     1.5466800750174715E-038
  -2.2800000000000001E-002     6.4457963884193756E-039
  -2.2749999999999999E-002    -8.1620332555150890E-039
  -2.2700000000000001E-002    -2.8169186850046965E-038
  -2.2650000000000000E-002    -5.2675324941852413E-038
  -2.2599999999999999E-002    -5.6362520830931562E-038
  -2.2550000000000001E-002    -2.0917593395986455E-038
  -2.2499999999999999E-002     3.5426255583656801E-038
  -2.2450000000000001E-002     1.0144179876991117E-037
  -2.2400000000000000E-002     1.3290936427107575E-037
  -2.2349999999999998E-002     1.3468788354248978E-037
  -2.2300000000000000E-002     1.0524790874017549E-037
  -2.2249999999999999E-002     4.8253781018301746E-038
  -2.2200000000000001E-002    -5.8266047157613584E-038
  -2.2150000000000000E-002    -2.1506058757847072E-037
  -2.2100000000000002E-002    -3.8791451985978099E-037
  -2.2050000000000000E-002    -4.5993620149275131E-037
  -2.1999999999999999E-002    -3.8690264965514354E-037
  -2.1950000000000001E-002    -1.7266305888376344E-037
  -2.1899999999999999E-002     1.1760515388970552E-037
  -2.1850000000000001E-002     3.9936555366358402E-037
  -2.1800000000000000E-002     6.3840088442128804E-037
  -2.1749999999999999E-002     8.2103216790519360E-037
  -2.1700000000000001E-002     9.2888767641243486E-037
  -2.1649999999999999E-002     9.1819757412225346E-037
  -2.1600000000000001E-002     7.2916516662632068E-037
  -2.1550000000000000E-002     3.1051106776668708E-037
  -2.1499999999999998E-002    -3.7306986790329697E-037
  -2.1450000000000000E-002    -1.3178205031324591E-036
  -2.1399999999999999E-002    -2.4805575876850885E-036
  -2.1350000000000001E-002    -3.6933703570550699E-036
  -2.1299999999999999E-002    -4.6120608355715755E-036
  -2.1250000000000002E-002    -4.6525861994946659E-036
  -2.1200000000000000E-002    -3.1037545219693951E-036
  -2.1149999999999999E-002     5.7659214513380616E-037
  -2.1100000000000001E-002     6.3493385610574132E-036
  -2.1049999999999999E-002     1.3230852785154381E-035
  -2.1000000000000001E-002     1.9194245238233335E-035
  -2.0950000000000000E-002     2.1468757413949843E-035
  -2.0899999999999998E-002     1.7273985304455705E-035
  -2.0850000000000000E-002     4.8855771030646634E-036
  -2.0799999999999999E-002    -1.5229310136991196E-035
  -2.0750000000000001E-002    -3.9575197078913470E-035
  -2.0700000000000000E-002    -6.1535689086011206E-035
  -2.0649999999999998E-002    -7.2396255291679494E-035
  -2.0600000000000000E-002    -6.3589622759329641E-035
  -2.0549999999999999E-002    -2.9838072018390122E-035
  -2.0500000000000001E-002     2.7642722688384897E-035
  -2.0449999999999999E-002     9.9050790653669178E-035
  -2.0400000000000001E-002     1.6618840602233945E-034
  -2.0350000000000000E-002     2.0563610770817659E-034
  -2.0299999999999999E-002     1.9475781100149655E-034
  -2.0250000000000001E-002     1.1935692775343856E-034
  -2.0199999999999999E-002    -1.9072605216344564E-035
  -2.0150000000000001E-002    -1.9897161876814936E-034
  -2.0100000000000000E-002    -3.7940019397033362E-034
  -2.0049999999999998E-002    -5.0690157216512156E-034
  -2.0000000000000000E-002    -5.2798620693670343E-034
  -1.9949999999999999E-002    -4.0478796304352034E-034
  -1.9900000000000001E-002    -1.2994181729725057E-034
  -1.9850000000000000E-002     2.6380646719029893E-034
  -1.9799999999999998E-002     7.0297352235430237E-034
  -1.9750000000000000E-002     1.0834099672266357E-033
  -1.9699999999999999E-002     1.2900929008839177E-033
  -1.9650000000000001E-002     1.2230878804794299E-033
  -1.9599999999999999E-002     8.2443868387483225E-034
  -1.9550000000000001E-002     1.0037202906090868E-034
  -1.9500000000000000E-002    -8.6593334019599742E-034
  -1.9449999999999999E-002    -1.9141763995270909E-033
  -1.9400000000000001E-002    -2.8209105263921292E-033
  -1.9349999999999999E-002    -3.3280634945875727E-033
  -1.9300000000000001E-002    -3.1856434475643720E-033
  -1.9250000000000000E-002    -2.2072097682012038E-033
  -1.9199999999999998E-002    -3.3421098862904976E-034
  -1.9150000000000000E-002     2.2995205928937498E-033
  -1.9099999999999999E-002     5.3187341668174740E-033
  -1.9050000000000001E-002     8.0958093972790706E-033
  -1.9000000000000000E-002     9.8037375313107957E-033
  -1.8949999999999998E-002     9.5536184542100816E-033
  -1.8900000000000000E-002     6.6198054428285851E-033
  -1.8849999999999999E-002     7.2611348243889441E-034
  -1.8800000000000001E-002    -7.6701356128108680E-033
  -1.8749999999999999E-002    -1.7191701764330244E-032
  -1.8700000000000001E-002    -2.5560996186657934E-032
  -1.8650000000000000E-002    -2.9913214825445857E-032
  -1.8599999999999998E-002    -2.7428658455923714E-032
  -1.8550000000000001E-002    -1.6211918929893274E-032
  -1.8499999999999999E-002     3.7676393118965088E-033
  -1.8450000000000001E-002     2.9953799992010475E-032
  -1.8400000000000000E-002     5.7014212381295580E-032
  -1.8349999999999998E-002     7.7439870407582473E-032
  -1.8300000000000000E-002     8.3025295419529682E-032
  -1.8249999999999999E-002     6.7071495187033005E-032
  -1.8200000000000001E-002     2.6873276332755020E-032
  -1.8149999999999999E-002    -3.4176089737023587E-032
  -1.8100000000000002E-002    -1.0561795502234299E-031
  -1.8050000000000000E-002    -1.7073335300033129E-031
  -1.7999999999999999E-002    -2.0940518732023134E-031
  -1.7950000000000001E-002    -2.0279346173775233E-031
  -1.7899999999999999E-002    -1.3898397638893301E-031
  -1.7850000000000001E-002    -1.8272536887990600E-032
  -1.7800000000000000E-002     1.4348768204573594E-031
  -1.7749999999999998E-002     3.1489388120323445E-031
  -1.7700000000000000E-002     4.5319126947386554E-031
  -1.7649999999999999E-002     5.1256296031049186E-031
  -1.7600000000000001E-002     4.5531305930868112E-031
  -1.7550000000000000E-002     2.6373516960695551E-031
  -1.7499999999999998E-002    -5.0186308469038309E-032
  -1.7450000000000000E-002    -4.4015896084822986E-031
  -1.7399999999999999E-002    -8.2834273208159041E-031
  -1.7350000000000001E-002    -1.1165122540274202E-030
  -1.7299999999999999E-002    -1.2049095362393749E-030
  -1.7250000000000001E-002    -1.0161722993136311E-030
  -1.7200000000000000E-002    -5.2000462588705265E-031
  -1.7149999999999999E-002     2.4690660260906195E-031
  -1.7100000000000001E-002     1.1715108995204823E-030
  -1.7049999999999999E-002     2.0704899924559634E-030
  -1.7000000000000001E-002     2.7146765435321981E-030
  -1.6950000000000000E-002     2.8713508577680709E-030
  -1.6899999999999998E-002     2.3597634708549479E-030
  -1.6850000000000000E-002     1.1107066694299367E-030
  -1.6799999999999999E-002    -7.8298109221891302E-031
  -1.6750000000000001E-002    -3.0402400487230821E-030
  -1.6700000000000000E-002    -5.2043328552391016E-030
  -1.6649999999999998E-002    -6.7035939144470150E-030
  -1.6600000000000000E-002    -6.9607058035207227E-030
  -1.6549999999999999E-002    -5.5381864225094340E-030
  -1.6500000000000001E-002    -2.2939436974964776E-030
  -1.6449999999999999E-002     2.4908343812672558E-030
  -1.6400000000000001E-002     8.0543683964534777E-030
  -1.6350000000000000E-002     1.3205467863643854E-029
  -1.6299999999999999E-002     1.6503815607962209E-029
  -1.6250000000000001E-002     1.6561225696538991E-029
  -1.6199999999999999E-002     1.2420019315890605E-029
  -1.6150000000000001E-002     3.9300907305275710E-030
  -1.6100000000000000E-002    -7.9770715821567400E-030
  -1.6049999999999998E-002    -2.1221016648287993E-029
  -1.6000000000000000E-002    -3.2788990105364747E-029
  -1.5949999999999999E-002    -3.9258886817492722E-029
  -1.5900000000000001E-002    -3.7574385056348618E-029
  -1.5850000000000000E-002    -2.5935745044944210E-029
  -1.5799999999999998E-002    -4.6026408793157510E-030
  -1.5750000000000000E-002     2.3624532475508995E-029
  -1.5699999999999999E-002     5.3453414570848028E-029
  -1.5650000000000001E-002     7.7800960155279920E-029
  -1.5599999999999999E-002     8.9130537379406960E-029
  -1.5550000000000001E-002     8.1240101287276549E-029
  -1.5500000000000000E-002     5.1157345952840823E-029
  -1.5449999999999998E-002     6.8929797510940749E-031
  -1.5400000000000000E-002    -6.2844734257512552E-029
  -1.5349999999999999E-002    -1.2707275088708842E-028
  -1.5300000000000001E-002    -1.7638867457050339E-028
  -1.5250000000000000E-002    -1.9500001032720182E-028
  -1.5199999999999998E-002    -1.7074510667420894E-028
  -1.5150000000000000E-002    -9.8930918693452038E-029
  -1.5099999999999999E-002     1.4732144606860540E-029
  -1.5050000000000001E-002     1.5301360406070388E-028
  -1.4999999999999999E-002     2.8855359994819258E-028
  -1.4949999999999998E-002     3.8801260277828961E-028
  -1.4900000000000000E-002     4.1863645285816954E-028
  -1.4849999999999999E-002     3.5624398203520054E-028
  -1.4800000000000001E-002     1.9307779507192038E-028
  -1.4749999999999999E-002    -5.6376102805542200E-029
  -1.4700000000000001E-002    -3.5346574076660426E-028
  -1.4650000000000000E-002    -6.3874279615907409E-028
  -1.4599999999999998E-002    -8.4110685436909180E-028
  -1.4550000000000000E-002    -8.9195646110078672E-028
  -1.4499999999999999E-002    -7.4219972009448846E-028
  -1.4450000000000001E-002    -3.7876411436929736E-028
  -1.4400000000000000E-002     1.6347205832430506E-028
  -1.4349999999999998E-002     7.9832412276277472E-028
  -1.4300000000000000E-002     1.3964526799380948E-027
  -1.4249999999999999E-002     1.8059051085120418E-027
  -1.4200000000000001E-002     1.8831463987361260E-027
  -1.4149999999999999E-002     1.5296506529911161E-027
  -1.4099999999999998E-002     7.2653700802396992E-028
  -1.4050000000000000E-002    -4.4164803914028790E-028
  -1.3999999999999999E-002    -1.7824432165376806E-027
  -1.3950000000000001E-002    -3.0160572958848043E-027
  -1.3899999999999999E-002    -3.8220560809695049E-027
  -1.3850000000000001E-002    -3.9070270366336902E-027
  -1.3800000000000000E-002    -3.0817074779174600E-027
  -1.3749999999999998E-002    -1.3310063918171160E-027
  -1.3700000000000000E-002     1.1418005947874843E-027
  -1.3649999999999999E-002     3.9134773406753064E-027
  -1.3600000000000001E-002     6.3920403108297951E-027
  -1.3550000000000000E-002     7.9204224310929709E-027
  -1.3499999999999998E-002     7.9193551294052551E-027
  -1.3450000000000000E-002     6.0437070211146345E-027
  -1.3399999999999999E-002     2.3175206530520409E-027
  -1.3350000000000001E-002    -2.7895231477361456E-027
  -1.3299999999999999E-002    -8.3754993240118823E-027
  -1.3249999999999998E-002    -1.3225875401033162E-026
  -1.3200000000000000E-002    -1.6033794860123016E-026
  -1.3149999999999998E-002    -1.5690058265931862E-026
  -1.3100000000000001E-002    -1.1588626477883568E-026
  -1.3049999999999999E-002    -3.8782984046567367E-027
  -1.3000000000000001E-002     6.4105399196514446E-027
  -1.2950000000000000E-002     1.7420460108030363E-026
  -1.2899999999999998E-002     2.6728012214087436E-026
  -1.2850000000000000E-002     3.1792992021736084E-026
  -1.2799999999999999E-002     3.0529472166819892E-026