  -4.0000000000000001E-002     0.0000000000000000     
  -3.9949999999999999E-002     0.0000000000000000     
  -3.9899999999999998E-002     0.0000000000000000     
  -3.9850000000000003E-002     0.0000000000000000     
  -3.9800000000000002E-002     0.0000000000000000     
  -3.9750000000000001E-002     0.0000000000000000     
  -3.9699999999999999E-002     0.0000000000000000     
  -3.9649999999999998E-002     0.0000000000000000     
  -3.9600000000000003E-002     0.0000000000000000     
  -3.9550000000000002E-002     0.0000000000000000     
  -3.9500000000000000E-002     0.0000000000000000     
  -3.9449999999999999E-002     0.0000000000000000     
  -3.9399999999999998E-002     0.0000000000000000     
  -3.9350000000000003E-002     0.0000000000000000     
  -3.9300000000000002E-002     0.0000000000000000     
  -3.9250000000000000E-002     0.0000000000000000     
  -3.9199999999999999E-002     0.0000000000000000     
  -3.9150000000000004E-002     0.0000000000000000     
  -3.9100000000000003E-002     0.0000000000000000     
  -3.9050000000000001E-002     0.0000000000000000     
  -3.9000000000000000E-002     0.0000000000000000     
  -3.8949999999999999E-002     0.0000000000000000     
  -3.8900000000000004E-002     0.0000000000000000     
  -3.8850000000000003E-002     0.0000000000000000     
  -3.8800000000000001E-002     0.0000000000000000     
  -3.8750000000000000E-002     0.0000000000000000     
  -3.8699999999999998E-002     0.0000000000000000     
  -3.8650000000000004E-002     0.0000000000000000     
  -3.8600000000000002E-002     0.0000000000000000     
  -3.8550000000000001E-002     0.0000000000000000     
  -3.8500000000000000E-002     0.0000000000000000     
  -3.8449999999999998E-002     0.0000000000000000     
  -3.8400000000000004E-002     0.0000000000000000     
  -3.8350000000000002E-002     0.0000000000000000     
  -3.8300000000000001E-002     0.0000000000000000     
  -3.8249999999999999E-002     0.0000000000000000     
  -3.8199999999999998E-002     0.0000000000000000     
  -3.8150000000000003E-002     0.0000000000000000     
  -3.8100000000000002E-002     0.0000000000000000     
  -3.8050000000000000E-002     0.0000000000000000     
  -3.7999999999999999E-002     0.0000000000000000     
  -3.7949999999999998E-002     0.0000000000000000     
  -3.7900000000000003E-002     0.0000000000000000     
  -3.7850000000000002E-002     0.0000000000000000     
  -3.7800000000000000E-002     0.0000000000000000     
  -3.7749999999999999E-002     0.0000000000000000     
  -3.7699999999999997E-002     0.0000000000000000     
  -3.7650000000000003E-002     0.0000000000000000     
  -3.7600000000000001E-002     0.0000000000000000     
  -3.7550000000000000E-002     0.0000000000000000     
  -3.7499999999999999E-002     0.0000000000000000     
  -3.7449999999999997E-002     0.0000000000000000     
  -3.7400000000000003E-002     0.0000000000000000     
  -3.7350000000000001E-002     0.0000000000000000     
  -3.7300000000000000E-002     0.0000000000000000     
  -3.7249999999999998E-002     0.0000000000000000     
  -3.7200000000000004E-002     0.0000000000000000     
  -3.7150000000000002E-002     0.0000000000000000     
  -3.7100000000000001E-002     0.0000000000000000     
  -3.7050000000000000E-002     0.0000000000000000     
  -3.6999999999999998E-002     0.0000000000000000     
  -3.6950000000000004E-002     0.0000000000000000     
  -3.6900000000000002E-002     0.0000000000000000     
  -3.6850000000000001E-002     0.0000000000000000     
  -3.6799999999999999E-002     0.0000000000000000     
  -3.6749999999999998E-002     0.0000000000000000     
  -3.6700000000000003E-002     0.0000000000000000     
  -3.6650000000000002E-002     0.0000000000000000     
  -3.6600000000000001E-002     0.0000000000000000     
  -3.6549999999999999E-002     0.0000000000000000     
  -3.6499999999999998E-002     0.0000000000000000     
  -3.6450000000000003E-002     0.0000000000000000     
  -3.6400000000000002E-002     0.0000000000000000     
  -3.6350000000000000E-002     0.0000000000000000     
  -3.6299999999999999E-002     0.0000000000000000     
  -3.6249999999999998E-002     0.0000000000000000     
  -3.6200000000000003E-002     0.0000000000000000     
  -3.6150000000000002E-002     0.0000000000000000     
  -3.6100000000000000E-002     0.0000000000000000     
  -3.6049999999999999E-002     0.0000000000000000     
  -3.6000000000000004E-002     0.0000000000000000     
  -3.5950000000000003E-002     0.0000000000000000     
  -3.5900000000000001E-002     0.0000000000000000     
  -3.5850000000000000E-002     0.0000000000000000     
  -3.5799999999999998E-002     0.0000000000000000     
  -3.5750000000000004E-002     0.0000000000000000     
  -3.5700000000000003E-002     0.0000000000000000     
  -3.5650000000000001E-002     0.0000000000000000     
  -3.5600000000000000E-002     0.0000000000000000     
  -3.5549999999999998E-002     0.0000000000000000     
  -3.5500000000000004E-002     0.0000000000000000     
  -3.5450000000000002E-002     0.0000000000000000     
  -3.5400000000000001E-002     0.0000000000000000     
  -3.5349999999999999E-002     0.0000000000000000     
  -3.5299999999999998E-002     0.0000000000000000     
  -3.5250000000000004E-002     0.0000000000000000     
  -3.5200000000000002E-002     0.0000000000000000     
  -3.5150000000000001E-002     0.0000000000000000     
  -3.5099999999999999E-002     0.0000000000000000     
  -3.5049999999999998E-002     0.0000000000000000     
  -3.5000000000000003E-002     0.0000000000000000     
  -3.4950000000000002E-002     0.0000000000000000     
  -3.4900000000000000E-002     0.0000000000000000     
  -3.4849999999999999E-002     0.0000000000000000     
  -3.4799999999999998E-002     0.0000000000000000     
  -3.4750000000000003E-002     0.0000000000000000     
  -3.4700000000000002E-002     0.0000000000000000     
  -3.4650000000000000E-002     0.0000000000000000     
  -3.4599999999999999E-002     0.0000000000000000     
  -3.4549999999999997E-002     0.0000000000000000     
  -3.4500000000000003E-002     0.0000000000000000     
  -3.4450000000000001E-002     0.0000000000000000     
  -3.4400000000000000E-002     0.0000000000000000     
  -3.4349999999999999E-002     0.0000000000000000     
  -3.4299999999999997E-002     0.0000000000000000     
  -3.4250000000000003E-002     0.0000000000000000     
  -3.4200000000000001E-002     0.0000000000000000     
  -3.4150000000000000E-002     0.0000000000000000     
  -3.4099999999999998E-002     0.0000000000000000     
  -3.4049999999999997E-002     0.0000000000000000     
  -3.4000000000000002E-002     0.0000000000000000     
  -3.3950000000000001E-002     0.0000000000000000     
  -3.3900000000000000E-002     0.0000000000000000     
  -3.3849999999999998E-002     0.0000000000000000     
  -3.3799999999999997E-002     0.0000000000000000     
  -3.3750000000000002E-002     0.0000000000000000     
  -3.3700000000000001E-002     0.0000000000000000     
  -3.3649999999999999E-002     0.0000000000000000     
  -3.3599999999999998E-002     0.0000000000000000     
  -3.3550000000000003E-002     0.0000000000000000     
  -3.3500000000000002E-002     0.0000000000000000     
  -3.3450000000000001E-002     0.0000000000000000     
  -3.3399999999999999E-002     0.0000000000000000     
  -3.3349999999999998E-002     0.0000000000000000     
  -3.3300000000000003E-002     0.0000000000000000     
  -3.3250000000000002E-002     0.0000000000000000     
  -3.3200000000000000E-002     0.0000000000000000     
  -3.3149999999999999E-002     0.0000000000000000     
  -3.3099999999999997E-002     0.0000000000000000     
  -3.3050000000000003E-002     1.5531801478241291E-040
  -3.3000000000000002E-002     1.5531801478241291E-040
  -3.2950000000000000E-002     0.0000000000000000     
  -3.2899999999999999E-002    -2.2131532648846308E-040
  -3.2850000000000004E-002     0.0000000000000000     
  -3.2800000000000003E-002     8.7873815526568281E-040
  -3.2750000000000001E-002     1.8411619034123743E-039
  -3.2700000000000000E-002     1.2182876828889814E-039
  -3.2649999999999998E-002    -3.8924197908508034E-039
  -3.2600000000000004E-002    -1.2832111591177951E-038
  -3.2550000000000003E-002    -2.2589955237098638E-038
  -3.2500000000000001E-002    -1.0305158528323202E-038
  -3.2450000000000000E-002     5.8290109315046236E-038
  -3.2399999999999998E-002     1.7768901673169227E-037
  -3.2350000000000004E-002     3.1314280120000939E-037
  -3.2300000000000002E-002     3.7669343316187553E-037
  -3.2250000000000001E-002     2.4962619696794845E-037
  -3.2199999999999999E-002    -1.6876081829941745E-037
  -3.2149999999999998E-002    -8.7039698792764022E-037
  -3.2100000000000004E-002    -1.6492685543713529E-036
  -3.2050000000000002E-002    -2.0796391784542869E-036
  -3.2000000000000001E-002    -1.6079543277384999E-036
  -3.1949999999999999E-002     1.9110605561988899E-037
  -3.1899999999999998E-002     3.2587775344793262E-036
  -3.1850000000000003E-002     6.7421620667882983E-036
  -3.1800000000000002E-002     8.9471783318886080E-036
  -3.1750000000000000E-002     7.7570493305401086E-036
  -3.1699999999999999E-002     1.5718011146917910E-036
  -3.1649999999999998E-002    -9.4537185646714349E-036
  -3.1600000000000003E-002    -2.2406973371685909E-035
  -3.1550000000000002E-002    -3.1575581145514381E-035
  -3.1500000000000000E-002    -2.9963554674183326E-035
  -3.1449999999999999E-002    -1.2406627742727813E-035
  -3.1399999999999997E-002     2.0584516283813927E-035
  -3.1350000000000003E-002     6.0048264282559446E-035
  -3.1300000000000001E-002     8.9045418965772033E-035
  -3.1250000000000000E-002     8.7873082099983153E-035
  -3.1199999999999999E-002     4.3546295869716453E-035
  -3.1150000000000001E-002    -3.9695280659161913E-035
  -3.1100000000000003E-002    -1.3445561402039944E-034
  -3.1050000000000001E-002    -1.9471845796652012E-034
  -3.1000000000000000E-002    -1.7365527949931195E-034
  -3.0949999999999998E-002    -5.1039940974404262E-035
  -3.0900000000000000E-002     1.4119229863517722E-034
  -3.0850000000000002E-002     3.1183659835510480E-034
  -3.0800000000000001E-002     3.3624486622254047E-034
  -3.0750000000000000E-002     1.1749188132676094E-034
  -3.0699999999999998E-002    -3.3496016259277406E-034
  -3.0650000000000000E-002    -8.4765490117112046E-034
  -3.0600000000000002E-002    -1.0941380575041780E-033
  -3.0550000000000001E-002    -7.0754219428616399E-034
  -3.0499999999999999E-002     5.1459170132885120E-034
  -3.0449999999999998E-002     2.3827723496005682E-033
  -3.0400000000000000E-002     4.1870504924337617E-033
  -3.0350000000000002E-002     4.7988175108053425E-033
  -3.0300000000000001E-002     3.0727612536240986E-033
  -3.0249999999999999E-002    -1.5154235967614355E-033
  -3.0200000000000001E-002    -8.2278937040504539E-033
  -3.0150000000000000E-002    -1.4775669289972699E-032
  -3.0100000000000002E-002    -1.7723301285636844E-032
  -3.0050000000000000E-002    -1.3716270032047847E-032
  -2.9999999999999999E-002    -1.2702713280755713E-033
  -2.9950000000000001E-002     1.7574582938492924E-032
  -2.9899999999999999E-002     3.6692638566037883E-032
  -2.9850000000000002E-002     4.7218017326607108E-032
  -2.9800000000000000E-002     4.0945225393854505E-032
  -2.9749999999999999E-002     1.4871314543261030E-032
  -2.9700000000000001E-002    -2.5092179980647461E-032
  -2.9650000000000003E-002    -6.3669733736703428E-032
  -2.9600000000000001E-002    -8.0787135020439226E-032
  -2.9550000000000000E-002    -6.0916177574615757E-032
  -2.9499999999999998E-002    -4.1468976569285331E-033
  -2.9450000000000000E-002     6.6540371963434929E-032
  -2.9400000000000003E-002     1.0792405577841364E-031
  -2.9350000000000001E-002     7.2693529822552104E-032
  -2.9300000000000000E-002    -6.3122974992385199E-032
  -2.9249999999999998E-002    -2.7118752153993109E-031
  -2.9200000000000000E-002    -4.5603206408859841E-031
  -2.9150000000000002E-002    -4.7052823699622100E-031
  -2.9100000000000001E-002    -1.6978435727843458E-031
  -2.9049999999999999E-002     5.0473820792113887E-031
  -2.8999999999999998E-002     1.4393085440740612E-030
  -2.8950000000000000E-002     2.3041696846357935E-030
  -2.8900000000000002E-002     2.5967053226979510E-030
  -2.8850000000000001E-002     1.7951191343873502E-030
  -2.8799999999999999E-002    -3.9652845185411014E-031
  -2.8749999999999998E-002    -3.7843008108608365E-030
  -2.8700000000000000E-002    -7.5165661436462802E-030
  -2.8650000000000002E-002    -1.0135253655568487E-029
  -2.8600000000000000E-002    -9.9233291259351329E-030
  -2.8549999999999999E-002    -5.5256039862903819E-030
  -2.8500000000000001E-002     3.3106267236594406E-030
  -2.8450000000000000E-002     1.5143216253275105E-029
  -2.8400000000000002E-002     2.6700947993160807E-029
  -2.8350000000000000E-002     3.3441352036290774E-029
  -2.8299999999999999E-002     3.0831538557401331E-029
  -2.8250000000000001E-002     1.6096460143000729E-029
  -2.8200000000000003E-002    -1.0098077408916973E-029
  -2.8150000000000001E-002    -4.2708179941337528E-029
  -2.8100000000000000E-002    -7.2718135719655888E-029
  -2.8049999999999999E-002    -8.9139520284515315E-029
  -2.8000000000000001E-002    -8.2304394424778871E-029
  -2.7950000000000003E-002    -4.7574596338106832E-029
  -2.7900000000000001E-002     1.1794931249491979E-029
  -2.7850000000000000E-002     8.3884054336832533E-029
  -2.7799999999999998E-002     1.5016290125615891E-028
  -2.7750000000000000E-002     1.9019949549030159E-028
  -2.7700000000000002E-002     1.8780770124448468E-028
  -2.7650000000000001E-002     1.3665722256787273E-028
  -2.7600000000000000E-002     4.3242137441598274E-029
  -2.7549999999999998E-002    -7.4195078468124712E-029
  -2.7500000000000000E-002    -1.9078391652461632E-028
  -2.7450000000000002E-002    -2.8253813620662327E-028
  -2.7400000000000001E-002    -3.3336596872557681E-028
  -2.7349999999999999E-002    -3.3848775036893924E-028
  -2.7299999999999998E-002    -3.0234549469107541E-028
  -2.7250000000000000E-002    -2.3143267701652606E-028
  -2.7200000000000002E-002    -1.2521484093406187E-028
  -2.7150000000000001E-002     2.9693098490671484E-029
  -2.7099999999999999E-002     2.5682515007746301E-028
  -2.7049999999999998E-002     5.7578705251470153E-028
  -2.7000000000000000E-002     9.7863251585525617E-028
  -2.6950000000000002E-002     1.4041669508934391E-027
  -2.6900000000000000E-002     1.7221848914271856E-027
  -2.6849999999999999E-002     1.7408096158647176E-027
  -2.6800000000000001E-002     1.2462695043951498E-027
  -2.6749999999999999E-002     7.5392532770759429E-029
  -2.6700000000000002E-002    -1.7915795782190533E-027
  -2.6650000000000000E-002    -4.1432228780653950E-027
  -2.6599999999999999E-002    -6.4884483628751559E-027
  -2.6550000000000001E-002    -8.0820336717443678E-027
  -2.6500000000000003E-002    -8.0480499546355516E-027
  -2.6450000000000001E-002    -5.6026064035020937E-027
  -2.6400000000000000E-002    -3.4610671459428437E-028
  -2.6349999999999998E-002     7.4383548419525060E-027
  -2.6300000000000000E-002     1.6570849318623726E-026
  -2.6250000000000002E-002     2.4945341875034137E-026
  -2.6200000000000001E-002     2.9770178570087193E-026
  -2.6150000000000000E-002     2.8116154286091498E-026
  -2.6099999999999998E-002     1.7732735323894815E-026
  -2.6050000000000000E-002    -2.0035214832110945E-027
  -2.6000000000000002E-002    -2.9239586049944288E-026
  -2.5950000000000001E-002    -5.9191115686806889E-026
  -2.5899999999999999E-002    -8.4377905000025880E-026
  -2.5849999999999998E-002    -9.5754536551515798E-026
  -2.5800000000000000E-002    -8.4749516717996393E-026
  -2.5750000000000002E-002    -4.5952502040695619E-026
  -2.5700000000000001E-002     2.0111787344379281E-026
  -2.5649999999999999E-002     1.0492740706683225E-025
  -2.5599999999999998E-002     1.9153606548421813E-025
  -2.5550000000000000E-002     2.5641268885908817E-025
  -2.5500000000000002E-002     2.7393543395405239E-025
  -2.5450000000000000E-002     2.2301680906619487E-025
  -2.5399999999999999E-002     9.4653097710075500E-026
  -2.5349999999999998E-002    -1.0154579454499511E-025
  -2.5300000000000000E-002    -3.3410448129208189E-025
  -2.5250000000000002E-002    -5.5168860866430095E-025
  -2.5200000000000000E-002    -6.9137835873756178E-025
  -2.5149999999999999E-002    -6.9264811430184358E-025
  -2.5100000000000001E-002    -5.1464802721248663E-025
  -2.5049999999999999E-002    -1.5275885915245651E-025
  -2.5000000000000001E-002     3.5044814412420042E-025
  -2.4950000000000000E-002     9.0431942168218162E-025
  -2.4899999999999999E-002     1.3819612315705180E-024
  -2.4850000000000001E-002     1.6444887842854637E-024
  -2.4800000000000003E-002     1.5738226975114118E-024
  -2.4750000000000001E-002     1.1070467688576582E-024
  -2.4700000000000000E-002     2.6361148433195472E-025
  -2.4649999999999998E-002    -8.4290327675701946E-025
  -2.4600000000000000E-002    -2.0139746664347250E-024
  -2.4550000000000002E-002    -2.9971140001843985E-024
  -2.4500000000000001E-002    -3.5340465746215448E-024
  -2.4450000000000000E-002    -3.4167751956977358E-024
  -2.4399999999999998E-002    -2.5395797447803175E-024
  -2.4350000000000000E-002    -9.3533231759773677E-025
  -2.4299999999999999E-002     1.2122424795207161E-024
  -2.4250000000000001E-002     3.5835051731024970E-024
  -2.4199999999999999E-002     5.7626048689983821E-024
  -2.4150000000000001E-002     7.2953008178305613E-024
  -2.4100000000000000E-002     7.7565437593227120E-024
  -2.4049999999999998E-002     6.8203131291586244E-024
  -2.4000000000000000E-002     4.3264572183103859E-024
  -2.3949999999999999E-002     3.4093282911696754E-025
  -2.3900000000000001E-002    -4.7951175111001251E-024
  -2.3850000000000000E-002    -1.0436413377180408E-023
  -2.3800000000000002E-002    -1.5640455202180072E-023
  -2.3750000000000000E-002    -1.9231908182512905E-023
  -2.3699999999999999E-002    -1.9946142986456738E-023
  -2.3650000000000001E-002    -1.6663257907943058E-023
  -2.3599999999999999E-002    -8.7208425472448069E-024
  -2.3550000000000001E-002     3.7399980902510135E-024
  -2.3500000000000000E-002     1.9477560396087779E-023
  -2.3449999999999999E-002     3.6010855618876436E-023
  -2.3400000000000001E-002     4.9752253177722528E-023
  -2.3349999999999999E-002     5.6491871485697636E-023
  -2.3300000000000001E-002     5.2241948401624421E-023
  -2.3250000000000000E-002     3.4344718650008539E-023
  -2.3199999999999998E-002     2.6321188329355819E-024
  -2.3150000000000000E-002    -3.9668134875241689E-023
  -2.3099999999999999E-002    -8.5621233091075125E-023
  -2.3050000000000001E-002    -1.2515697313378258E-022
  -2.3000000000000000E-002    -1.4665852396973141E-022
  -2.2950000000000002E-002    -1.3946054641783873E-022
  -2.2900000000000000E-002    -9.6863849993338740E-023
  -2.2849999999999999E-002    -1.9014070485674689E-023
  -2.2800000000000001E-002     8.5160292890813128E-023
  -2.2749999999999999E-002     1.9772859477406811E-022
  -2.2700000000000001E-002     2.9378798595898621E-022
  -2.2650000000000000E-002     3.4581745916045718E-022
  -2.2599999999999999E-002     3.2983663720766630E-022
  -2.2550000000000001E-002     2.3224646902782703E-022
  -2.2499999999999999E-002     5.5775199592048391E-023
  -2.2450000000000001E-002    -1.7719452448735701E-022
  -2.2400000000000000E-002    -4.2537347914121308E-022
  -2.2349999999999998E-002    -6.3413900927396938E-022
  -2.2300000000000000E-002    -7.4563023807960922E-022
  -2.2249999999999999E-002    -7.1186204965714031E-022
  -2.2200000000000001E-002    -5.0828343711272883E-022
  -2.2150000000000000E-002    -1.4456976173066088E-022
  -2.2100000000000002E-002     3.3052197258765712E-022
  -2.2050000000000000E-002     8.3256903704074811E-022
  -2.1999999999999999E-002     1.2539382655103961E-021
  -2.1950000000000001E-002     1.4840138169793383E-021
  -2.1899999999999999E-002     1.4338491009043359E-021
  -2.1850000000000001E-002     1.0602773882604302E-021
  -2.1800000000000000E-002     3.8381992650779722E-022
  -2.1749999999999999E-002    -5.0472001765724745E-022
  -2.1700000000000001E-002    -1.4522670187745034E-021
  -2.1649999999999999E-002    -2.2665211652886065E-021
  -2.1600000000000001E-002    -2.7511463047340581E-021
  -2.1550000000000000E-002    -2.7471011484249278E-021
  -2.1499999999999998E-002    -2.1720070532634202E-021
  -2.1450000000000000E-002    -1.0488883932750667E-021
  -2.1399999999999999E-002     4.8308134014589539E-022
  -2.1350000000000001E-002     2.1802049602606478E-021
  -2.1299999999999999E-002     3.7284518135737677E-021
  -2.1250000000000002E-002     4.7958770058929898E-021
  -2.1200000000000000E-002     5.0949606989586429E-021
  -2.1149999999999999E-002     4.4439939679438286E-021
  -2.1100000000000001E-002     2.8159975003517812E-021
  -2.1049999999999999E-002     3.6508887948639067E-022
  -2.1000000000000001E-002    -2.5765679801141127E-021
  -2.0950000000000000E-002    -5.5336841086919340E-021
  -2.0899999999999998E-002    -7.9521952734990115E-021
  -2.0850000000000000E-002    -9.2859561037104426E-021
  -2.0799999999999999E-002    -9.0947633276161325E-021
  -2.0750000000000001E-002    -7.1399245895167607E-021
  -2.0700000000000000E-002    -3.4620295104202181E-021
  -2.0649999999999998E-002     1.5744414072208284E-021
  -2.0600000000000000E-002     7.2833443007185396E-021
  -2.0549999999999999E-002     1.2715711617582976E-020
  -2.0500000000000001E-002     1.6778459730847087E-020
  -2.0449999999999999E-002     1.8406990020135600E-020
  -2.0400000000000001E-002     1.6774091815078407E-020
  -2.0350000000000000E-002     1.1505185780275889E-020
  -2.0299999999999999E-002     2.8591565038177684E-021
  -2.0250000000000001E-002    -8.1717062553151448E-021
  -2.0199999999999999E-002    -1.9886375684713258E-020
  -2.0150000000000001E-002    -3.0054203644308044E-020
  -2.0100000000000000E-002    -3.6252663676446343E-020
  -2.0049999999999998E-002    -3.6332966292782961E-020
  -2.0000000000000000E-002    -2.8944231835425101E-020
  -1.9949999999999999E-002    -1.4013693502941525E-020
  -1.9900000000000001E-002     6.9377140353523807E-021
  -1.9850000000000000E-002     3.0758542762152796E-020
  -1.9799999999999998E-002     5.2986905742421864E-020
  -1.9750000000000000E-002     6.8540753655441206E-020
  -1.9699999999999999E-002     7.2706908466953636E-020
  -1.9650000000000001E-002     6.2269247799182134E-020
  -1.9599999999999999E-002     3.6545547306212518E-020
  -1.9550000000000001E-002    -1.9283406004610449E-021
  -1.9500000000000000E-002    -4.7303061043114504E-020
  -1.9449999999999999E-002    -9.1056481831835763E-020
  -1.9400000000000001E-002    -1.2337467058379678E-019
  -1.9349999999999999E-002    -1.3510247379730808E-019
  -1.9300000000000001E-002    -1.1992374674822957E-019
  -1.9250000000000000E-002    -7.6309640679932487E-020
  -1.9199999999999998E-002    -8.7393480688398644E-021
  -1.9150000000000000E-002     7.2224407010593397E-020
  -1.9099999999999999E-002     1.5123050304242045E-019
  -1.9050000000000001E-002     2.1074925613502289E-019
  -1.9000000000000000E-002     2.3462357042589370E-019
  -1.8949999999999998E-002     2.1190446682687971E-019
  -1.8900000000000000E-002     1.4013778032629631E-019
  -1.8849999999999999E-002     2.7260872947265740E-020
  -1.8800000000000001E-002    -1.0854345135746230E-019
  -1.8749999999999999E-002    -2.4131750465985457E-019
  -1.8700000000000001E-002    -3.4191224532287930E-019
  -1.8650000000000000E-002    -3.8395575810977969E-019
  -1.8599999999999998E-002    -3.5005697203755335E-019
  -1.8550000000000001E-002    -2.3688131805133547E-019
  -1.8499999999999999E-002    -5.7806526543136049E-020
  -1.8450000000000001E-002     1.5775510554332552E-019
  -1.8400000000000000E-002     3.6864648609909929E-019
  -1.8349999999999998E-002     5.2937009047329748E-019
  -1.8300000000000000E-002     5.9935413823907145E-019
  -1.8249999999999999E-002     5.5226945450372784E-019
  -1.8200000000000001E-002     3.8337152223936983E-019
  -1.8149999999999999E-002     1.1305812840053927E-019
  -1.8100000000000002E-002    -2.1453118778111775E-019
  -1.8050000000000000E-002    -5.3809205976550571E-019
  -1.7999999999999999E-002    -7.9003791149662545E-019
  -1.7950000000000001E-002    -9.0982296433239903E-019
  -1.7899999999999999E-002    -8.5716414366369159E-019
  -1.7850000000000001E-002    -6.2242840996441504E-019
  -1.7800000000000000E-002    -2.3181805781144641E-019
  -1.7749999999999998E-002     2.5413942038999780E-019
  -1.7700000000000000E-002     7.4905871608480012E-019
  -1.7649999999999999E-002     1.1550348685610443E-018
  -1.7600000000000001E-002     1.3805577212027894E-018
  -1.7550000000000000E-002     1.3588872816679969E-018
  -1.7499999999999998E-002     1.0634909552373278E-018
  -1.7450000000000000E-002     5.1746966085050157E-019
  -1.7399999999999999E-002    -2.0522733190783737E-019
  -1.7350000000000001E-002    -9.8772476227058155E-019
  -1.7299999999999999E-002    -1.6867286851934942E-018
  -1.7250000000000001E-002    -2.1556169911994879E-018
  -1.7200000000000000E-002    -2.2708784806011832E-018
  -1.7149999999999999E-002    -1.9578385749223439E-018
  -1.7100000000000001E-002    -1.2112703880500808E-018
  -1.7049999999999999E-002    -1.0674056235380351E-019
  -1.7000000000000001E-002     1.2005972484805855E-018
  -1.6950000000000000E-002     2.4915880908755799E-018
  -1.6899999999999998E-002     3.5128507942564447E-018
  -1.6850000000000000E-002     4.0181481132579950E-018
  -1.6799999999999999E-002     3.8162082882161955E-018
  -1.6750000000000001E-002     2.8175724044034942E-018
  -1.6700000000000000E-002     1.0714950604312297E-018
  -1.6649999999999998E-002    -1.2163047599343948E-018
  -1.6600000000000000E-002    -3.6927578718433859E-018
  -1.6549999999999999E-002    -5.8976592240182691E-018
  -1.6500000000000001E-002    -7.3339410325731137E-018
  -1.6449999999999999E-002    -7.5604890113521074E-018
  -1.6400000000000001E-002    -6.2934557710474461E-018
  -1.6350000000000000E-002    -3.4968629037326119E-018
  -1.6299999999999999E-002     5.5893234755430802E-019
  -1.6250000000000001E-002     5.2903797959579827E-018
  -1.6199999999999999E-002     9.8581870617145953E-018
  -1.6150000000000001E-002     1.3290611231258113E-017
  -1.6100000000000000E-002     1.4660095266432864E-017
  -1.6049999999999998E-002     1.3286352998629977E-017
  -1.6000000000000000E-002     8.9275952274855690E-018
  -1.5949999999999999E-002     1.9162838830579872E-018
  -1.5900000000000001E-002    -6.8008289119440930E-018
  -1.5850000000000000E-002    -1.5745548637170566E-017
  -1.5799999999999998E-002    -2.3119518644918687E-017
  -1.5750000000000000E-002    -2.7122410380677428E-017
  -1.5699999999999999E-002    -2.6328285153647183E-017
  -1.5650000000000001E-002    -2.0049802892775970E-017
  -1.5599999999999999E-002    -8.6103458749405482E-018
  -1.5550000000000001E-002     6.5498499782147948E-018
  -1.5500000000000000E-002     2.2984039072143574E-017
  -1.5449999999999998E-002     3.7578032306247012E-017
  -1.5400000000000000E-002     4.7083221167211296E-017
  -1.5349999999999999E-002     4.8761935493441074E-017
  -1.5300000000000001E-002     4.1027217118397467E-017
  -1.5250000000000000E-002     2.3942640685740687E-017
  -1.5199999999999998E-002    -5.4217491187175991E-019
  -1.5150000000000000E-002    -2.8706904108455750E-017
  -1.5099999999999999E-002    -5.5552036329763564E-017
  -1.5050000000000001E-002    -7.5617246481511373E-017
  -1.4999999999999999E-002    -8.4003526655955849E-017
  -1.4949999999999998E-002    -7.7418633898185964E-017
  -1.4900000000000000E-002    -5.5038549509557008E-017
  -1.4849999999999999E-002    -1.8990330329117038E-017
  -1.4800000000000001E-002     2.5684658500740210E-017
  -1.4749999999999999E-002     7.1640194216086787E-017
  -1.4700000000000001E-002     1.1035264886658795E-016
  -1.4650000000000000E-002     1.3360452106420473E-016
  -1.4599999999999998E-002     1.3507618323222894E-016
  -1.4550000000000000E-002     1.1175333529510289E-016
  -1.4499999999999999E-002     6.4864970857654840E-017
  -1.4450000000000001E-002     1.2987539429483426E-019
  -1.4400000000000000E-002    -7.2800614913697268E-017
  -1.4349999999999998E-002    -1.4167645051725079E-016
  -1.4300000000000000E-002    -1.9358778852977297E-016
  -1.4249999999999999E-002    -2.1721419218125214E-016
  -1.4200000000000001E-002    -2.0501054181469405E-016
  -1.4149999999999999E-002    -1.5493870250607418E-016
  -1.4099999999999998E-002    -7.1402722880300834E-017
  -1.4050000000000000E-002     3.4843451233251870E-017
  -1.3999999999999999E-002     1.4789046546877452E-016
  -1.3950000000000001E-002     2.4886643519169132E-016
  -1.3899999999999999E-002     3.1885103099255845E-016
  -1.3850000000000001E-002     3.4209349338527363E-016
  -1.3800000000000000E-002     3.0903283154211603E-016
  -1.3749999999999998E-002     2.1860511243780483E-016
  -1.3700000000000000E-002     7.9388562394656064E-017
  -1.3649999999999999E-002    -9.0723973237426802E-017
  -1.3600000000000001E-002    -2.6643485598581989E-016
  -1.3550000000000000E-002    -4.1840590150808904E-016
  -1.3499999999999998E-002    -5.1770264097952901E-016
  -1.3450000000000000E-002    -5.4072534523441619E-016
  -1.3399999999999999E-002    -4.7387701846093530E-016
  -1.3350000000000001E-002    -3.1715946440824591E-016
  -1.3299999999999999E-002    -8.5950624770521701E-017
  -1.3249999999999998E-002     1.8959151829064044E-016
  -1.3200000000000000E-002     4.6773347190196176E-016
  -1.3149999999999998E-002     7.0080681652892793E-016
  -1.3100000000000001E-002     8.4266347954887129E-016
  -1.3049999999999999E-002     8.5691080561303240E-016
  -1.3000000000000001E-002     7.2459333996362306E-016
  -1.2950000000000000E-002     4.4987766162517924E-016
  -1.2899999999999998E-002     6.2434098418021705E-017
  -1.2850000000000000E-002    -3.8439274349181280E-016
  -1.2799999999999999E-002    -8.1990018260838627E-016