  -4.0000000000000001E-002     0.0000000000000000     
  -3.9949999999999999E-002     0.0000000000000000     
  -3.9899999999999998E-002     0.0000000000000000     
  -3.9850000000000003E-002     0.0000000000000000     
  -3.9800000000000002E-002     0.0000000000000000     
  -3.9750000000000001E-002     0.0000000000000000     
  -3.9699999999999999E-002     0.0000000000000000     
  -3.9649999999999998E-002     0.0000000000000000     
  -3.9600000000000003E-002     0.0000000000000000     
  -3.9550000000000002E-002     0.0000000000000000     
  -3.9500000000000000E-002     0.0000000000000000     
  -3.9449999999999999E-002     0.0000000000000000     
  -3.9399999999999998E-002     0.0000000000000000     
  -3.9350000000000003E-002     0.0000000000000000     
  -3.9300000000000002E-002     0.0000000000000000     
  -3.9250000000000000E-002     0.0000000000000000     
  -3.9199999999999999E-002     0.0000000000000000     
  -3.9150000000000004E-002     0.0000000000000000     
  -3.9100000000000003E-002     0.0000000000000000     
  -3.9050000000000001E-002     0.0000000000000000     
  -3.9000000000000000E-002     0.0000000000000000     
  -3.8949999999999999E-002     0.0000000000000000     
  -3.8900000000000004E-002     0.0000000000000000     
  -3.8850000000000003E-002     0.0000000000000000     
  -3.8800000000000001E-002     0.0000000000000000     
  -3.8750000000000000E-002     0.0000000000000000     
  -3.8699999999999998E-002     0.0000000000000000     
  -3.8650000000000004E-002     0.0000000000000000     
  -3.8600000000000002E-002     0.0000000000000000     
  -3.8550000000000001E-002     0.0000000000000000     
  -3.8500000000000000E-002     0.0000000000000000     
  -3.8449999999999998E-002     0.0000000000000000     
  -3.8400000000000004E-002     0.0000000000000000     
  -3.8350000000000002E-002     0.0000000000000000     
  -3.8300000000000001E-002     0.0000000000000000     
  -3.8249999999999999E-002     0.0000000000000000     
  -3.8199999999999998E-002     0.0000000000000000     
  -3.8150000000000003E-002     0.0000000000000000     
  -3.8100000000000002E-002     0.0000000000000000     
  -3.8050000000000000E-002     0.0000000000000000     
  -3.7999999999999999E-002     0.0000000000000000     
  -3.7949999999999998E-002     0.0000000000000000     
  -3.7900000000000003E-002     0.0000000000000000     
  -3.7850000000000002E-002     0.0000000000000000     
  -3.7800000000000000E-002     0.0000000000000000     
  -3.7749999999999999E-002     0.0000000000000000     
  -3.7699999999999997E-002     5.2931100575116708E-039
  -3.7650000000000003E-002     1.1539843403681649E-038
  -3.7600000000000001E-002     1.3988843250330676E-038
  -3.7550000000000000E-002    -1.8316463678880523E-038
  -3.7499999999999999E-002    -1.1439976419292795E-037
  -3.7449999999999997E-002    -2.9053950382809057E-037
  -3.7400000000000003E-002    -4.4375696197435017E-037
  -3.7350000000000001E-002    -3.3353533521004730E-037
  -3.7300000000000000E-002     5.1265432940055873E-037
  -3.7249999999999998E-002     2.7103161322443914E-036
  -3.7200000000000004E-002     6.5120953016724461E-036
  -3.7150000000000002E-002     1.0752768703237099E-035
  -3.7100000000000001E-002     1.1359730411837477E-035
  -3.7050000000000000E-002     3.6706012876348781E-037
  -3.6999999999999998E-002    -3.2533177055515877E-035
  -3.6950000000000004E-002    -9.3119311993190976E-035
  -3.6900000000000002E-002    -1.6873699304391202E-034
  -3.6850000000000001E-002    -2.1027835972171197E-034
  -3.6799999999999999E-002    -1.2180630195608981E-034
  -3.6749999999999998E-002     2.2013096395485466E-034
  -3.6700000000000003E-002     8.9211485567474776E-034
  -3.6650000000000002E-002     1.7859483798353162E-033
  -3.6600000000000001E-002     2.4475290684376315E-033
  -3.6549999999999999E-002     2.0092843107328784E-033
  -3.6499999999999998E-002    -5.9950896386114533E-034
  -3.6450000000000003E-002    -5.9973438371128499E-033
  -3.6400000000000002E-002    -1.3276309821280436E-032
  -3.6350000000000000E-002    -1.8944917149194342E-032
  -3.6299999999999999E-002    -1.6835496752255065E-032
  -3.6249999999999998E-002    -1.9122939400754269E-034
  -3.6200000000000003E-002     3.3363997856403126E-032
  -3.6150000000000002E-002     7.5012469999754617E-032
  -3.6100000000000000E-002     9.9956996710914717E-032
  -3.6049999999999999E-002     7.1165528258132987E-032
  -3.6000000000000004E-002    -4.1991425590294437E-032
  -3.5950000000000003E-002    -2.2976330041793861E-031
  -3.5900000000000001E-002    -4.0520428626845427E-031
  -3.5850000000000000E-002    -3.9352305550581932E-031
  -3.5799999999999998E-002     1.3675873851539398E-032
  -3.5750000000000004E-002     9.1320224192325781E-031
  -3.5700000000000003E-002     2.0764265724596675E-030
  -3.5650000000000001E-002     2.7705173936547041E-030
  -3.5600000000000000E-002     1.8007621595722774E-030
  -3.5549999999999998E-002    -2.0227520111694619E-030
  -3.5500000000000004E-002    -8.9177646130602213E-030
  -3.5450000000000002E-002    -1.6899788930265836E-029
  -3.5400000000000001E-002    -2.0968211403350112E-029
  -3.5349999999999999E-002    -1.3738966005530500E-029
  -3.5299999999999998E-002     1.1531589061660014E-029
  -3.5250000000000004E-002     5.5449637927124535E-029
  -3.5200000000000002E-002     1.0614118940992853E-028
  -3.5150000000000001E-002     1.3576317457505693E-028
  -3.5099999999999999E-002     1.0483984325190769E-028
  -3.5049999999999998E-002    -2.1708557692468974E-029
  -3.5000000000000003E-002    -2.4767636395800728E-028
  -3.4950000000000002E-002    -5.1665640665213165E-028
  -3.4900000000000000E-002    -6.9845200707180679E-028
  -3.4849999999999999E-002    -6.1188275728644271E-028
  -3.4799999999999998E-002    -9.7761453432180393E-029
  -3.4750000000000003E-002     8.6600494579242794E-028
  -3.4700000000000002E-002     2.0481548587810255E-027
  -3.4650000000000000E-002     2.9184180211421663E-027
  -3.4599999999999999E-002     2.7515920400913260E-027
  -3.4549999999999997E-002     9.2316385391474773E-028
  -3.4500000000000003E-002    -2.6510875948049090E-027
  -3.4450000000000001E-002    -7.0999225265965866E-027
  -3.4400000000000000E-002    -1.0472384873211938E-026
  -3.4349999999999999E-002    -1.0170424413145842E-026
  -3.4299999999999997E-002    -4.0415133120425286E-027
  -3.4250000000000003E-002     8.0951371773679021E-027
  -3.4200000000000001E-002     2.3116011412245451E-026
  -3.4150000000000000E-002     3.4355855166458731E-026
  -3.4099999999999998E-002     3.3272048697034611E-026
  -3.4049999999999997E-002     1.3187496384957335E-026
  -3.4000000000000002E-002    -2.5820313760384739E-026
  -3.3950000000000001E-002    -7.3029936059362819E-026
  -3.3900000000000000E-002    -1.0699618650447790E-025
  -3.3849999999999998E-002    -1.0150126583841980E-025
  -3.3799999999999997E-002    -3.7552426979591103E-026
  -3.3750000000000002E-002     8.2004440317120467E-026
  -3.3700000000000001E-002     2.2206687053238098E-025
  -3.3649999999999999E-002     3.1720366614586076E-025
  -3.3599999999999998E-002     2.9151077302041739E-025
  -3.3550000000000003E-002     9.4886239757475514E-026
  -3.3500000000000002E-002    -2.5576514900467361E-025
  -3.3450000000000001E-002    -6.5063752400055074E-025
  -3.3399999999999999E-002    -8.9866552392258159E-025
  -3.3349999999999998E-002    -7.8960731811343737E-025
  -3.3300000000000003E-002    -1.9833074442845884E-025
  -3.3250000000000002E-002     8.0411321102853684E-025
  -3.3200000000000000E-002     1.8893257741753226E-024
  -3.3149999999999999E-002     2.5179200990077136E-024
  -3.3099999999999997E-002     2.1213242055734261E-024
  -3.3050000000000003E-002     3.8812978923527707E-025
  -3.3000000000000002E-002    -2.4459934800867407E-024
  -3.2950000000000000E-002    -5.4550686506296464E-024
  -3.2899999999999999E-002    -7.1694872940433736E-024
  -3.2850000000000004E-002    -6.0708467645671050E-024
  -3.2800000000000003E-002    -1.3401268702169322E-024
  -3.2750000000000001E-002     6.4072859626535787E-024
  -3.2700000000000000E-002     1.4776098344350876E-023
  -3.2649999999999998E-002     1.9977286509258815E-023
  -3.2600000000000004E-002     1.8067072298535482E-023
  -3.2550000000000003E-002     6.7868461928190140E-024
  -3.2500000000000001E-002    -1.2647038198099966E-023
  -3.2450000000000000E-002    -3.4691447963902253E-023
  -3.2399999999999998E-002    -5.0344210110812244E-023
  -3.2350000000000004E-002    -4.9984075749631616E-023
  -3.2300000000000002E-002    -2.7583795229850283E-023
  -3.2250000000000001E-002     1.5182013908711936E-023
  -3.2199999999999999E-002     6.6902685854542610E-023
  -3.2149999999999998E-002     1.0816375324057586E-022
  -3.2100000000000004E-002     1.1755873522005298E-022
  -3.2050000000000002E-002     8.0660892629625108E-023
  -3.2000000000000001E-002    -1.1997640752072798E-024
  -3.1949999999999999E-002    -1.0647315398554339E-022
  -3.1899999999999998E-002    -1.9670526124301604E-022
  -3.1850000000000003E-002    -2.2860521183247697E-022
  -3.1800000000000002E-002    -1.7207941866023977E-022
  -3.1750000000000000E-002    -2.7794971496638876E-023
  -3.1699999999999999E-002     1.6396988760500848E-022
  -3.1649999999999998E-002     3.2995884757776247E-022
  -3.1600000000000003E-002     3.8774536394976056E-022
  -3.1550000000000002E-002     2.8097342180119451E-022
  -3.1500000000000000E-002     1.3241887558199558E-023
  -3.1449999999999999E-002    -3.3543358779367628E-022
  -3.1399999999999997E-002    -6.2249817599130204E-022
  -3.1350000000000003E-002    -6.8994424702037944E-022
  -3.1300000000000001E-002    -4.3309512313451502E-022
  -3.1250000000000000E-002     1.3382723727094548E-022
  -3.1199999999999999E-002     8.4628958048560840E-022
  -3.1150000000000001E-002     1.4168784279597693E-021
  -3.1100000000000003E-002     1.5270260752229500E-021
  -3.1050000000000001E-002     9.6119670582132484E-022
  -3.1000000000000000E-002    -2.6368433594697028E-022
  -3.0949999999999998E-002    -1.8323881959517682E-021
  -3.0900000000000000E-002    -3.1767963254740178E-021
  -3.0850000000000002E-002    -3.6449563472852525E-021
  -3.0800000000000001E-002    -2.7556920928188930E-021
  -3.0750000000000000E-002    -4.5301656856866538E-022
  -3.0699999999999998E-002     2.7487242201490473E-021
  -3.0650000000000000E-002     5.8204961385767106E-021
  -3.0600000000000002E-002     7.5049923049442232E-021
  -3.0550000000000001E-002     6.7734819394288852E-021
  -3.0499999999999999E-002     3.3050071545648991E-021
  -3.0449999999999998E-002    -2.2071230244013241E-021
  -3.0400000000000000E-002    -8.0925757555938963E-021
  -3.0350000000000002E-002    -1.2153657800898868E-020
  -3.0300000000000001E-002    -1.2439601045521536E-020
  -3.0249999999999999E-002    -8.1000790937476842E-021
  -3.0200000000000001E-002     1.9789095684965035E-023
  -3.0150000000000000E-002     9.3531727146607985E-021
  -3.0100000000000002E-002     1.6299691696091214E-020
  -3.0050000000000000E-002     1.7508515354786144E-020
  -2.9999999999999999E-002     1.1358274434816248E-020
  -2.9950000000000001E-002    -9.4300047067046761E-022
  -2.9899999999999999E-002    -1.5194986212031153E-020
  -2.9850000000000002E-002    -2.5279305629495599E-020
  -2.9800000000000000E-002    -2.5326930335717696E-020
  -2.9749999999999999E-002    -1.2342968164561400E-020
  -2.9700000000000001E-002     1.1695193593997611E-020
  -2.9650000000000003E-002     3.9278264954831056E-020
  -2.9600000000000001E-002     5.8976289274907472E-020
  -2.9550000000000000E-002     5.9124431736596862E-020
  -2.9499999999999998E-002     3.2621616694548736E-020
  -2.9450000000000000E-002    -1.8806276666089398E-020
  -2.9400000000000003E-002    -8.2720353180680226E-020
  -2.9350000000000001E-002    -1.3781273200052412E-019
  -2.9300000000000000E-002    -1.5970145287687262E-019
  -2.9249999999999998E-002    -1.2941988489827107E-019
  -2.9200000000000000E-002    -4.2019495759275873E-020
  -2.9150000000000002E-002     8.7926673268711900E-020
  -2.9100000000000001E-002     2.2668420794237575E-019
  -2.9049999999999999E-002     3.2876415501416605E-019
  -2.8999999999999998E-002     3.5021304553265517E-019
  -2.8950000000000000E-002     2.6423788711892227E-019
  -2.8900000000000002E-002     7.4071063900803358E-020
  -2.8850000000000001E-002    -1.8200035475977719E-019
  -2.8799999999999999E-002    -4.3665838160350789E-019
  -2.8749999999999998E-002    -6.1050623607609511E-019
  -2.8700000000000000E-002    -6.3596308859693560E-019
  -2.8650000000000002E-002    -4.8104651757030579E-019
  -2.8600000000000000E-002    -1.6494092078307583E-019
  -2.8549999999999999E-002     2.4108973177946494E-019
  -2.8500000000000001E-002     6.2972049806240115E-019
  -2.8450000000000000E-002     8.8725525777309464E-019
  -2.8400000000000002E-002     9.2861875003748429E-019
  -2.8350000000000000E-002     7.2647956504385543E-019
  -2.8299999999999999E-002     3.2413396398805237E-019
  -2.8250000000000001E-002    -1.7367358713215961E-019
  -2.8200000000000003E-002    -6.3071439343627019E-019
  -2.8150000000000001E-002    -9.2137070853802336E-019
  -2.8100000000000000E-002    -9.7118931527148002E-019
  -2.8049999999999999E-002    -7.8164630563011878E-019
  -2.8000000000000001E-002    -4.2941416107807206E-019
  -2.7950000000000003E-002    -3.8932257509039837E-020
  -2.7900000000000001E-002     2.6318411136102888E-019
  -2.7850000000000000E-002     3.9590906663120318E-019
  -2.7799999999999998E-002     3.5561884278347230E-019
  -2.7750000000000000E-002     2.1837112465616061E-019
  -2.7700000000000002E-002     1.0926519852005994E-019
  -2.7650000000000001E-002     1.4807547566617331E-019
  -2.7600000000000000E-002     3.9072671238878703E-019
  -2.7549999999999998E-002     7.9011223048968171E-019
  -2.7500000000000000E-002     1.1949827566659638E-018
  -2.7450000000000002E-002     1.3929585035897759E-018
  -2.7400000000000001E-002     1.1871028931769992E-018
  -2.7349999999999999E-002     4.8091628122878133E-019
  -2.7299999999999998E-002    -6.6011136204803069E-019
  -2.7250000000000000E-002    -1.9975007826569883E-018
  -2.7200000000000002E-002    -3.1707217488998743E-018
  -2.7150000000000001E-002    -3.7994823791603581E-018
  -2.7099999999999999E-002    -3.6062970285143617E-018
  -2.7049999999999998E-002    -2.5173125936721409E-018
  -2.7000000000000000E-002    -7.0326255193132002E-019
  -2.6950000000000002E-002     1.4586939433082064E-018
  -2.6900000000000000E-002     3.4933427071301754E-018
  -2.6849999999999999E-002     4.9697192210039068E-018
  -2.6800000000000001E-002     5.6253937359010516E-018
  -2.6749999999999999E-002     5.4245062184890401E-018
  -2.6700000000000002E-002     4.5251260842609515E-018
  -2.6650000000000000E-002     3.1682772998597234E-018
  -2.6599999999999999E-002     1.5370349463781705E-018
  -2.6550000000000001E-002    -3.4584255687798539E-019
  -2.6500000000000003E-002    -2.6204457447369781E-018
  -2.6450000000000001E-002    -5.4672088958731107E-018
  -2.6400000000000000E-002    -8.8894196867928796E-018
  -2.6349999999999998E-002    -1.2485395860920456E-017
  -2.6300000000000000E-002    -1.5325926005089529E-017
  -2.6250000000000002E-002    -1.6041175666015296E-017
  -2.6200000000000001E-002    -1.3162526626991675E-017
  -2.6150000000000000E-002    -5.6712691661606935E-018
  -2.6099999999999998E-002     6.3938758559179119E-018
  -2.6050000000000000E-002     2.1487186676120012E-017
  -2.6000000000000002E-002     3.6485702084244085E-017
  -2.5950000000000001E-002     4.7143331923235434E-017
  -2.5899999999999999E-002     4.9067300892137892E-017
  -2.5849999999999998E-002     3.9033356465234704E-017
  -2.5800000000000000E-002     1.6297125524913674E-017
  -2.5750000000000002E-002    -1.6519343266206080E-017
  -2.5700000000000001E-002    -5.3342374927311865E-017
  -2.5649999999999999E-002    -8.5564588634288666E-017
  -2.5599999999999998E-002    -1.0389582349000623E-016
  -2.5550000000000000E-002    -1.0078066314897022E-016
  -2.5500000000000002E-002    -7.2781829442365282E-017
  -2.5450000000000000E-002    -2.2241769933546493E-017
  -2.5399999999999999E-002     4.2360870507956476E-017
  -2.5349999999999998E-002     1.0765220137806610E-016
  -2.5300000000000000E-002     1.5808108636423480E-016
  -2.5250000000000002E-002     1.7956751214100183E-016
  -2.5200000000000000E-002     1.6321664664316835E-016
  -2.5149999999999999E-002     1.0812635552559784E-016
  -2.5100000000000001E-002     2.2467168090900492E-017
  -2.5049999999999999E-002    -7.7597931866682457E-017
  -2.5000000000000001E-002    -1.7105499304844021E-016
  -2.4950000000000000E-002    -2.3660226012958788E-016
  -2.4899999999999999E-002    -2.5759422889306563E-016
  -2.4850000000000001E-002    -2.2617723313100339E-016
  -2.4800000000000003E-002    -1.4557700116389045E-016
  -2.4750000000000001E-002    -2.9917350548507249E-017
  -2.4700000000000000E-002     9.8466995022646322E-017
  -2.4649999999999998E-002     2.1366072009287528E-016
  -2.4600000000000000E-002     2.9170913627506415E-016
  -2.4550000000000002E-002     3.1581797176588732E-016
  -2.4500000000000001E-002     2.8003510599255436E-016
  -2.4450000000000000E-002     1.9058656616173039E-016
  -2.4399999999999998E-002     6.4574241656561563E-017
  -2.4350000000000000E-002    -7.3665914029774468E-017
  -2.4299999999999999E-002    -1.9773025504795536E-016
  -2.4250000000000001E-002    -2.8469188356153428E-016
  -2.4199999999999999E-002    -3.1979992288262170E-016
  -2.4150000000000001E-002    -2.9929814092836202E-016
  -2.4100000000000000E-002    -2.3073815429777645E-016
  -2.4049999999999998E-002    -1.3071955318365739E-016
  -2.4000000000000000E-002    -2.0580933461179150E-017
  -2.3949999999999999E-002     7.8930899381447181E-017
  -2.3900000000000001E-002     1.5269035744864403E-016
  -2.3850000000000000E-002     1.9458662259625137E-016
  -2.3800000000000002E-002     2.0828027591110472E-016
  -2.3750000000000000E-002     2.0494699248662896E-016
  -2.3699999999999999E-002     1.9845658622032985E-016
  -2.3650000000000001E-002     1.9925762215889461E-016
  -2.3599999999999999E-002     2.0883327380153144E-016
  -2.3550000000000001E-002     2.1673305636283661E-016
  -2.3500000000000000E-002     2.0174062204716375E-016
  -2.3449999999999999E-002     1.3770545017353663E-016
  -2.3400000000000001E-002     3.1446476288075152E-018
  -2.3349999999999999E-002    -2.0773427878541605E-016
  -2.3300000000000001E-002    -4.7597728673376362E-016
  -2.3250000000000000E-002    -7.5437026517582568E-016
  -2.3199999999999998E-002    -9.7214955580145498E-016
  -2.3150000000000000E-002    -1.0486701673362097E-015
  -2.3099999999999999E-002    -9.1415074720981588E-016
  -2.3050000000000001E-002    -5.3302009911206656E-016
  -2.3000000000000000E-002     7.6409630595097843E-017
  -2.2950000000000002E-002     8.3248900480127216E-016
  -2.2900000000000000E-002     1.5959378101846929E-015
  -2.2849999999999999E-002     2.1923017772941063E-015
  -2.2800000000000001E-002     2.4483558802421426E-015
  -2.2749999999999999E-002     2.2352922097666057E-015
  -2.2700000000000001E-002     1.5085229207862464E-015
  -2.2650000000000000E-002     3.3324394535886579E-016
  -2.2599999999999999E-002    -1.1128965105042397E-015
  -2.2550000000000001E-002    -2.5638867536111849E-015
  -2.2499999999999999E-002    -3.7136984265762867E-015
  -2.2450000000000001E-002    -4.2800033183683772E-015
  -2.2400000000000000E-002    -4.0696834331143933E-015
  -2.2349999999999998E-002    -3.0308953392552826E-015
  -2.2300000000000000E-002    -1.2785167913841013E-015
  -2.2249999999999999E-002     9.1483027323794572E-016
  -2.2200000000000001E-002     3.1624128092968192E-015
  -2.2150000000000000E-002     5.0340520632041584E-015
  -2.2100000000000002E-002     6.1398948998794837E-015
  -2.2050000000000000E-002     6.2101577291429069E-015
  -2.1999999999999999E-002     5.1543521661847952E-015
  -2.1950000000000001E-002     3.0876279409854833E-015
  -2.1899999999999999E-002     3.1861278902852189E-016
  -2.1850000000000001E-002    -2.6993441586393398E-015
  -2.1800000000000000E-002    -5.4447424113449256E-015
  -2.1749999999999999E-002    -7.4186627024914665E-015
  -2.1700000000000001E-002    -8.2338908034866721E-015
  -2.1649999999999999E-002    -7.6872063840403464E-015
  -2.1600000000000001E-002    -5.8024798739487060E-015
  -2.1550000000000000E-002    -2.8367244533598139E-015
  -2.1499999999999998E-002     7.5332117294066832E-016
  -2.1450000000000000E-002     4.3805814416404635E-015
  -2.1399999999999999E-002     7.4237490120978495E-015
  -2.1350000000000001E-002     9.3357122648581809E-015
  -2.1299999999999999E-002     9.7461479791854557E-015
  -2.1250000000000002E-002     8.5388298017300508E-015
  -2.1200000000000000E-002     5.8863083906965337E-015
  -2.1149999999999999E-002     2.2306501536447252E-015
  -2.1100000000000001E-002    -1.7912346777531503E-015
  -2.1049999999999999E-002    -5.4672002663958414E-015
  -2.1000000000000001E-002    -8.1520687174727754E-015
  -2.0950000000000000E-002    -9.4020103276782520E-015
  -2.0899999999999998E-002    -9.0689074946227712E-015
  -2.0850000000000000E-002    -7.3291598478441411E-015
  -2.0799999999999999E-002    -4.6357762330399651E-015
  -2.0750000000000001E-002    -1.6019496480719056E-015
  -2.0700000000000000E-002     1.1562879886064292E-015
  -2.0649999999999998E-002     3.1770969841725007E-015
  -2.0600000000000000E-002     4.2651994597495146E-015
  -2.0549999999999999E-002     4.5251798410803520E-015
  -2.0500000000000001E-002     4.3023325565544175E-015
  -2.0449999999999999E-002     4.0450877499485426E-015
  -2.0400000000000001E-002     4.1286776355317612E-015
  -2.0350000000000000E-002     4.6953379577635050E-015
  -2.0299999999999999E-002     5.5660994945546071E-015
  -2.0250000000000001E-002     6.2613294524071953E-015
  -2.0199999999999999E-002     6.1354686739081523E-015
  -2.0150000000000001E-002     4.5948675708046650E-015
  -2.0100000000000000E-002     1.3368213698358980E-015
  -2.0049999999999998E-002    -3.4660665527511664E-015
  -2.0000000000000000E-002    -9.1037406578017592E-015
  -1.9949999999999999E-002    -1.4425640384770665E-014
  -1.9900000000000001E-002    -1.8088447479954874E-014
  -1.9850000000000000E-002    -1.8899298639630422E-014
  -1.9799999999999998E-002    -1.6164541461500076E-014
  -1.9750000000000000E-002    -9.9440606408391847E-015
  -1.9699999999999999E-002    -1.1298084083934615E-015
  -1.9650000000000001E-002     8.6884452997324888E-015
  -1.9599999999999999E-002     1.7549416787504316E-014
  -1.9550000000000001E-002     2.3563076344974943E-014
  -1.9500000000000000E-002     2.5358817984305862E-014
  -1.9449999999999999E-002     2.2423107710267182E-014
  -1.9400000000000001E-002     1.5238406758668172E-014
  -1.9349999999999999E-002     5.1878834193012148E-015
  -1.9300000000000001E-002    -5.7471298973171819E-015
  -1.9250000000000000E-002    -1.5416539229586415E-014
  -1.9199999999999998E-002    -2.1948205681857476E-014
  -1.9150000000000000E-002    -2.4105491376010287E-014
  -1.9099999999999999E-002    -2.1482057066616927E-014
  -1.9050000000000001E-002    -1.4511189147615654E-014
  -1.9000000000000000E-002    -4.3188434849542618E-015
  -1.8949999999999998E-002     7.5144072362285312E-015
  -1.8900000000000000E-002     1.9207565565249917E-014
  -1.8849999999999999E-002     2.8991823371676717E-014
  -1.8800000000000001E-002     3.5259329357008804E-014
  -1.8749999999999999E-002     3.6663701153635787E-014
  -1.8700000000000001E-002     3.2212239845977019E-014
  -1.8650000000000000E-002     2.1389714520259155E-014
  -1.8599999999999998E-002     4.3281338949204083E-015
  -1.8550000000000001E-002    -1.8003919433075859E-014
  -1.8499999999999999E-002    -4.3658410041016535E-014
  -1.8450000000000001E-002    -6.9697042566710365E-014
  -1.8400000000000000E-002    -9.2385680315323449E-014
  -1.8349999999999998E-002    -1.0762090493330390E-013
  -1.8300000000000000E-002    -1.1154768033971920E-013
  -1.8249999999999999E-002    -1.0125864392844401E-013
  -1.8200000000000001E-002    -7.5420939502067567E-014
  -1.8149999999999999E-002    -3.4674500091576442E-014
  -1.8100000000000002E-002     1.8308036698530488E-014
  -1.8050000000000000E-002     7.9125202630940020E-014
  -1.7999999999999999E-002     1.4224233189554640E-013
  -1.7950000000000001E-002     2.0172627698266914E-013
  -1.7899999999999999E-002     2.5193118924713545E-013
  -1.7850000000000001E-002     2.8797112304055294E-013
  -1.7800000000000000E-002     3.0589256489282549E-013
  -1.7749999999999998E-002     3.0256964520445750E-013
  -1.7700000000000000E-002     2.7544948644904165E-013
  -1.7649999999999999E-002     2.2233988213840730E-013
  -1.7600000000000001E-002     1.4143225152128458E-013
  -1.7550000000000000E-002     3.1684754386047991E-014
  -1.7499999999999998E-002    -1.0643048408272601E-013
  -1.7450000000000000E-002    -2.6994638538349332E-013
  -1.7399999999999999E-002    -4.5242795624454048E-013
  -1.7350000000000001E-002    -6.4329669459646023E-013
  -1.7299999999999999E-002    -8.2771454407154779E-013
  -1.7250000000000001E-002    -9.8718750604362402E-013
  -1.7200000000000000E-002    -1.1009079108116212E-012
  -1.7149999999999999E-002    -1.1477040442140457E-012
  -1.7100000000000001E-002    -1.1083569843926520E-012
  -1.7049999999999999E-002    -9.6798964395769119E-013
  -1.7000000000000001E-002    -7.1824853663616904E-013
  -1.6950000000000000E-002    -3.5906187606066199E-013
  -1.6899999999999998E-002     1.0016166342476468E-013
  -1.6850000000000000E-002     6.3995505087969285E-013
  -1.6799999999999999E-002     1.2308567204209969E-012
  -1.6750000000000001E-002     1.8341251328649823E-012
  -1.6700000000000000E-002     2.4031264481291853E-012
  -1.6649999999999998E-002     2.8854172758462143E-012
  -1.6600000000000000E-002     3.2255195937144556E-012
  -1.6549999999999999E-002     3.3683266800411744E-012
  -1.6500000000000001E-002     3.2629863272330067E-012
  -1.6449999999999999E-002     2.8670296268758097E-012
  -1.6400000000000001E-002     2.1504651194248219E-012
  -1.6350000000000000E-002     1.0995771410713555E-012
  -1.6299999999999999E-002    -2.7974982687924408E-013
  -1.6250000000000001E-002    -1.9592204246480896E-012
  -1.6199999999999999E-002    -3.8857553144398071E-012
  -1.6150000000000001E-002    -5.9794085175154729E-012
  -1.6100000000000000E-002    -8.1314638468081899E-012
  -1.6049999999999998E-002    -1.0202761982609192E-011
  -1.6000000000000000E-002    -1.2022524195057450E-011
  -1.5949999999999999E-002    -1.3388189336804999E-011
  -1.5900000000000001E-002    -1.4066917718449544E-011
  -1.5850000000000000E-002    -1.3799392440874282E-011
  -1.5799999999999998E-002    -1.2306308150376169E-011
  -1.5750000000000000E-002    -9.2975219629129538E-012
  -1.5699999999999999E-002    -4.4832914477985545E-012
  -1.5650000000000001E-002     2.4134412956037780E-012
  -1.5599999999999999E-002     1.1645119035191685E-011
  -1.5550000000000001E-002     2.3429387402837597E-011
  -1.5500000000000000E-002     3.7941814088494813E-011
  -1.5449999999999998E-002     5.5312162593019942E-011
  -1.5400000000000000E-002     7.5624099570114437E-011
  -1.5349999999999999E-002     9.8917809581951741E-011
  -1.5300000000000001E-002     1.2519432415598832E-010
  -1.5250000000000000E-002     1.5442057247394959E-010
  -1.5199999999999998E-002     1.8653423547232643E-010
  -1.5150000000000000E-002     2.2144790034104403E-010
  -1.5099999999999999E-002     2.5905279715039222E-010
  -1.5050000000000001E-002     2.9922249364017228E-010
  -1.4999999999999999E-002     3.4181730661046322E-010
  -1.4949999999999998E-002     3.8669001347453507E-010
  -1.4900000000000000E-002     4.3369267957348704E-010
  -1.4849999999999999E-002     4.8268456859593590E-010
  -1.4800000000000001E-002     5.3354021119728345E-010
  -1.4749999999999999E-002     5.8615608511218358E-010
  -1.4700000000000001E-002     6.4045526091713150E-010
  -1.4650000000000000E-002     6.9638905629871920E-010
  -1.4599999999999998E-002     7.5393605378617923E-010
  -1.4550000000000000E-002     8.1309802108540725E-010
  -1.4499999999999999E-002     8.7389487150350649E-010
  -1.4450000000000001E-002     9.3635806696771857E-010
  -1.4400000000000000E-002     1.0005252897969720E-009
  -1.4349999999999998E-002     1.0664351474111732E-009
  -1.4300000000000000E-002     1.1341233565429689E-009
  -1.4249999999999999E-002     1.2036202369893910E-009
  -1.4200000000000001E-002     1.2749486853700776E-009
  -1.4149999999999999E-002     1.3481242414161873E-009
  -1.4099999999999998E-002     1.4231559843432236E-009
  -1.4050000000000000E-002     1.5000497872318869E-009
  -1.3999999999999999E-002     1.5788137630068975E-009
  -1.3950000000000001E-002     1.6594660971973839E-009
  -1.3899999999999999E-002     1.7420441892441798E-009
  -1.3850000000000001E-002     1.8266132797671562E-009
  -1.3800000000000000E-002     1.9132726634387083E-009
  -1.3749999999999998E-002     2.0021571234486864E-009
  -1.3700000000000000E-002     2.0934330870361864E-009
  -1.3649999999999999E-002     2.1872877387857510E-009
  -1.3600000000000001E-002     2.2839127772156718E-009
  -1.3550000000000000E-002     2.3834864517937404E-009
  -1.3499999999999998E-002     2.4861567728951155E-009
  -1.3450000000000000E-002     2.5920297621849980E-009
  -1.3399999999999999E-002     2.7011647878306786E-009
  -1.3350000000000001E-002     2.8135805552950452E-009
  -1.3299999999999999E-002     2.9292669185577950E-009
  -1.3249999999999998E-002     3.0482024986622416E-009
  -1.3200000000000000E-002     3.1703728370794142E-009
  -1.3149999999999998E-002     3.2957833589069458E-009
  -1.3100000000000001E-002     3.4244682858959019E-009
  -1.3049999999999999E-002     3.5564884823568554E-009
  -1.3000000000000001E-002     3.6919254335324345E-009
  -1.2950000000000000E-002     3.8308727256443018E-009
  -1.2899999999999998E-002     3.9734256510247952E-009
  -1.2850000000000000E-002     4.1196789621425606E-009
  -1.2799999999999999E-002     4.2697282200393194E-009