  -4.0000000000000001E-002     0.0000000000000000     
  -3.9949999999999999E-002     0.0000000000000000     
  -3.9899999999999998E-002     0.0000000000000000     
  -3.9850000000000003E-002     0.0000000000000000     
  -3.9800000000000002E-002     0.0000000000000000     
  -3.9750000000000001E-002     0.0000000000000000     
  -3.9699999999999999E-002     0.0000000000000000     
  -3.9649999999999998E-002     0.0000000000000000     
  -3.9600000000000003E-002     0.0000000000000000     
  -3.9550000000000002E-002     0.0000000000000000     
  -3.9500000000000000E-002     0.0000000000000000     
  -3.9449999999999999E-002     0.0000000000000000     
  -3.9399999999999998E-002     6.9086557764198971E-034
  -3.9350000000000003E-002     1.1559960881943840E-032
  -3.9300000000000002E-002     9.2815121263976999E-032
  -3.9250000000000000E-002     4.5831887960701367E-031
  -3.9199999999999999E-002     1.4227680819066180E-030
  -3.9150000000000004E-002     1.9250637657498354E-030
  -3.9100000000000003E-002    -6.8108489943114890E-030
  -3.9050000000000001E-002    -5.6671131718546338E-029
  -3.9000000000000000E-002    -2.2091984243880000E-028
  -3.8949999999999999E-002    -5.9124424367201319E-028
  -3.8900000000000004E-002    -1.1015943978157310E-027
  -3.8850000000000003E-002    -1.0530919984966671E-027
  -3.8800000000000001E-002     1.6187627509088981E-027
  -3.8750000000000000E-002     1.0628593340448844E-026
  -3.8699999999999998E-002     2.9327155366341102E-026
  -3.8650000000000004E-002     5.3799604697999014E-026
  -3.8600000000000002E-002     6.0412546785923576E-026
  -3.8550000000000001E-002    -5.4073479542914428E-027
  -3.8500000000000000E-002    -2.1927763527169690E-025
  -3.8449999999999998E-002    -6.1635599078016992E-025
  -3.8400000000000004E-002    -1.0597745836179743E-024
  -3.8350000000000002E-002    -1.0807650281139856E-024
  -3.8300000000000001E-002     1.5355432034323991E-025
  -3.8249999999999999E-002     3.4744872249789711E-024
  -3.8199999999999998E-002     8.7048783071908632E-024
  -3.8150000000000003E-002     1.3127715307439475E-023
  -3.8100000000000002E-002     1.0332845474744581E-023
  -3.8050000000000000E-002    -8.6938493254062150E-024
  -3.7999999999999999E-002    -5.0025722792484826E-023
  -3.7949999999999998E-002    -1.0604783553617508E-022
  -3.7900000000000003E-002    -1.4294633299820235E-022
  -3.7850000000000002E-002    -9.6129287504992538E-023
  -3.7800000000000000E-002     1.1182538137435260E-022
  -3.7749999999999999E-002     5.1868476700231125E-022
  -3.7699999999999997E-002     1.0398067709487033E-021
  -3.7650000000000003E-002     1.3901755383969111E-021
  -3.7600000000000001E-002     1.0807642867788813E-021
  -3.7550000000000000E-002    -4.2793864739035395E-022
  -3.7499999999999999E-002    -3.3720098936247855E-021
  -3.7449999999999997E-002    -7.1982592069255870E-021
  -3.7400000000000003E-002    -1.0178846481248150E-020
  -3.7350000000000001E-002    -9.4970115745908969E-021
  -3.7300000000000000E-002    -2.1624805207120022E-021
  -3.7249999999999998E-002     1.3164307577860117E-020
  -3.7200000000000004E-002     3.3922644599272818E-020
  -3.7150000000000002E-002     5.2132041840439791E-020
  -3.7100000000000001E-002     5.5156544593681448E-020
  -3.7050000000000000E-002     2.9959186811088461E-020
  -3.6999999999999998E-002    -2.9339909154518076E-020
  -3.6950000000000004E-002    -1.1302651637804444E-019
  -3.6900000000000002E-002    -1.9109031401503691E-019
  -3.6850000000000001E-002    -2.1756514009767037E-019
  -3.6799999999999999E-002    -1.4702258192974066E-019
  -3.6749999999999998E-002     3.9155286297310627E-020
  -3.6700000000000003E-002     3.0642733570426261E-019
  -3.6650000000000002E-002     5.5609612715885252E-019
  -3.6600000000000001E-002     6.4479066355245739E-019
  -3.6549999999999999E-002     4.4006516249973693E-019
  -3.6499999999999998E-002    -1.0021860119987526E-019
  -3.6450000000000003E-002    -8.5730463948704621E-019
  -3.6400000000000002E-002    -1.5340908006829578E-018
  -3.6350000000000000E-002    -1.7272929382004897E-018
  -3.6299999999999999E-002    -1.0931641458146667E-018
  -3.6249999999999998E-002     4.3962949862537732E-019
  -3.6200000000000003E-002     2.5041224860194459E-018
  -3.6150000000000002E-002     4.2872864649096342E-018
  -3.6100000000000000E-002     4.7545725929268190E-018
  -3.6049999999999999E-002     3.0872901825509900E-018
  -3.6000000000000004E-002    -8.0919076992112041E-019
  -3.5950000000000003E-002    -5.9643960044202997E-018
  -3.5900000000000001E-002    -1.0413250057679930E-017
  -3.5850000000000000E-002    -1.1800587666905278E-017
  -3.5799999999999998E-002    -8.4083646865906122E-018
  -3.5750000000000004E-002    -2.3190701047305676E-019
  -3.5700000000000003E-002     1.0429904522259081E-017
  -3.5650000000000001E-002     1.9344316993950798E-017
  -3.5600000000000000E-002     2.1817556910417487E-017
  -3.5549999999999998E-002     1.4894881038153622E-017
  -3.5500000000000004E-002    -5.8951970679259275E-019
  -3.5450000000000002E-002    -1.9207249567369732E-017
  -3.5400000000000001E-002    -3.2197789299527103E-017
  -3.5349999999999999E-002    -3.0841614911216680E-017
  -3.5299999999999998E-002    -1.0938275262432667E-017
  -3.5250000000000004E-002     2.3491583620214754E-017
  -3.5200000000000002E-002     5.9370141328700834E-017
  -3.5150000000000001E-002     7.7923881031844913E-017
  -3.5099999999999999E-002     6.1940287657327928E-017
  -3.5049999999999998E-002     4.6546620162034376E-018
  -3.5000000000000003E-002    -8.3436017202174941E-017
  -3.4950000000000002E-002    -1.7362284089262218E-016
  -3.4900000000000000E-002    -2.2603347396972336E-016
  -3.4849999999999999E-002    -2.0374702806284839E-016
  -3.4799999999999998E-002    -8.9629475350919175E-017
  -3.4750000000000003E-002     1.0074461653247964E-016
  -3.4700000000000002E-002     3.1660019527663254E-016
  -3.4650000000000000E-002     4.8342312254325818E-016
  -3.4599999999999999E-002     5.2674537004936551E-016
  -3.4549999999999997E-002     4.0112039472787822E-016
  -3.4500000000000003E-002     1.1359324557751515E-016
  -3.4450000000000001E-002    -2.6878291707097116E-016
  -3.4400000000000000E-002    -6.3322480418649369E-016
  -3.4349999999999999E-002    -8.5536133523547371E-016
  -3.4299999999999997E-002    -8.4308028392109519E-016
  -3.4250000000000003E-002    -5.7452340346956763E-016
  -3.4200000000000001E-002    -1.1470850207203400E-016
  -3.4150000000000000E-002     3.9854337572530647E-016
  -3.4099999999999998E-002     7.9796429611267733E-016
  -3.4049999999999997E-002     9.4645805484949437E-016
  -3.4000000000000002E-002     7.9191145522075190E-016
  -3.3950000000000001E-002     3.9522939928756184E-016
  -3.3900000000000000E-002    -8.2866602706223548E-017
  -3.3849999999999998E-002    -4.3664716313232154E-016
  -3.3799999999999997E-002    -4.9600338082840054E-016
  -3.3750000000000002E-002    -2.0474659696746785E-016
  -3.3700000000000001E-002     3.3497415192119919E-016
  -3.3649999999999999E-002     8.7560639043304944E-016
  -3.3599999999999998E-002     1.0997399557054101E-015
  -3.3550000000000003E-002     7.4041539045700068E-016
  -3.3500000000000002E-002    -2.9190843785981458E-016
  -3.3450000000000001E-002    -1.8233558443480590E-015
  -3.3399999999999999E-002    -3.4128187904305275E-015
  -3.3349999999999998E-002    -4.4488945184834965E-015
  -3.3300000000000003E-002    -4.3327617560887333E-015
  -3.3250000000000002E-002    -2.6983192229573458E-015
  -3.3200000000000000E-002     4.0133688267008048E-016
  -3.3149999999999999E-002     4.4127467181086409E-015
  -3.3099999999999997E-002     8.3533815773492575E-015
  -3.3050000000000003E-002     1.1037629471538833E-014
  -3.3000000000000002E-002     1.1407222858093967E-014
  -3.2950000000000000E-002     8.8734510072522425E-015
  -3.2899999999999999E-002     3.5624352183881706E-015
  -3.2850000000000004E-002    -3.6259705680036430E-015
  -3.2800000000000003E-002    -1.1183126713616596E-014
  -3.2750000000000001E-002    -1.7348222375663529E-014
  -3.2700000000000000E-002    -2.0559687642770450E-014
  -3.2649999999999998E-002    -1.9868378631299306E-014
  -3.2600000000000004E-002    -1.5186387929756625E-014
  -3.2550000000000003E-002    -7.2959776895145676E-015
  -3.2500000000000001E-002     2.3785692692347407E-015
  -3.2450000000000000E-002     1.2154343163412030E-014
  -3.2399999999999998E-002     2.0495711365427808E-014
  -3.2350000000000004E-002     2.6307457206914979E-014
  -3.2300000000000002E-002     2.9028285071805291E-014
  -3.2250000000000001E-002     2.8520603815471985E-014
  -3.2199999999999999E-002     2.4838671829062416E-014
  -3.2149999999999998E-002     1.8012354106293487E-014
  -3.2100000000000004E-002     7.9829471804382633E-015
  -3.2050000000000002E-002    -5.2338552480955812E-015
  -3.2000000000000001E-002    -2.1186538602968813E-014
  -3.1949999999999999E-002    -3.8565189310852654E-014
  -3.1899999999999998E-002    -5.4925315060353176E-014
  -3.1850000000000003E-002    -6.6762992097808101E-014
  -3.1800000000000002E-002    -7.0059276424090005E-014
  -3.1750000000000000E-002    -6.1259419177402517E-014
  -3.1699999999999999E-002    -3.8478984930438047E-014
  -3.1649999999999998E-002    -2.5940782204478514E-015
  -3.1600000000000003E-002     4.2169082975562559E-014
  -3.1550000000000002E-002     8.8449811315442006E-014
  -3.1500000000000000E-002     1.2688366018646656E-013
  -3.1449999999999999E-002     1.4799645953106403E-013
  -3.1399999999999997E-002     1.4445776298258955E-013
  -3.1350000000000003E-002     1.1312866256541886E-013
  -3.1300000000000001E-002     5.6330669092140264E-014
  -3.1250000000000000E-002    -1.8075541797268823E-014
  -3.1199999999999999E-002    -9.7915638823268409E-014
  -3.1150000000000001E-002    -1.6899593233469708E-013
  -3.1100000000000003E-002    -2.1793310923747404E-013
  -3.1050000000000001E-002    -2.3483495445855929E-013
  -3.1000000000000000E-002    -2.1519306064064194E-013
  -3.0949999999999998E-002    -1.6057959187143544E-013
  -3.0900000000000000E-002    -7.8083833623581032E-014
  -3.0850000000000002E-002     2.1230926275146605E-014
  -3.0800000000000001E-002     1.2433676391798831E-013
  -3.0750000000000000E-002     2.1815594761490936E-013
  -3.0699999999999998E-002     2.9096769583893034E-013
  -3.0650000000000000E-002     3.3317440936796412E-013
  -3.0600000000000002E-002     3.3759567685215516E-013
  -3.0550000000000001E-002     2.9966162068840935E-013
  -3.0499999999999999E-002     2.1789048633667798E-013
  -3.0449999999999998E-002     9.4845560793037083E-014
  -3.0400000000000000E-002    -6.1567981139299520E-014
  -3.0350000000000002E-002    -2.3695887007752894E-013
  -3.0300000000000001E-002    -4.1017417919850973E-013
  -3.0249999999999999E-002    -5.5458690264664544E-013
  -3.0200000000000001E-002    -6.4133085670309327E-013
  -3.0150000000000000E-002    -6.4432122956432317E-013
  -3.0100000000000002E-002    -5.4626787963946879E-013
  -3.0050000000000000E-002    -3.4436346116555405E-013
  -2.9999999999999999E-002    -5.4101384642293270E-014
  -2.9950000000000001E-002     2.9013550050333379E-013
  -2.9899999999999999E-002     6.3847021201576323E-013
  -2.9850000000000002E-002     9.3276935341059683E-013
  -2.9800000000000000E-002     1.1166136951251590E-012
  -2.9749999999999999E-002     1.1461179267180626E-012
  -2.9700000000000001E-002     9.9935165234819039E-013
  -2.9650000000000003E-002     6.8228547761887535E-013
  -2.9600000000000001E-002     2.2985767995144242E-013
  -2.9550000000000000E-002    -2.9822796101405896E-013
  -2.9499999999999998E-002    -8.2626960986774251E-013
  -2.9450000000000000E-002    -1.2742876875998955E-012
  -2.9400000000000003E-002    -1.5705728775856756E-012
  -2.9350000000000001E-002    -1.6629012593173687E-012
  -2.9300000000000000E-002    -1.5266657036888393E-012
  -2.9249999999999998E-002    -1.1688460927072683E-012
  -2.9200000000000000E-002    -6.2751441429892855E-013
  -2.9150000000000002E-002     3.2767631126822908E-014
  -2.9100000000000001E-002     7.2883926093491969E-013
  -2.9049999999999999E-002     1.3690676429601524E-012
  -2.8999999999999998E-002     1.8645975166090235E-012
  -2.8950000000000000E-002     2.1406208581433450E-012
  -2.8900000000000002E-002     2.1465856412994958E-012
  -2.8850000000000001E-002     1.8642554856779285E-012
  -2.8799999999999999E-002     1.3125440125998977E-012
  -2.8749999999999998E-002     5.4814991620390818E-013
  -2.8700000000000000E-002    -3.3869488379373047E-013
  -2.8650000000000002E-002    -1.2335314813294624E-012
  -2.8600000000000000E-002    -2.0114761743237100E-012
  -2.8549999999999999E-002    -2.5541193295300846E-012
  -2.8500000000000001E-002    -2.7673421006747389E-012
  -2.8450000000000000E-002    -2.5973731164253012E-012
  -2.8400000000000002E-002    -2.0423064224934711E-012
  -2.8350000000000000E-002    -1.1567585535049617E-012
  -2.8299999999999999E-002    -4.8278414505895380E-014
  -2.8250000000000001E-002     1.1346004073237116E-012
  -2.8200000000000003E-002     2.2213782340164526E-012
  -2.8150000000000001E-002     3.0431794676552009E-012
  -2.8100000000000000E-002     3.4575871425435552E-012
  -2.8049999999999999E-002     3.3711289615524135E-012
  -2.8000000000000001E-002     2.7560827634998615E-012
  -2.7950000000000003E-002     1.6590205988606176E-012
  -2.7900000000000001E-002     1.9955644985798099E-013
  -2.7850000000000000E-002    -1.4410376551410890E-012
  -2.7799999999999998E-002    -3.0404587293642879E-012
  -2.7750000000000000E-002    -4.3631905866060799E-012
  -2.7700000000000002E-002    -5.1924080819548395E-012
  -2.7650000000000001E-002    -5.3620439229495682E-012
  -2.7600000000000000E-002    -4.7846022762907719E-012
  -2.7549999999999998E-002    -3.4703437238657908E-012
  -2.7500000000000000E-002    -1.5341947559957765E-012
  -2.7450000000000002E-002     8.1181610917393689E-013
  -2.7400000000000001E-002     3.2807150333551144E-012
  -2.7349999999999999E-002     5.5450529899190628E-012
  -2.7299999999999998E-002     7.2792072070288679E-012
  -2.7250000000000000E-002     8.2034539575913321E-012
  -2.7200000000000002E-002     8.1232442399066279E-012
  -2.7150000000000001E-002     6.9578320856759145E-012
  -2.7099999999999999E-002     4.7542284840846488E-012
  -2.7049999999999998E-002     1.6849862580289401E-012
  -2.7000000000000000E-002    -1.9689956650446197E-012
  -2.6950000000000002E-002    -5.8471254344241157E-012
  -2.6900000000000000E-002    -9.5442231941088764E-012
  -2.6849999999999999E-002    -1.2646623426921128E-011
  -2.6800000000000001E-002    -1.4764324770178767E-011
  -2.6749999999999999E-002    -1.5555546541254845E-011
  -2.6700000000000002E-002    -1.4741680726929404E-011
  -2.6650000000000000E-002    -1.2112310133695910E-011
  -2.6599999999999999E-002    -7.5213110147431028E-012
  -2.6550000000000001E-002    -8.7599757619810823E-013
  -2.6500000000000003E-002     7.8782698002953221E-012
  -2.6450000000000001E-002     1.8775351974736389E-011
  -2.6400000000000000E-002     3.1844913056642216E-011
  -2.6349999999999998E-002     4.7125623282608301E-011
  -2.6300000000000000E-002     6.4672560792757465E-011
  -2.6250000000000002E-002     8.4556517143885575E-011
  -2.6200000000000001E-002     1.0685396817877561E-010
  -2.6150000000000000E-002     1.3162763596714965E-010
  -2.6099999999999998E-002     1.5889985193041551E-010
  -2.6050000000000000E-002     1.8862325303475808E-010
  -2.6000000000000002E-002     2.2065505570589553E-010
  -2.5950000000000001E-002     2.5474242700294634E-010
  -2.5899999999999999E-002     2.9052483279345816E-010
  -2.5849999999999998E-002     3.2755710353255655E-010
  -2.5800000000000000E-002     3.6535190956462477E-010
  -2.5750000000000002E-002     4.0343595891313188E-010
  -2.5700000000000001E-002     4.4140949431118267E-010
  -2.5649999999999999E-002     4.7899784482804395E-010
  -2.5599999999999998E-002     5.1608389430485605E-010
  -2.5550000000000000E-002     5.5271425061681799E-010
  -2.5500000000000002E-002     5.8907854158205127E-010
  -2.5450000000000000E-002     6.2546630701409679E-010
  -2.5399999999999999E-002     6.6221144097919484E-010
  -2.5349999999999998E-002     6.9963585111530623E-010
  -2.5300000000000000E-002     7.3800336518071015E-010
  -2.5250000000000002E-002     7.7749075098279624E-010
  -2.5200000000000000E-002     8.1817834524532681E-010
  -2.5149999999999999E-002     8.6005692087167761E-010
  -2.5100000000000001E-002     9.0304421436538546E-010
  -2.5049999999999999E-002     9.4700480453682801E-010
  -2.5000000000000001E-002     9.9176678941560532E-010
  -2.4950000000000000E-002     1.0371345174971247E-009
  -2.4899999999999999E-002     1.0828982425208729E-009
  -2.4850000000000001E-002     1.1288472196168155E-009
  -2.4800000000000003E-002     1.1747895881518749E-009
  -2.4750000000000001E-002     1.2205844831033426E-009
  -2.4700000000000000E-002     1.2661821114029218E-009
  -2.4649999999999998E-002     1.3116651162057346E-009
  -2.4600000000000000E-002     1.3572805964634243E-009
  -2.4550000000000002E-002     1.4034481487582679E-009
  -2.4500000000000001E-002     1.4507350184252620E-009
  -2.4450000000000000E-002     1.4997958535910926E-009
  -2.4399999999999998E-002     1.5512831308023939E-009
  -2.4350000000000000E-002     1.6057444364317656E-009
  -2.4299999999999999E-002     1.6635274898013622E-009
  -2.4250000000000001E-002     1.7247146623550308E-009
  -2.4199999999999999E-002     1.7891048023314187E-009
  -2.4150000000000001E-002     1.8562466629615060E-009
  -2.4100000000000000E-002     1.9255200592790534E-009
  -2.4049999999999998E-002     1.9962440731305997E-009
  -2.4000000000000000E-002     2.0677942247690587E-009
  -2.3949999999999999E-002     2.1396993013992212E-009
  -2.3900000000000001E-002     2.2117030221461097E-009
  -2.3850000000000000E-002     2.2837811105668614E-009
  -2.3800000000000002E-002     2.3561164132744328E-009
  -2.3750000000000000E-002     2.4290460560149269E-009
  -2.3699999999999999E-002     2.5029988444374352E-009
  -2.3650000000000001E-002     2.5784391712718256E-009
  -2.3599999999999999E-002     2.6558284137085349E-009
  -2.3550000000000001E-002     2.7356097072188409E-009
  -2.3500000000000000E-002     2.8182073332946193E-009
  -2.3449999999999999E-002     2.9040315150865121E-009
  -2.3400000000000001E-002     2.9934763502332620E-009
  -2.3349999999999999E-002     3.0868991745505435E-009
  -2.3300000000000001E-002     3.1845807656181498E-009
  -2.3250000000000000E-002     3.2866757829160609E-009
  -2.3199999999999998E-002     3.3931647583251574E-009
  -2.3150000000000000E-002     3.5038272758991092E-009
  -2.3099999999999999E-002     3.6182534715696397E-009
  -2.3050000000000001E-002     3.7358956648119048E-009
  -2.3000000000000000E-002     3.8561613773603744E-009
  -2.2950000000000002E-002     3.9785279690657981E-009
  -2.2900000000000000E-002     4.1026509492740390E-009
  -2.2849999999999999E-002     4.2284454707017040E-009
  -2.2800000000000001E-002     4.3561159139898807E-009
  -2.2749999999999999E-002     4.4861256667654199E-009
  -2.2700000000000001E-002     4.6191102896405541E-009
  -2.2650000000000000E-002     4.7557569811220642E-009
  -2.2599999999999999E-002     4.8966790121608481E-009
  -2.2550000000000001E-002     5.0423131673134406E-009
  -2.2499999999999999E-002     5.1928714706489065E-009
  -2.2450000000000001E-002     5.3483527651273551E-009
  -2.2400000000000000E-002     5.5086213069381808E-009
  -2.2349999999999998E-002     5.6735213815862181E-009
  -2.2300000000000000E-002     5.8430093023282928E-009
  -2.2249999999999999E-002     6.0172573518021788E-009
  -2.2200000000000001E-002     6.1967025920429182E-009
  -2.2150000000000000E-002     6.3820191737898029E-009
  -2.2100000000000002E-002     6.5740117600406618E-009
  -2.2050000000000000E-002     6.7734461397811261E-009
  -2.1999999999999999E-002     6.9808624160579586E-009
  -2.1950000000000001E-002     7.1963995089634453E-009
  -2.1899999999999999E-002     7.4197013729793946E-009
  -2.1850000000000001E-002     7.6499143565671563E-009
  -2.1800000000000000E-002     7.8858063559257753E-009
  -2.1749999999999999E-002     8.1259856576793387E-009
  -2.1700000000000001E-002     8.3691832597871613E-009
  -2.1649999999999999E-002     8.6145457838405260E-009
  -2.1600000000000001E-002     8.8618691723275476E-009
  -2.1550000000000000E-002     9.1117200553121440E-009
  -2.1499999999999998E-002     9.3654213660256443E-009
  -2.1450000000000000E-002     9.6248818785867479E-009
  -2.1399999999999999E-002     9.8923144725877766E-009
  -2.1350000000000001E-002     1.0169887554547284E-008
  -2.1299999999999999E-002     1.0459377816565889E-008
  -2.1250000000000002E-002     1.0761905679374852E-008
  -2.1200000000000000E-002     1.1077801161991373E-008
  -2.1149999999999999E-002     1.1406627661950426E-008
  -2.1100000000000001E-002     1.1747359607117027E-008
  -2.1049999999999999E-002     1.2098666811210217E-008
  -2.1000000000000001E-002     1.2459233078041295E-008
  -2.0950000000000000E-002     1.2828046134803635E-008
  -2.0899999999999998E-002     1.3204575353293146E-008
  -2.0850000000000000E-002     1.3588823339126803E-008
  -2.0799999999999999E-002     1.3981235646494420E-008
  -2.0750000000000001E-002     1.4382506427748394E-008
  -2.0700000000000000E-002     1.4793360614089094E-008
  -2.0649999999999998E-002     1.5214360069459582E-008
  -2.0600000000000000E-002     1.5645798364824901E-008
  -2.0549999999999999E-002     1.6087734713589848E-008
  -2.0500000000000001E-002     1.6540121662090096E-008
  -2.0449999999999999E-002     1.7003017347206275E-008
  -2.0400000000000001E-002     1.7476802993134267E-008
  -2.0350000000000000E-002     1.7962329348795556E-008
  -2.0299999999999999E-002     1.8460956607200592E-008
  -2.0250000000000001E-002     1.8974450253004638E-008
  -2.0199999999999999E-002     1.9504732301919900E-008
  -2.0150000000000001E-002     2.0053565176009310E-008
  -2.0100000000000000E-002     2.0622219392737081E-008
  -2.0049999999999998E-002     2.1211215654102416E-008
  -2.0000000000000000E-002     2.1820203170445887E-008
  -1.9949999999999999E-002     2.2448019251591622E-008
  -1.9900000000000001E-002     2.3092927122330940E-008
  -1.9850000000000000E-002     2.3752966437583868E-008
  -1.9799999999999998E-002     2.4426373341638735E-008
  -1.9750000000000000E-002     2.5111938956521518E-008
  -1.9699999999999999E-002     2.5809256415552874E-008
  -1.9650000000000001E-002     2.6518774465163576E-008
  -1.9599999999999999E-002     2.7241682586394885E-008
  -1.9550000000000001E-002     2.7979641899719003E-008
  -1.9500000000000000E-002     2.8734459536021820E-008
  -1.9449999999999999E-002     2.9507772686246105E-008
  -1.9400000000000001E-002     3.0300848856685608E-008
  -1.9349999999999999E-002     3.1114518751892641E-008
  -1.9300000000000001E-002     3.1949308571717550E-008
  -1.9250000000000000E-002     3.2805643539039868E-008
  -1.9199999999999998E-002     3.3684111839352785E-008
  -1.9150000000000000E-002     3.4585715559740032E-008
  -1.9099999999999999E-002     3.5511954940503998E-008
  -1.9050000000000001E-002     3.6464782334936050E-008
  -1.9000000000000000E-002     3.7446359622983728E-008
  -1.8949999999999998E-002     3.8458694283206461E-008
  -1.8900000000000000E-002     3.9503214869621624E-008
  -1.8849999999999999E-002     4.0580417287585567E-008
  -1.8800000000000001E-002     4.1689658639717532E-008
  -1.8749999999999999E-002     4.2829226535772763E-008
  -1.8700000000000001E-002     4.3996647741335104E-008
  -1.8650000000000000E-002     4.5189239193038850E-008
  -1.8599999999999998E-002     4.6404774651406795E-008
  -1.8550000000000001E-002     4.7642104703592210E-008
  -1.8499999999999999E-002     4.8901607340902069E-008
  -1.8450000000000001E-002     5.0185309232280897E-008
  -1.8400000000000000E-002     5.1496667675783913E-008
  -1.8349999999999998E-002     5.2840001752312316E-008
  -1.8300000000000000E-002     5.4219748754364476E-008
  -1.8249999999999999E-002     5.5639657231034470E-008
  -1.8200000000000001E-002     5.7102140945050471E-008
  -1.8149999999999999E-002     5.8607935485148834E-008
  -1.8100000000000002E-002     6.0156182704631222E-008
  -1.8050000000000000E-002     6.1744855567732281E-008
  -1.7999999999999999E-002     6.3371474549256521E-008
  -1.7950000000000001E-002     6.5033937912567895E-008
  -1.7899999999999999E-002     6.6731184702934296E-008
  -1.7850000000000001E-002     6.8463601662329292E-008
  -1.7800000000000000E-002     7.0233004556283388E-008
  -1.7749999999999998E-002     7.2042217450122040E-008
  -1.7700000000000000E-002     7.3894328964303374E-008
  -1.7649999999999999E-002     7.5791827835591573E-008
  -1.7600000000000001E-002     7.7735918333700060E-008
  -1.7550000000000000E-002     7.9726144640899408E-008
  -1.7499999999999998E-002     8.1760529890326441E-008
  -1.7450000000000000E-002     8.3836167505610914E-008
  -1.7399999999999999E-002     8.5950209660369030E-008
  -1.7350000000000001E-002     8.8100968300332067E-008
  -1.7299999999999999E-002     9.0288808321513021E-008
  -1.7250000000000001E-002     9.2516683476464896E-008
  -1.7200000000000000E-002     9.4790010011792949E-008
  -1.7149999999999999E-002     9.7116007047637166E-008
  -1.7100000000000001E-002     9.9502527478956864E-008
  -1.7049999999999999E-002     1.0195673052267671E-007
  -1.7000000000000001E-002     1.0448386651099178E-007
  -1.6950000000000000E-002     1.0708651182505322E-007
  -1.6899999999999998E-002     1.0976441181094396E-007
  -1.6850000000000000E-002     1.1251500307797418E-007
  -1.6799999999999999E-002     1.1533447087034174E-007
  -1.6750000000000001E-002     1.1821911336445405E-007
  -1.6700000000000000E-002     1.2116656776587237E-007
  -1.6649999999999998E-002     1.2417673854273098E-007
  -1.6600000000000000E-002     1.2725202516942630E-007
  -1.6549999999999999E-002     1.3039691613891191E-007
  -1.6500000000000001E-002     1.3361699208309181E-007
  -1.6449999999999999E-002     1.3691767621514613E-007
  -1.6400000000000001E-002     1.4030295541702294E-007
  -1.6350000000000000E-002     1.4377457165342798E-007
  -1.6299999999999999E-002     1.4733176027776843E-007
  -1.6250000000000001E-002     1.5097168697147268E-007
  -1.6199999999999999E-002     1.5469042984192337E-007
  -1.6150000000000001E-002     1.5848434785739959E-007
  -1.6100000000000000E-002     1.6235127163386427E-007
  -1.6049999999999998E-002     1.6629142049167489E-007
  -1.6000000000000000E-002     1.7030763541374456E-007
  -1.5949999999999999E-002     1.7440490849840085E-007
  -1.5900000000000001E-002     1.7858935945994563E-007
  -1.5850000000000000E-002     1.8286681875946403E-007
  -1.5799999999999998E-002     1.8724157355509734E-007
  -1.5750000000000000E-002     1.9171536544377225E-007
  -1.5699999999999999E-002     1.9628713009767014E-007
  -1.5650000000000001E-002     2.0095349541901876E-007
  -1.5599999999999999E-002     2.0570986482063685E-007
  -1.5550000000000001E-002     2.1055182469972289E-007
  -1.5500000000000000E-002     2.1547663007928760E-007
  -1.5449999999999998E-002     2.2048418999381293E-007
  -1.5400000000000000E-002     2.2557748626270565E-007
  -1.5349999999999999E-002     2.3076217902462028E-007
  -1.5300000000000001E-002     2.3604575813429360E-007
  -1.5250000000000000E-002     2.4143616428861041E-007
  -1.5199999999999998E-002     2.4694059288596935E-007
  -1.5150000000000000E-002     2.5256439079815292E-007
  -1.5099999999999999E-002     2.5831090837944418E-007
  -1.5050000000000001E-002     2.6418183101796059E-007
  -1.4999999999999999E-002     2.7017815235773793E-007
  -1.4949999999999998E-002     2.7630147631782874E-007
  -1.4900000000000000E-002     2.8255508898268504E-007
  -1.4849999999999999E-002     2.8894463907964041E-007
  -1.4800000000000001E-002     2.9547827417450470E-007
  -1.4749999999999999E-002     3.0216594228795696E-007
  -1.4700000000000001E-002     3.0901833374993908E-007
  -1.4650000000000000E-002     3.1604542408979116E-007
  -1.4599999999999998E-002     3.2325524834180841E-007
  -1.4550000000000000E-002     3.3065300269311006E-007
  -1.4499999999999999E-002     3.3824088158398862E-007
  -1.4450000000000001E-002     3.4601873058560843E-007
  -1.4400000000000000E-002     3.5398517050176168E-007
  -1.4349999999999998E-002     3.6213890771172017E-007
  -1.4300000000000000E-002     3.7048017449135530E-007
  -1.4249999999999999E-002     3.7901141095346368E-007
  -1.4200000000000001E-002     3.8773708276319591E-007
  -1.4149999999999999E-002     3.9666304783005676E-007
  -1.4099999999999998E-002     4.0579520575441081E-007
  -1.4050000000000000E-002     4.1513794345850841E-007
  -1.3999999999999999E-002     4.2469306868391641E-007
  -1.3950000000000001E-002     4.3445919132402432E-007
  -1.3899999999999999E-002     4.4443201068540720E-007
  -1.3850000000000001E-002     4.5460550202988937E-007
  -1.3800000000000000E-002     4.6497350124453154E-007
  -1.3749999999999998E-002     4.7553142544949868E-007
  -1.3700000000000000E-002     4.8627738823387240E-007
  -1.3649999999999999E-002     4.9721270859008531E-007
  -1.3600000000000001E-002     5.0834142253895243E-007
  -1.3550000000000000E-002     5.1966916189665036E-007
  -1.3499999999999998E-002     5.3120167452523224E-007
  -1.3450000000000000E-002     5.4294299522329602E-007
  -1.3399999999999999E-002     5.5489438458417844E-007
  -1.3350000000000001E-002     5.6705361100938535E-007
  -1.3299999999999999E-002     5.7941563005074221E-007
  -1.3249999999999998E-002     5.9197339952393008E-007
  -1.3200000000000000E-002     6.0472010648214851E-007
  -1.3149999999999998E-002     6.1765091962293701E-007
  -1.3100000000000001E-002     6.3076464590445705E-007
  -1.3049999999999999E-002     6.4406439628655730E-007
  -1.3000000000000001E-002     6.5755765621654947E-007
  -1.2950000000000000E-002     6.7125464694346452E-007
  -1.2899999999999998E-002     6.8516666839076025E-007
  -1.2850000000000000E-002     6.9930400121708759E-007
  -1.2799999999999999E-002     7.1367441800706764E-007