  -4.0000000000000001E-002     0.0000000000000000     
  -3.9949999999999999E-002     0.0000000000000000     
  -3.9899999999999998E-002     0.0000000000000000     
  -3.9850000000000003E-002     0.0000000000000000     
  -3.9800000000000002E-002     0.0000000000000000     
  -3.9750000000000001E-002     0.0000000000000000     
  -3.9699999999999999E-002     0.0000000000000000     
  -3.9649999999999998E-002     0.0000000000000000     
  -3.9600000000000003E-002     0.0000000000000000     
  -3.9550000000000002E-002     0.0000000000000000     
  -3.9500000000000000E-002     0.0000000000000000     
  -3.9449999999999999E-002     0.0000000000000000     
  -3.9399999999999998E-002     0.0000000000000000     
  -3.9350000000000003E-002     0.0000000000000000     
  -3.9300000000000002E-002     0.0000000000000000     
  -3.9250000000000000E-002     0.0000000000000000     
  -3.9199999999999999E-002     0.0000000000000000     
  -3.9150000000000004E-002     0.0000000000000000     
  -3.9100000000000003E-002     0.0000000000000000     
  -3.9050000000000001E-002     0.0000000000000000     
  -3.9000000000000000E-002     0.0000000000000000     
  -3.8949999999999999E-002     0.0000000000000000     
  -3.8900000000000004E-002     0.0000000000000000     
  -3.8850000000000003E-002     0.0000000000000000     
  -3.8800000000000001E-002     0.0000000000000000     
  -3.8750000000000000E-002     0.0000000000000000     
  -3.8699999999999998E-002     0.0000000000000000     
  -3.8650000000000004E-002     0.0000000000000000     
  -3.8600000000000002E-002     0.0000000000000000     
  -3.8550000000000001E-002     0.0000000000000000     
  -3.8500000000000000E-002     0.0000000000000000     
  -3.8449999999999998E-002     0.0000000000000000     
  -3.8400000000000004E-002     0.0000000000000000     
  -3.8350000000000002E-002     0.0000000000000000     
  -3.8300000000000001E-002     0.0000000000000000     
  -3.8249999999999999E-002     0.0000000000000000     
  -3.8199999999999998E-002     0.0000000000000000     
  -3.8150000000000003E-002     0.0000000000000000     
  -3.8100000000000002E-002     0.0000000000000000     
  -3.8050000000000000E-002     0.0000000000000000     
  -3.7999999999999999E-002     0.0000000000000000     
  -3.7949999999999998E-002     0.0000000000000000     
  -3.7900000000000003E-002     0.0000000000000000     
  -3.7850000000000002E-002     0.0000000000000000     
  -3.7800000000000000E-002     0.0000000000000000     
  -3.7749999999999999E-002     0.0000000000000000     
  -3.7699999999999997E-002     0.0000000000000000     
  -3.7650000000000003E-002     0.0000000000000000     
  -3.7600000000000001E-002     0.0000000000000000     
  -3.7550000000000000E-002     0.0000000000000000     
  -3.7499999999999999E-002     0.0000000000000000     
  -3.7449999999999997E-002     0.0000000000000000     
  -3.7400000000000003E-002     0.0000000000000000     
  -3.7350000000000001E-002     0.0000000000000000     
  -3.7300000000000000E-002     0.0000000000000000     
  -3.7249999999999998E-002     0.0000000000000000     
  -3.7200000000000004E-002     0.0000000000000000     
  -3.7150000000000002E-002     0.0000000000000000     
  -3.7100000000000001E-002     0.0000000000000000     
  -3.7050000000000000E-002     0.0000000000000000     
  -3.6999999999999998E-002     0.0000000000000000     
  -3.6950000000000004E-002     0.0000000000000000     
  -3.6900000000000002E-002     0.0000000000000000     
  -3.6850000000000001E-002     0.0000000000000000     
  -3.6799999999999999E-002     0.0000000000000000     
  -3.6749999999999998E-002     0.0000000000000000     
  -3.6700000000000003E-002     0.0000000000000000     
  -3.6650000000000002E-002     0.0000000000000000     
  -3.6600000000000001E-002     0.0000000000000000     
  -3.6549999999999999E-002     0.0000000000000000     
  -3.6499999999999998E-002     0.0000000000000000     
  -3.6450000000000003E-002     0.0000000000000000     
  -3.6400000000000002E-002     0.0000000000000000     
  -3.6350000000000000E-002     0.0000000000000000     
  -3.6299999999999999E-002     0.0000000000000000     
  -3.6249999999999998E-002     0.0000000000000000     
  -3.6200000000000003E-002     0.0000000000000000     
  -3.6150000000000002E-002     0.0000000000000000     
  -3.6100000000000000E-002     0.0000000000000000     
  -3.6049999999999999E-002     0.0000000000000000     
  -3.6000000000000004E-002     0.0000000000000000     
  -3.5950000000000003E-002     0.0000000000000000     
  -3.5900000000000001E-002     0.0000000000000000     
  -3.5850000000000000E-002     0.0000000000000000     
  -3.5799999999999998E-002     0.0000000000000000     
  -3.5750000000000004E-002     0.0000000000000000     
  -3.5700000000000003E-002     0.0000000000000000     
  -3.5650000000000001E-002     0.0000000000000000     
  -3.5600000000000000E-002     0.0000000000000000     
  -3.5549999999999998E-002     0.0000000000000000     
  -3.5500000000000004E-002     0.0000000000000000     
  -3.5450000000000002E-002     0.0000000000000000     
  -3.5400000000000001E-002     0.0000000000000000     
  -3.5349999999999999E-002     0.0000000000000000     
  -3.5299999999999998E-002     0.0000000000000000     
  -3.5250000000000004E-002     0.0000000000000000     
  -3.5200000000000002E-002     0.0000000000000000     
  -3.5150000000000001E-002     0.0000000000000000     
  -3.5099999999999999E-002     0.0000000000000000     
  -3.5049999999999998E-002     0.0000000000000000     
  -3.5000000000000003E-002     0.0000000000000000     
  -3.4950000000000002E-002     0.0000000000000000     
  -3.4900000000000000E-002     0.0000000000000000     
  -3.4849999999999999E-002     0.0000000000000000     
  -3.4799999999999998E-002     0.0000000000000000     
  -3.4750000000000003E-002     0.0000000000000000     
  -3.4700000000000002E-002     0.0000000000000000     
  -3.4650000000000000E-002     0.0000000000000000     
  -3.4599999999999999E-002     0.0000000000000000     
  -3.4549999999999997E-002     0.0000000000000000     
  -3.4500000000000003E-002     0.0000000000000000     
  -3.4450000000000001E-002     0.0000000000000000     
  -3.4400000000000000E-002     0.0000000000000000     
  -3.4349999999999999E-002     0.0000000000000000     
  -3.4299999999999997E-002     0.0000000000000000     
  -3.4250000000000003E-002     0.0000000000000000     
  -3.4200000000000001E-002     0.0000000000000000     
  -3.4150000000000000E-002     0.0000000000000000     
  -3.4099999999999998E-002     0.0000000000000000     
  -3.4049999999999997E-002     0.0000000000000000     
  -3.4000000000000002E-002     0.0000000000000000     
  -3.3950000000000001E-002     0.0000000000000000     
  -3.3900000000000000E-002     0.0000000000000000     
  -3.3849999999999998E-002     0.0000000000000000     
  -3.3799999999999997E-002     0.0000000000000000     
  -3.3750000000000002E-002     0.0000000000000000     
  -3.3700000000000001E-002     0.0000000000000000     
  -3.3649999999999999E-002     3.5388237718646202E-039
  -3.3599999999999998E-002     1.1557835723635392E-038
  -3.3550000000000003E-002     1.8908422823724759E-038
  -3.3500000000000002E-002     1.1672836200294188E-038
  -3.3450000000000001E-002    -3.1718192019686971E-038
  -3.3399999999999999E-002    -1.0232416047468468E-037
  -3.3349999999999998E-002    -1.5915274097779470E-037
  -3.3300000000000003E-002    -1.0487354404701115E-037
  -3.3250000000000002E-002     8.0344084465796712E-038
  -3.3200000000000000E-002     3.5872815549267714E-037
  -3.3149999999999999E-002     6.4429748916673503E-037
  -3.3099999999999997E-002     7.7717562769398173E-037
  -3.3050000000000003E-002     5.1517733459563453E-037
  -3.3000000000000002E-002    -2.7353275550321338E-037
  -3.2950000000000000E-002    -1.5351620193290395E-036
  -3.2899999999999999E-002    -2.8655303890661458E-036
  -3.2850000000000004E-002    -3.4788110199053605E-036
  -3.2800000000000003E-002    -2.3979615353759846E-036
  -3.2750000000000001E-002     1.0438473634695390E-036
  -3.2700000000000000E-002     6.5030093802955736E-036
  -3.2649999999999998E-002     1.2066908808608413E-035
  -3.2600000000000004E-002     1.4304219603683062E-035
  -3.2550000000000003E-002     9.3449710379811448E-036
  -3.2500000000000001E-002    -4.9826335526344582E-036
  -3.2450000000000000E-002    -2.6564656953668781E-035
  -3.2399999999999998E-002    -4.7278002794536433E-035
  -3.2350000000000004E-002    -5.3799580881117027E-035
  -3.2300000000000002E-002    -3.2188840590735755E-035
  -3.2250000000000001E-002     2.3998378083529699E-035
  -3.2199999999999999E-002     1.0464693698412457E-034
  -3.2149999999999998E-002     1.7795991839344587E-034
  -3.2100000000000004E-002     1.9500816078074241E-034
  -3.2050000000000002E-002     1.0757283634454145E-034
  -3.2000000000000001E-002    -1.0276697334803292E-034
  -3.1949999999999999E-002    -3.9438576624133571E-034
  -3.1899999999999998E-002    -6.5130525371007312E-034
  -3.1850000000000003E-002    -7.0310744762762936E-034
  -3.1800000000000002E-002    -3.8846314455441534E-034
  -3.1750000000000000E-002     3.4795451217199207E-034
  -3.1699999999999999E-002     1.3605170568805384E-033
  -3.1649999999999998E-002     2.2641570246270640E-033
  -3.1600000000000003E-002     2.5057429712153578E-033
  -3.1550000000000002E-002     1.5668949127947079E-033
  -3.1500000000000000E-002    -7.4106263764768398E-034
  -3.1449999999999999E-002    -4.0002501207954785E-033
  -3.1399999999999997E-002    -7.0842755116385057E-033
  -3.1350000000000003E-002    -8.3721368955287646E-033
  -3.1300000000000001E-002    -6.3191409450413882E-033
  -3.1250000000000000E-002    -2.5697901739506768E-034
  -3.1199999999999999E-002     8.8827881329679766E-033
  -3.1150000000000001E-002     1.8321536240884048E-032
  -3.1100000000000003E-002     2.3984501602891056E-032
  -3.1050000000000001E-002     2.1890865339037964E-032
  -3.1000000000000000E-002     1.0008557032762297E-032
  -3.0949999999999998E-002    -1.0178687921594217E-032
  -3.0900000000000000E-002    -3.3262952039404513E-032
  -3.0850000000000002E-002    -5.1226053345166571E-032
  -3.0800000000000001E-002    -5.6315263829294890E-032
  -3.0750000000000000E-002    -4.4432735699760691E-032
  -3.0699999999999998E-002    -1.7389363676071203E-032
  -3.0650000000000000E-002     1.7477108619592298E-032
  -3.0600000000000002E-002     5.0716960279900770E-032
  -3.0550000000000001E-002     7.5849544400836875E-032
  -3.0499999999999999E-002     9.3150159049571903E-032
  -3.0449999999999998E-002     1.0885786702058394E-031
  -3.0400000000000000E-002     1.2827065844979387E-031
  -3.0350000000000002E-002     1.4488986521715755E-031
  -3.0300000000000001E-002     1.3196942114834784E-031
  -3.0249999999999999E-002     4.5015518875170613E-032
  -3.0200000000000001E-002    -1.5856517480139066E-031
  -3.0150000000000000E-002    -4.8435113106294887E-031
  -3.0100000000000002E-002    -8.6348401351068776E-031
  -3.0050000000000000E-002    -1.1359597195415474E-030
  -2.9999999999999999E-002    -1.0789107693753558E-030
  -2.9950000000000001E-002    -4.9129413943103309E-031
  -2.9899999999999999E-002     6.8056658942427925E-031
  -2.9850000000000002E-002     2.2248656273233536E-030
  -2.9800000000000000E-002     3.6244022311644904E-030
  -2.9749999999999999E-002     4.1596186920787188E-030
  -2.9700000000000001E-002     3.1735928877793118E-030
  -2.9650000000000003E-002     4.3812643418734834E-031
  -2.9600000000000001E-002    -3.5262597030527544E-030
  -2.9550000000000000E-002    -7.3717779272655405E-030
  -2.9499999999999998E-002    -9.2462670374571160E-030
  -2.9450000000000000E-002    -7.5373660789412465E-030
  -2.9400000000000003E-002    -1.8385111378326096E-030
  -2.9350000000000001E-002     6.2803746409365793E-030
  -2.9300000000000000E-002     1.3212595784702997E-029
  -2.9249999999999998E-002     1.4348342287799185E-029
  -2.9200000000000000E-002     6.1853506053082422E-030
  -2.9150000000000002E-002    -1.1086346901399096E-029
  -2.9100000000000001E-002    -3.1680721312263286E-029
  -2.9049999999999999E-002    -4.4364528627603763E-029
  -2.8999999999999998E-002    -3.5641275128648289E-029
  -2.8950000000000000E-002     4.1243944880661394E-030
  -2.8900000000000002E-002     7.3280958272138596E-029
  -2.8850000000000001E-002     1.5325946966357424E-028
  -2.8799999999999999E-002     2.0845400445320888E-028
  -2.8749999999999998E-002     1.9443546035730030E-028
  -2.8700000000000000E-002     7.4676941304083891E-029
  -2.8650000000000002E-002    -1.5794207785430309E-028
  -2.8600000000000000E-002    -4.6249066105281285E-028
  -2.8549999999999999E-002    -7.4395248484013972E-028
  -2.8500000000000001E-002    -8.6819426279860211E-028
  -2.8450000000000000E-002    -7.0071330764314629E-028
  -2.8400000000000002E-002    -1.6285793248670783E-028
  -2.8350000000000000E-002     7.1073160320543721E-028
  -2.8299999999999999E-002     1.7366177975259177E-027
  -2.8250000000000001E-002     2.5920193667272886E-027
  -2.8200000000000003E-002     2.8826500375879455E-027
  -2.8150000000000001E-002     2.2639971784823568E-027
  -2.8100000000000000E-002     5.8846891700489644E-028
  -2.8049999999999999E-002    -1.9684281930699705E-027
  -2.8000000000000001E-002    -4.8569406088626551E-027
  -2.7950000000000003E-002    -7.2197988334382023E-027
  -2.7900000000000001E-002    -8.0889678420855919E-027
  -2.7850000000000000E-002    -6.6806218791673914E-027
  -2.7799999999999998E-002    -2.7123719220065023E-027
  -2.7750000000000000E-002     3.3612166035983679E-027
  -2.7700000000000002E-002     1.0296163673605485E-026
  -2.7650000000000001E-002     1.6251596670612059E-026
  -2.7600000000000000E-002     1.9218927035795956E-026
  -2.7549999999999998E-002     1.7597085684913246E-026
  -2.7500000000000000E-002     1.0756128340078905E-026
  -2.7450000000000002E-002    -5.9339275968871200E-028
  -2.7400000000000001E-002    -1.4373971380800887E-026
  -2.7349999999999999E-002    -2.7515501716561531E-026
  -2.7299999999999998E-002    -3.6664047891990874E-026
  -2.7250000000000000E-002    -3.9040129459127198E-026
  -2.7200000000000002E-002    -3.3193348660940610E-026
  -2.7150000000000001E-002    -1.9413932715350094E-026
  -2.7099999999999999E-002     3.3593083909912360E-028
  -2.7049999999999998E-002     2.2944200490899402E-026
  -2.7000000000000000E-002     4.4927286176660212E-026
  -2.6950000000000002E-002     6.3157704473313238E-026
  -2.6900000000000000E-002     7.5241095714473178E-026
  -2.6849999999999999E-002     7.9384540319657418E-026
  -2.6800000000000001E-002     7.3843656790754761E-026
  -2.6749999999999999E-002     5.6301853425066960E-026
  -2.6700000000000002E-002     2.3710295838177921E-026
  -2.6650000000000000E-002    -2.6905019903150744E-026
  -2.6599999999999999E-002    -9.6438412305194579E-026
  -2.6550000000000001E-002    -1.8077388236597771E-025
  -2.6500000000000003E-002    -2.6780700896880856E-025
  -2.6450000000000001E-002    -3.3580184846400297E-025
  -2.6400000000000000E-002    -3.5463298846809553E-025
  -2.6349999999999998E-002    -2.9109461247185643E-025
  -2.6300000000000000E-002    -1.1848057198125099E-025
  -2.6250000000000002E-002     1.7084082313372210E-025
  -2.6200000000000001E-002     5.5279912335388875E-025
  -2.6150000000000000E-002     9.6323871335467133E-025
  -2.6099999999999998E-002     1.2985471240797856E-024
  -2.6050000000000000E-002     1.4291439983671882E-024
  -2.6000000000000002E-002     1.2271371289705425E-024
  -2.5950000000000001E-002     6.0546287255830624E-025
  -2.5899999999999999E-002    -4.3887693234630079E-025
  -2.5849999999999998E-002    -1.7890993102542658E-024
  -2.5800000000000000E-002    -3.1942911227215579E-024
  -2.5750000000000002E-002    -4.2890584568233021E-024
  -2.5700000000000001E-002    -4.6542551391503047E-024
  -2.5649999999999999E-002    -3.9161278794491182E-024
  -2.5599999999999998E-002    -1.8687315015021394E-024
  -2.5550000000000000E-002     1.4078240349955886E-024
  -2.5500000000000002E-002     5.4690614182769259E-024
  -2.5450000000000000E-002     9.5039900891932142E-024
  -2.5399999999999999E-002     1.2435163905475756E-023
  -2.5349999999999998E-002     1.3125813542674997E-023
  -2.5300000000000000E-002     1.0669563963031967E-023
  -2.5250000000000002E-002     4.7070595041930629E-024
  -2.5200000000000000E-002    -4.3106108838261858E-024
  -2.5149999999999999E-002    -1.5000149833934210E-023
  -2.5100000000000001E-002    -2.5139786695600067E-023
  -2.5049999999999999E-002    -3.2012711797580620E-023
  -2.5000000000000001E-002    -3.2974558385837375E-023
  -2.4950000000000000E-002    -2.6151515719328525E-023
  -2.4899999999999999E-002    -1.1117019633098105E-023
  -2.4850000000000001E-002     1.0635540308022261E-023
  -2.4800000000000003E-002     3.5594239823035477E-023
  -2.4750000000000001E-002     5.8613364261351946E-023
  -2.4700000000000000E-002     7.3788102936130031E-023
  -2.4649999999999998E-002     7.5701525527776839E-023
  -2.4600000000000000E-002     6.0810048407397107E-023
  -2.4550000000000002E-002     2.8657653623637390E-023
  -2.4500000000000001E-002    -1.7400595927635398E-023
  -2.4450000000000000E-002    -7.0216414585589449E-023
  -2.4399999999999998E-002    -1.1971934713420750E-022
  -2.4350000000000000E-002    -1.5457090217434517E-022
  -2.4299999999999999E-002    -1.6434804642436646E-022
  -2.4250000000000001E-002    -1.4186096436884802E-022
  -2.4199999999999999E-002    -8.5147031716947306E-023
  -2.4150000000000001E-002     1.2855796122121835E-024
  -2.4100000000000000E-002     1.0627273227705981E-022
  -2.4049999999999998E-002     2.1299863532582600E-022
  -2.4000000000000000E-002     3.0112681424661089E-022
  -2.3949999999999999E-002     3.4982160283032345E-022
  -2.3900000000000001E-002     3.4129910636174791E-022
  -2.3850000000000000E-002     2.6447095206057026E-022
  -2.3800000000000002E-002     1.1820770700152715E-022
  -2.3750000000000000E-002    -8.6275366447318850E-023
  -2.3699999999999999E-002    -3.2442554800018181E-022
  -2.3650000000000001E-002    -5.5927141938889478E-022
  -2.3599999999999999E-002    -7.4471099926242188E-022
  -2.3550000000000001E-002    -8.3144056668599607E-022
  -2.3500000000000000E-002    -7.7541666171137849E-022
  -2.3449999999999999E-002    -5.4814961241429902E-022
  -2.3400000000000001E-002    -1.4737752991095231E-022
  -2.3349999999999999E-002     3.9408732911585202E-022
  -2.3300000000000001E-002     1.0040705091341408E-021
  -2.3250000000000000E-002     1.5740432596487813E-021
  -2.3199999999999998E-002     1.9714186670072520E-021
  -2.3150000000000000E-002     2.0615185535733991E-021
  -2.3099999999999999E-002     1.7372619089835574E-021
  -2.3050000000000001E-002     9.5194460606663029E-022
  -2.3000000000000000E-002    -2.5189554056760947E-022
  -2.2950000000000002E-002    -1.7258540024982947E-021
  -2.2900000000000000E-002    -3.2191329851555120E-021
  -2.2849999999999999E-002    -4.4073007722176907E-021
  -2.2800000000000001E-002    -4.9466964540506314E-021
  -2.2749999999999999E-002    -4.5484955400389229E-021
  -2.2700000000000001E-002    -3.0598919318023322E-021
  -2.2650000000000000E-002    -5.3467984396188805E-022
  -2.2599999999999999E-002     2.7265080180764313E-021
  -2.2550000000000001E-002     6.1836400237004599E-021
  -2.2499999999999999E-002     9.1223921973146522E-021
  -2.2450000000000001E-002     1.0775324947378618E-020
  -2.2400000000000000E-002     1.0483627593130696E-020
  -2.2349999999999998E-002     7.8706852144015973E-021
  -2.2300000000000000E-002     2.9895431629238099E-021
  -2.2249999999999999E-002    -3.5956414798929705E-021
  -2.2200000000000001E-002    -1.0826840040714046E-020
  -2.2150000000000000E-002    -1.7284339720528320E-020
  -2.2100000000000002E-002    -2.1426617837303795E-020
  -2.2050000000000000E-002    -2.1904329290923552E-020
  -2.1999999999999999E-002    -1.7891692333520606E-020
  -2.1950000000000001E-002    -9.3642812697784739E-021
  -2.1899999999999999E-002     2.7480049832363509E-021
  -2.1850000000000001E-002     1.6588107957457681E-020
  -2.1800000000000000E-002     2.9603365639399643E-020
  -2.1749999999999999E-002     3.8964438825804045E-020
  -2.1700000000000001E-002     4.2111092338311102E-020
  -2.1649999999999999E-002     3.7327731095421131E-020
  -2.1600000000000001E-002     2.4231688148502138E-020
  -2.1550000000000000E-002     4.0596069403289193E-021
  -2.1499999999999998E-002    -2.0335290122845506E-020
  -2.1450000000000000E-002    -4.4813343452250531E-020
  -2.1399999999999999E-002    -6.4581906842867055E-020
  -2.1350000000000001E-002    -7.5043929714257416E-020
  -2.1299999999999999E-002    -7.2721052001218759E-020
  -2.1250000000000002E-002    -5.6080696906281883E-020
  -2.1200000000000000E-002    -2.6097800942831005E-020
  -2.1149999999999999E-002     1.3585229502443335E-020
  -2.1100000000000001E-002     5.6975285012413560E-020
  -2.1049999999999999E-002     9.6518024460191468E-020
  -2.1000000000000001E-002     1.2427102743572191E-019
  -2.0950000000000000E-002     1.3329678066342802E-019
  -2.0899999999999998E-002     1.1905773283757828E-019
  -2.0850000000000000E-002     8.0573351122119448E-020
  -2.0799999999999999E-002     2.1111996884554688E-020
  -2.0750000000000001E-002    -5.1760353589367835E-020
  -2.0700000000000000E-002    -1.2687174102730431E-019
  -2.0649999999999998E-002    -1.9086867882062227E-019
  -2.0600000000000000E-002    -2.3024692463217799E-019
  -2.0549999999999999E-002    -2.3374323372385591E-019
  -2.0500000000000001E-002    -1.9474063060995105E-019
  -2.0449999999999999E-002    -1.1327094480704994E-019
  -2.0400000000000001E-002     2.8159897009080410E-021
  -2.0350000000000000E-002     1.3788973242774142E-019
  -2.0299999999999999E-002     2.7002023496526679E-019
  -2.0250000000000001E-002     3.7392386979537851E-019
  -2.0199999999999999E-002     4.2512295610253295E-019
  -2.0150000000000001E-002     4.0477216416895171E-019
  -2.0100000000000000E-002     3.0434945920376882E-019
  -2.0049999999999998E-002     1.2925174845582545E-019
  -2.0000000000000000E-002    -9.9657258710381124E-020
  -1.9949999999999999E-002    -3.4728907090114785E-019
  -1.9900000000000001E-002    -5.6868342687777683E-019
  -1.9850000000000000E-002    -7.1620498419786379E-019
  -1.9799999999999998E-002    -7.4865494211375330E-019
  -1.9750000000000000E-002    -6.4076315761637249E-019
  -1.9699999999999999E-002    -3.9113156282769234E-019
  -1.9650000000000001E-002    -2.6651621296182056E-020
  -1.9599999999999999E-002     3.9820169190978482E-019
  -1.9550000000000001E-002     8.0797967553709121E-019
  -1.9500000000000000E-002     1.1184122359452072E-018
  -1.9449999999999999E-002     1.2524547542874405E-018
  -1.9400000000000001E-002     1.1574369112333638E-018
  -1.9349999999999999E-002     8.1979786752812746E-019
  -1.9300000000000001E-002     2.7382694310932458E-019
  -1.9250000000000000E-002    -3.9843415166629489E-019
  -1.9199999999999998E-002    -1.0774812559196091E-018
  -1.9150000000000000E-002    -1.6261408339726097E-018
  -1.9099999999999999E-002    -1.9159770669643767E-018
  -1.9050000000000001E-002    -1.8555285022571289E-018
  -1.9000000000000000E-002    -1.4144895147568090E-018
  -1.8949999999999998E-002    -6.3801688609792174E-019
  -1.8900000000000000E-002     3.5328772698717912E-019
  -1.8849999999999999E-002     1.3795991790578651E-018
  -1.8800000000000001E-002     2.2328493636540572E-018
  -1.8749999999999999E-002     2.7175733267267822E-018
  -1.8700000000000001E-002     2.6939412945459876E-018
  -1.8650000000000000E-002     2.1138687706974667E-018
  -1.8599999999999998E-002     1.0415306981225041E-018
  -1.8550000000000001E-002    -3.4797959266295920E-019
  -1.8499999999999999E-002    -1.7940256983849565E-018
  -1.8450000000000001E-002    -2.9969962287104162E-018
  -1.8400000000000000E-002    -3.6782845820433389E-018
  -1.8349999999999998E-002    -3.6421284608177873E-018
  -1.8300000000000000E-002    -2.8261593343404889E-018
  -1.8249999999999999E-002    -1.3286003750871919E-018
  -1.8200000000000001E-002     5.9612932022279023E-019
  -1.8149999999999999E-002     2.5756639679848851E-018
  -1.8100000000000002E-002     4.1870386435696509E-018
  -1.8050000000000000E-002     5.0417336949401835E-018
  -1.7999999999999999E-002     4.8721967044178025E-018
  -1.7950000000000001E-002     3.6017983831704213E-018
  -1.7899999999999999E-002     1.3819502348238732E-018
  -1.7850000000000001E-002    -1.4145898184203039E-018
  -1.7800000000000000E-002    -4.2472294481927837E-018
  -1.7749999999999998E-002    -6.5016613676883911E-018
  -1.7700000000000000E-002    -7.6096199396954135E-018
  -1.7649999999999999E-002    -7.1728287004724191E-018
  -1.7600000000000001E-002    -5.0668190397167205E-018
  -1.7550000000000000E-002    -1.5018493875178231E-018
  -1.7499999999999998E-002     2.9758567964136240E-018
  -1.7450000000000000E-002     7.5496837426712039E-018
  -1.7399999999999999E-002     1.1260315183140400E-017
  -1.7350000000000001E-002     1.3178749963183744E-017
  -1.7299999999999999E-002     1.2597446584931187E-017
  -1.7250000000000001E-002     9.2057195240567193E-018
  -1.7200000000000000E-002     3.2140544961563788E-018
  -1.7149999999999999E-002    -4.6035953169142776E-018
  -1.7100000000000001E-002    -1.2969861718535108E-017
  -1.7049999999999999E-002    -2.0271125043889082E-017
  -1.7000000000000001E-002    -2.4817641011376622E-017
  -1.6950000000000000E-002    -2.5163040947454580E-017
  -1.6899999999999998E-002    -2.0432778609155734E-017
  -1.6850000000000000E-002    -1.0600473414857153E-017
  -1.6799999999999999E-002     3.3502731264938792E-018
  -1.6750000000000001E-002     1.9430972666396624E-017
  -1.6700000000000000E-002     3.4850620711747516E-017
  -1.6649999999999998E-002     4.6413513405965034E-017
  -1.6600000000000000E-002     5.1072198223568388E-017
  -1.6549999999999999E-002     4.6556856052468500E-017
  -1.6500000000000001E-002     3.1971766774828915E-017
  -1.6449999999999999E-002     8.2344228941683710E-018
  -1.6400000000000001E-002    -2.1760348098233697E-017
  -1.6350000000000000E-002    -5.3336663894216412E-017
  -1.6299999999999999E-002    -8.0624127349888509E-017
  -1.6250000000000001E-002    -9.7491267622764322E-017
  -1.6199999999999999E-002    -9.8704583727091116E-017
  -1.6150000000000001E-002    -8.1123473369309017E-017
  -1.6100000000000000E-002    -4.4698528406023511E-017
  -1.6049999999999998E-002     6.9617063390942042E-018
  -1.6000000000000000E-002     6.6645900775596980E-017
  -1.5949999999999999E-002     1.2431549630793709E-016
  -1.5900000000000001E-002     1.6857142955359982E-016
  -1.5850000000000000E-002     1.8863875510634680E-016
  -1.5799999999999998E-002     1.7656271784124773E-016
  -1.5750000000000000E-002     1.2921754012795468E-016
  -1.5699999999999999E-002     4.9701089089138576E-017
  -1.5650000000000001E-002    -5.2256389914032940E-017
  -1.5599999999999999E-002    -1.6110396609549762E-016
  -1.5550000000000001E-002    -2.5753178023393723E-016
  -1.5500000000000000E-002    -3.2157031652888980E-016
  -1.5449999999999998E-002    -3.3628069920904835E-016
  -1.5400000000000000E-002    -2.9140932783487339E-016
  -1.5349999999999999E-002    -1.8629953796001282E-016
  -1.5300000000000001E-002    -3.1399185289302733E-017
  -1.5250000000000000E-002     1.5211637437308046E-016
  -1.5199999999999998E-002     3.3478827107738755E-016
  -1.5150000000000000E-002     4.8319672080613739E-016
  -1.5099999999999999E-002     5.6559493931804413E-016
  -1.5050000000000001E-002     5.5796726535688242E-016
  -1.4999999999999999E-002     4.4943788317021706E-016
  -1.4949999999999998E-002     2.4595059975075099E-016
  -1.4900000000000000E-002    -2.8667559494646609E-017
  -1.4849999999999999E-002    -3.3476402812142499E-016
  -1.4800000000000001E-002    -6.2203061750864380E-016
  -1.4749999999999999E-002    -8.3720819059267167E-016
  -1.4700000000000001E-002    -9.3322514138412673E-016
  -1.4650000000000000E-002    -8.7829593572723670E-016
  -1.4599999999999998E-002    -6.6335152548623970E-016
  -1.4550000000000000E-002    -3.0630052433882390E-016
  -1.4499999999999999E-002     1.4797425478001089E-016
  -1.4450000000000001E-002     6.3234790118311297E-016
  -1.4400000000000000E-002     1.0665936474063139E-015
  -1.4349999999999998E-002     1.3698159968715102E-015
  -1.4300000000000000E-002     1.4743736227614382E-015
  -1.4249999999999999E-002     1.3390456506372994E-015
  -1.4200000000000001E-002     9.5909919086260746E-016
  -1.4149999999999999E-002     3.7119331856175374E-016
  -1.4099999999999998E-002    -3.4827063678938850E-016
  -1.4050000000000000E-002    -1.0917786723367070E-015
  -1.3999999999999999E-002    -1.7355946291429336E-015
  -1.3950000000000001E-002    -2.1590574133419391E-015
  -1.3899999999999999E-002    -2.2654752302756666E-015
  -1.3850000000000001E-002    -2.0012407482949817E-015
  -1.3800000000000000E-002    -1.3697180480240889E-015
  -1.3749999999999998E-002    -4.3695973762501271E-016
  -1.3700000000000000E-002     6.7261788447549295E-016
  -1.3649999999999999E-002     1.7909741527503943E-015
  -1.3600000000000001E-002     2.7302346384567082E-015
  -1.3550000000000000E-002     3.3124687301401910E-015
  -1.3499999999999998E-002     3.4010163031165430E-015
  -1.3450000000000000E-002     2.9281711654058439E-015
  -1.3399999999999999E-002     1.9140813737124278E-015
  -1.3350000000000001E-002     4.7266311789779485E-016
  -1.3299999999999999E-002    -1.1978900213105396E-015
  -1.3249999999999998E-002    -2.8400125967801661E-015
  -1.3200000000000000E-002    -4.1744410989212310E-015
  -1.3149999999999998E-002    -4.9455015286284534E-015
  -1.3100000000000001E-002    -4.9669989039350463E-015
  -1.3049999999999999E-002    -4.1608647774201427E-015
  -1.3000000000000001E-002    -2.5811603485399954E-015
  -1.2950000000000000E-002    -4.1784780200578838E-016
  -1.2899999999999998E-002     2.0223141061196677E-015
  -1.2850000000000000E-002     4.3566746527975483E-015
  -1.2799999999999999E-002     6.1844347711907841E-015