  -4.0000000000000001E-002     0.0000000000000000     
  -3.9949999999999999E-002     0.0000000000000000     
  -3.9899999999999998E-002     0.0000000000000000     
  -3.9850000000000003E-002     0.0000000000000000     
  -3.9800000000000002E-002     0.0000000000000000     
  -3.9750000000000001E-002     0.0000000000000000     
  -3.9699999999999999E-002     0.0000000000000000     
  -3.9649999999999998E-002     0.0000000000000000     
  -3.9600000000000003E-002     0.0000000000000000     
  -3.9550000000000002E-002     0.0000000000000000     
  -3.9500000000000000E-002     0.0000000000000000     
  -3.9449999999999999E-002     0.0000000000000000     
  -3.9399999999999998E-002     0.0000000000000000     
  -3.9350000000000003E-002     0.0000000000000000     
  -3.9300000000000002E-002     0.0000000000000000     
  -3.9250000000000000E-002     0.0000000000000000     
  -3.9199999999999999E-002     0.0000000000000000     
  -3.9150000000000004E-002     0.0000000000000000     
  -3.9100000000000003E-002     0.0000000000000000     
  -3.9050000000000001E-002     0.0000000000000000     
  -3.9000000000000000E-002     0.0000000000000000     
  -3.8949999999999999E-002     0.0000000000000000     
  -3.8900000000000004E-002     0.0000000000000000     
  -3.8850000000000003E-002     0.0000000000000000     
  -3.8800000000000001E-002     0.0000000000000000     
  -3.8750000000000000E-002     0.0000000000000000     
  -3.8699999999999998E-002     0.0000000000000000     
  -3.8650000000000004E-002     0.0000000000000000     
  -3.8600000000000002E-002     0.0000000000000000     
  -3.8550000000000001E-002     0.0000000000000000     
  -3.8500000000000000E-002     0.0000000000000000     
  -3.8449999999999998E-002     0.0000000000000000     
  -3.8400000000000004E-002     0.0000000000000000     
  -3.8350000000000002E-002     0.0000000000000000     
  -3.8300000000000001E-002     0.0000000000000000     
  -3.8249999999999999E-002     0.0000000000000000     
  -3.8199999999999998E-002     0.0000000000000000     
  -3.8150000000000003E-002     0.0000000000000000     
  -3.8100000000000002E-002     0.0000000000000000     
  -3.8050000000000000E-002     0.0000000000000000     
  -3.7999999999999999E-002     0.0000000000000000     
  -3.7949999999999998E-002     0.0000000000000000     
  -3.7900000000000003E-002     0.0000000000000000     
  -3.7850000000000002E-002     0.0000000000000000     
  -3.7800000000000000E-002     0.0000000000000000     
  -3.7749999999999999E-002     0.0000000000000000     
  -3.7699999999999997E-002     0.0000000000000000     
  -3.7650000000000003E-002    -2.2330723411078844E-039
  -3.7600000000000001E-002    -1.6654610997568694E-038
  -3.7550000000000000E-002    -3.6031293322625694E-038
  -3.7499999999999999E-002    -3.4921633459035415E-038
  -3.7449999999999997E-002     4.7605601939927431E-038
  -3.7400000000000003E-002     3.0331895578760459E-037
  -3.7350000000000001E-002     6.8598553407183361E-037
  -3.7300000000000000E-002     9.1763978710835034E-037
  -3.7249999999999998E-002     3.7704487260092988E-037
  -3.7200000000000004E-002    -1.9717106772741930E-036
  -3.7150000000000002E-002    -7.0469946101415117E-036
  -3.7100000000000001E-002    -1.4173544686132858E-035
  -3.7050000000000000E-002    -1.8550235082766522E-035
  -3.6999999999999998E-002    -8.7750307090993354E-036
  -3.6950000000000004E-002     3.2386987243596324E-035
  -3.6900000000000002E-002     1.1878514698257982E-034
  -3.6850000000000001E-002     2.3849016296097820E-034
  -3.6799999999999999E-002     3.2015778982053655E-034
  -3.6749999999999998E-002     2.0573543850710380E-034
  -3.6700000000000003E-002    -3.3081930811091882E-034
  -3.6650000000000002E-002    -1.4639767278235777E-033
  -3.6600000000000001E-002    -3.0593153484974486E-033
  -3.6549999999999999E-002    -4.3230874620733263E-033
  -3.6499999999999998E-002    -3.5589176989044130E-033
  -3.6450000000000003E-002     1.5860941820003287E-033
  -3.6400000000000002E-002     1.2932101956381375E-032
  -3.6350000000000000E-002     2.9431501271844828E-032
  -3.6299999999999999E-002     4.4243981318615011E-032
  -3.6249999999999998E-002     4.2996531426563312E-032
  -3.6200000000000003E-002     6.1688272510676258E-033
  -3.6150000000000002E-002    -8.1417435959313891E-032
  -3.6100000000000000E-002    -2.1345247817202486E-031
  -3.6049999999999999E-002    -3.4241132549754652E-031
  -3.6000000000000004E-002    -3.7000791561639416E-031
  -3.5950000000000003E-002    -1.6625694491479732E-031
  -3.5900000000000001E-002     3.6749421692186844E-031
  -3.5850000000000000E-002     1.1945068320798494E-030
  -3.5799999999999998E-002     2.0348868225352888E-030
  -3.5750000000000004E-002     2.3307667748491137E-030
  -3.5700000000000003E-002     1.3796048979391235E-030
  -3.5650000000000001E-002    -1.3054380147477855E-030
  -3.5600000000000000E-002    -5.4631321322396785E-030
  -3.5549999999999998E-002    -9.6112076369422099E-030
  -3.5500000000000004E-002    -1.1025618094074467E-029
  -3.5450000000000002E-002    -6.5774103578353379E-030
  -3.5400000000000001E-002     5.4424913605622250E-030
  -3.5349999999999999E-002     2.2985291971256632E-029
  -3.5299999999999998E-002     3.8635233430145883E-029
  -3.5250000000000004E-002     4.0473315821176081E-029
  -3.5200000000000002E-002     1.6808216699881274E-029
  -3.5150000000000001E-002    -3.5472028095093719E-029
  -3.5099999999999999E-002    -1.0195941444042616E-028
  -3.5049999999999998E-002    -1.4706487091352072E-028
  -3.5000000000000003E-002    -1.2239997153826867E-028
  -3.4950000000000002E-002     9.2405612913062482E-030
  -3.4900000000000000E-002     2.3894686437979620E-028
  -3.4849999999999999E-002     4.8173084596357148E-028
  -3.4799999999999998E-002     5.7620806440829102E-028
  -3.4750000000000003E-002     3.3687060218291857E-028
  -3.4700000000000002E-002    -3.3693432996675938E-028
  -3.4650000000000000E-002    -1.3268089881733451E-027
  -3.4599999999999999E-002    -2.2077573759132869E-027
  -3.4549999999999997E-002    -2.3004620314014801E-027
  -3.4500000000000003E-002    -9.3101082577009874E-028
  -3.4450000000000001E-002     2.1227145808693544E-027
  -3.4400000000000000E-002     6.1554250487939231E-027
  -3.4349999999999999E-002     9.3158185428511044E-027
  -3.4299999999999997E-002     8.9635529622270218E-027
  -3.4250000000000003E-002     2.7712417759258670E-027
  -3.4200000000000001E-002    -9.6140585049802717E-027
  -3.4150000000000000E-002    -2.5006082381382402E-026
  -3.4099999999999998E-002    -3.6233907224601561E-026
  -3.4049999999999997E-002    -3.3808652326006369E-026
  -3.4000000000000002E-002    -1.0042239830152933E-026
  -3.3950000000000001E-002     3.5299978930550776E-026
  -3.3900000000000000E-002     9.0199284095151881E-026
  -3.3849999999999998E-002     1.2974798815726014E-025
  -3.3799999999999997E-002     1.2250894499603131E-025
  -3.3750000000000002E-002     4.4294803961044266E-026
  -3.3700000000000001E-002    -1.0421640966751257E-025
  -3.3649999999999999E-002    -2.8378713081850392E-025
  -3.3599999999999998E-002    -4.1663894066580710E-025
  -3.3550000000000003E-002    -4.0756677587147508E-025
  -3.3500000000000002E-002    -1.8571117902407820E-025
  -3.3450000000000001E-002     2.4507577009909282E-025
  -3.3399999999999999E-002     7.7020279291138190E-025
  -3.3349999999999998E-002     1.1692771772377284E-024
  -3.3300000000000003E-002     1.1795814362477390E-024
  -3.3250000000000002E-002     6.1264386553644819E-025
  -3.3200000000000000E-002    -5.1262915376199760E-025
  -3.3149999999999999E-002    -1.8828870361060005E-024
  -3.3099999999999997E-002    -2.9166541365574297E-024
  -3.3050000000000003E-002    -2.9423435840549136E-024
  -3.3000000000000002E-002    -1.5038220782764676E-024
  -3.2950000000000000E-002     1.3082175406346630E-024
  -3.2899999999999999E-002     4.6593094111000480E-024
  -3.2850000000000004E-002     7.0693445637141499E-024
  -3.2800000000000003E-002     6.8838146411301866E-024
  -3.2750000000000001E-002     3.0384677656200319E-024
  -3.2700000000000000E-002    -4.1450913158751869E-024
  -3.2649999999999998E-002    -1.2519966082245021E-023
  -3.2600000000000004E-002    -1.8397710676024780E-023
  -3.2550000000000003E-002    -1.7710566523539054E-023
  -3.2500000000000001E-002    -7.8359122010587644E-024
  -3.2450000000000000E-002     1.0541146499346880E-023
  -3.2399999999999998E-002     3.2407579994282028E-023
  -3.2350000000000004E-002     4.9049638029780473E-023
  -3.2300000000000002E-002     5.0642906490208192E-023
  -3.2250000000000001E-002     3.0308106450168014E-023
  -3.2199999999999999E-002    -1.1720941508392257E-023
  -3.2149999999999998E-002    -6.5679312697470014E-023
  -3.2100000000000004E-002    -1.1327172402664618E-022
  -3.2050000000000002E-002    -1.3273382796293822E-022
  -3.2000000000000001E-002    -1.0695826683570421E-022
  -3.1949999999999999E-002    -3.2017735012037469E-023
  -3.1899999999999998E-002     7.7522603034781711E-023
  -3.1850000000000003E-002     1.8967807578097699E-022
  -3.1800000000000002E-002     2.6368781963777271E-022
  -3.1750000000000000E-002     2.6436207364555757E-022
  -3.1699999999999999E-002     1.7727529337770824E-022
  -3.1649999999999998E-002     1.8412665798547727E-023
  -3.1600000000000003E-002    -1.6712250007859465E-022
  -3.1550000000000002E-002    -3.1901894643083961E-022
  -3.1500000000000000E-002    -3.8458909824942850E-022
  -3.1449999999999999E-002    -3.4189180867562562E-022
  -3.1399999999999997E-002    -2.1245233669238007E-022
  -3.1350000000000003E-002    -5.5392191844117929E-023
  -3.1300000000000001E-002     5.8168515656288697E-023
  -3.1250000000000000E-002     8.2175257174397609E-023
  -3.1199999999999999E-002     2.8043788199243039E-023
  -3.1150000000000001E-002    -2.5860246978306528E-023
  -3.1100000000000003E-002     4.0259294845786428E-023
  -3.1050000000000001E-002     3.2892688510741977E-022
  -3.1000000000000000E-002     8.5249641303837385E-022
  -3.0949999999999998E-002     1.4783028013333242E-021
  -3.0900000000000000E-002     1.9261077146620471E-021
  -3.0850000000000002E-002     1.8386130935111876E-021
  -3.0800000000000001E-002     9.1856943995486156E-022
  -3.0750000000000000E-002    -9.0661647549990725E-022
  -3.0699999999999998E-002    -3.3568034558856757E-021
  -3.0650000000000000E-002    -5.7756633522159441E-021
  -3.0600000000000002E-002    -7.2556708227187261E-021
  -3.0550000000000001E-002    -6.9055949177773185E-021
  -3.0499999999999999E-002    -4.1939066240212960E-021
  -3.0449999999999998E-002     7.4725394772809349E-022
  -3.0400000000000000E-002     6.9864290061433599E-021
  -3.0350000000000002E-002     1.2918755846495338E-020
  -3.0300000000000001E-002     1.6665147513737104E-020
  -3.0249999999999999E-002     1.6652245328713138E-020
  -3.0200000000000001E-002     1.2191453614808249E-020
  -3.0150000000000000E-002     3.8407544629717785E-021
  -3.0100000000000002E-002    -6.6216127982174036E-021
  -3.0050000000000000E-002    -1.6659544203274548E-020
  -2.9999999999999999E-002    -2.3760299014622610E-020
  -2.9950000000000001E-002    -2.6269821701068937E-020
  -2.9899999999999999E-002    -2.3953011817928945E-020
  -2.9850000000000002E-002    -1.8012204725287766E-020
  -2.9800000000000000E-002    -1.0486134146295659E-020
  -2.9749999999999999E-002    -3.2131290341067456E-021
  -2.9700000000000001E-002     3.2205936508294147E-021
  -2.9650000000000003E-002     1.0022577760487568E-020
  -2.9600000000000001E-002     1.9806751954681588E-020
  -2.9550000000000000E-002     3.5180526438806753E-020
  -2.9499999999999998E-002     5.6665321735112178E-020
  -2.9450000000000000E-002     8.0737694172706766E-020
  -2.9400000000000003E-002     9.8990198143182862E-020
  -2.9350000000000001E-002     9.9259039955640540E-020
  -2.9300000000000000E-002     6.9012216448762483E-020
  -2.9249999999999998E-002     4.5145981527873706E-022
  -2.9200000000000000E-002    -1.0409101456540166E-019
  -2.9150000000000002E-002    -2.2845303806686133E-019
  -2.9100000000000001E-002    -3.4261199350714351E-019
  -2.9049999999999999E-002    -4.0753841368307657E-019
  -2.8999999999999998E-002    -3.8475678954202029E-019
  -2.8950000000000000E-002    -2.4875782617503843E-019
  -2.8900000000000002E-002     1.0327650126467690E-021
  -2.8850000000000001E-002     3.3267478828350897E-019
  -2.8799999999999999E-002     6.8196136721462011E-019
  -2.8749999999999998E-002     9.6220755797483908E-019
  -2.8700000000000000E-002     1.0827113640862600E-018
  -2.8650000000000002E-002     9.7226146273484402E-019
  -2.8600000000000000E-002     6.0198038995019307E-019
  -2.8549999999999999E-002     1.1090829583233802E-021
  -2.8500000000000001E-002    -7.3955849997378168E-019
  -2.8450000000000000E-002    -1.4791490236908446E-018
  -2.8400000000000002E-002    -2.0519480857963583E-018
  -2.8350000000000000E-002    -2.3015951619540435E-018
  -2.8299999999999999E-002    -2.1168643036554222E-018
  -2.8250000000000001E-002    -1.4609361525237960E-018
  -2.8200000000000003E-002    -3.8740389461820823E-019
  -2.8150000000000001E-002     9.6076293781656839E-019
  -2.8100000000000000E-002     2.3693385214895208E-018
  -2.8049999999999999E-002     3.5846724667219314E-018
  -2.8000000000000001E-002     4.3536316554005737E-018
  -2.7950000000000003E-002     4.4653695301940614E-018
  -2.7900000000000001E-002     3.7893233355030313E-018
  -2.7850000000000000E-002     2.3051359826499800E-018
  -2.7799999999999998E-002     1.2137909751350567E-019
  -2.7750000000000000E-002    -2.5195706090295471E-018
  -2.7700000000000002E-002    -5.2533353161567549E-018
  -2.7650000000000001E-002    -7.6249889776868226E-018
  -2.7600000000000000E-002    -9.1422678296507535E-018
  -2.7549999999999998E-002    -9.3497737302070202E-018
  -2.7500000000000000E-002    -7.9183638090047987E-018
  -2.7450000000000002E-002    -4.7374052610748830E-018
  -2.7400000000000001E-002     8.5291532659279962E-021
  -2.7349999999999999E-002     5.8002431351210693E-018
  -2.7299999999999998E-002     1.1801759727981851E-017
  -2.7250000000000000E-002     1.6947506000554508E-017
  -2.7200000000000002E-002     2.0097466641214972E-017
  -2.7150000000000001E-002     2.0242521630714808E-017
  -2.7099999999999999E-002     1.6726783736698174E-017
  -2.7049999999999998E-002     9.4436699397932090E-018
  -2.7000000000000000E-002    -1.0388882990202788E-018
  -2.6950000000000002E-002    -1.3460065105178068E-017
  -2.6900000000000000E-002    -2.5973267128862949E-017
  -2.6849999999999999E-002    -3.6375168080695747E-017
  -2.6800000000000001E-002    -4.2430697921106700E-017
  -2.6749999999999999E-002    -4.2250097257938318E-017
  -2.6700000000000002E-002    -3.4663737502666828E-017
  -2.6650000000000000E-002    -1.9538052123749980E-017
  -2.6599999999999999E-002     2.0196087583117740E-018
  -2.6550000000000001E-002     2.7610567400307866E-017
  -2.6500000000000003E-002     5.3680601182315445E-017
  -2.6450000000000001E-002     7.5859317142311004E-017
  -2.6400000000000000E-002     8.9501288061651304E-017
  -2.6349999999999998E-002     9.0399977339858454E-017
  -2.6300000000000000E-002     7.5609646344273907E-017
  -2.6250000000000002E-002     4.4267374541538848E-017
  -2.6200000000000001E-002    -1.7341462545910210E-018
  -2.6150000000000000E-002    -5.7398849141414850E-017
  -2.6099999999999998E-002    -1.1477594249045577E-016
  -2.6050000000000000E-002    -1.6372772360045388E-016
  -2.6000000000000002E-002    -1.9334058625540113E-016
  -2.5950000000000001E-002    -1.9386411728241072E-016
  -2.5899999999999999E-002    -1.5890748450037488E-016
  -2.5849999999999998E-002    -8.7485470408645770E-017
  -2.5800000000000000E-002     1.4567134639834146E-017
  -2.5750000000000002E-002     1.3427048960259004E-016
  -2.5700000000000001E-002     2.5258169773036459E-016
  -2.5649999999999999E-002     3.4695321754822737E-016
  -2.5599999999999998E-002     3.9512197598479821E-016
  -2.5550000000000000E-002     3.7956159504550491E-016
  -2.5500000000000002E-002     2.9178150915252555E-016
  -2.5450000000000000E-002     1.3554978173562735E-016
  -2.5399999999999999E-002    -7.1799726891768376E-017
  -2.5349999999999998E-002    -3.0053700266783321E-016
  -2.5300000000000000E-002    -5.1230352305296055E-016
  -2.5250000000000002E-002    -6.6608433724757977E-016
  -2.5200000000000000E-002    -7.2549418671443665E-016
  -2.5149999999999999E-002    -6.6612805473125096E-016
  -2.5100000000000001E-002    -4.8158321949785694E-016
  -2.5049999999999999E-002    -1.8687886603504980E-016
  -2.5000000000000001E-002     1.8162379993569293E-016
  -2.4950000000000000E-002     5.7012469933319858E-016
  -2.4899999999999999E-002     9.1476857167808674E-016
  -2.4850000000000001E-002     1.1515181196807702E-015
  -2.4800000000000003E-002     1.2270241327247871E-015
  -2.4750000000000001E-002     1.1087311456421077E-015
  -2.4700000000000000E-002     7.9246728813821523E-016
  -2.4649999999999998E-002     3.0607687329003809E-016
  -2.4600000000000000E-002    -2.9180180945445397E-016
  -2.4550000000000002E-002    -9.1799747559535055E-016
  -2.4500000000000001E-002    -1.4755192738256473E-015
  -2.4450000000000000E-002    -1.8674175745787510E-015
  -2.4399999999999998E-002    -2.0119309813526256E-015
  -2.4350000000000000E-002    -1.8567399713369116E-015
  -2.4299999999999999E-002    -1.3901274091616330E-015
  -2.4250000000000001E-002    -6.4712842577961330E-016
  -2.4199999999999999E-002     2.9067994397232194E-016
  -2.4150000000000001E-002     1.3023100928763009E-015
  -2.4100000000000000E-002     2.2410618049021748E-015
  -2.4049999999999998E-002     2.9534997669832180E-015
  -2.4000000000000000E-002     3.3015763772662800E-015
  -2.3949999999999999E-002     3.1851248724457022E-015
  -2.3900000000000001E-002     2.5615936471936100E-015
  -2.3850000000000000E-002     1.4598842961979590E-015
  -2.3800000000000002E-002    -1.4447911477762533E-017
  -2.3750000000000000E-002    -1.6845910177858811E-015
  -2.3699999999999999E-002    -3.3192605593676674E-015
  -2.3650000000000001E-002    -4.6601781899014573E-015
  -2.3599999999999999E-002    -5.4578855936854769E-015
  -2.3550000000000001E-002    -5.5118451400636113E-015
  -2.3500000000000000E-002    -4.7093421007011732E-015
  -2.3449999999999999E-002    -3.0568031154887424E-015
  -2.3400000000000001E-002    -6.9708948434143579E-016
  -2.3349999999999999E-002     2.0926201876685978E-015
  -2.3300000000000001E-002     4.9255134593520730E-015
  -2.3250000000000000E-002     7.3521994447997784E-015
  -2.3199999999999998E-002     8.9259347450966357E-015
  -2.3150000000000000E-002     9.2776913360724588E-015
  -2.3099999999999999E-002     8.1894254484139938E-015
  -2.3050000000000001E-002     5.6521684711629095E-015
  -2.3000000000000000E-002     1.8961570982765008E-015
  -2.2950000000000002E-002    -2.6166168758363378E-015
  -2.2900000000000000E-002    -7.2414146110244450E-015
  -2.2849999999999999E-002    -1.1238044129990971E-014
  -2.2800000000000001E-002    -1.3885528241933776E-014
  -2.2749999999999999E-002    -1.4606682753884013E-014
  -2.2700000000000001E-002    -1.3081273819272093E-014
  -2.2650000000000000E-002    -9.3262683761528763E-015
  -2.2599999999999999E-002    -3.7256424880276149E-015
  -2.2550000000000001E-002     3.0000554090955309E-015
  -2.2499999999999999E-002     9.8839985381401002E-015
  -2.2450000000000001E-002     1.5852028518574684E-014
  -2.2400000000000000E-002     1.9889618828875427E-014
  -2.2349999999999998E-002     2.1210167256072069E-014
  -2.2300000000000000E-002     1.9396364580887610E-014
  -2.2249999999999999E-002     1.4489934064132400E-014
  -2.2200000000000001E-002     7.0128023214691748E-015
  -2.2150000000000000E-002    -2.0862543364794553E-015
  -2.2100000000000002E-002    -1.1553589149369477E-014
  -2.2050000000000000E-002    -2.0004396184757075E-014
  -2.1999999999999999E-002    -2.6123064452932753E-014
  -2.1950000000000001E-002    -2.8860907191358865E-014
  -2.1899999999999999E-002    -2.7602199953815112E-014
  -2.1850000000000001E-002    -2.2273917701712037E-014
  -2.1800000000000000E-002    -1.3382324678760788E-014
  -2.1749999999999999E-002    -1.9695131771362639E-015
  -2.1700000000000001E-002     1.0506327654526308E-014
  -2.1649999999999999E-002     2.2353040833951206E-014
  -2.1600000000000001E-002     3.1866688861291290E-014
  -2.1550000000000000E-002     3.7565751595513179E-014
  -2.1499999999999998E-002     3.8406803805789991E-014
  -2.1450000000000000E-002     3.3952324636529758E-014
  -2.1399999999999999E-002     2.4466150808410060E-014
  -2.1350000000000001E-002     1.0920158813571060E-014
  -2.1299999999999999E-002    -5.0936362061514509E-015
  -2.1250000000000002E-002    -2.1539434338934735E-014
  -2.1200000000000000E-002    -3.6184543543701729E-014
  -2.1149999999999999E-002    -4.6888573399516580E-014
  -2.1100000000000001E-002    -5.1899665618232572E-014
  -2.1049999999999999E-002    -5.0119117650855654E-014
  -2.1000000000000001E-002    -4.1297533879721217E-014
  -2.0950000000000000E-002    -2.6131734299473172E-014
  -2.0899999999999998E-002    -6.2419960522386476E-015
  -2.0850000000000000E-002     1.5977020854909747E-014
  -2.0799999999999999E-002     3.7622896252680709E-014
  -2.0750000000000001E-002     5.5644603000633337E-014
  -2.0700000000000000E-002     6.7254516632513355E-014
  -2.0649999999999998E-002     7.0341935775303698E-014
  -2.0600000000000000E-002     6.3830210560832334E-014
  -2.0549999999999999E-002     4.7920302107177490E-014
  -2.0500000000000001E-002     2.4172363151485954E-014
  -2.0449999999999999E-002    -4.6051204497324169E-015
  -2.0400000000000001E-002    -3.4663218799657207E-014
  -2.0350000000000000E-002    -6.1791614715456484E-014
  -2.0299999999999999E-002    -8.1911250362290054E-014
  -2.0250000000000001E-002    -9.1697198106794225E-014
  -2.0199999999999999E-002    -8.9133394936215518E-014
  -2.0150000000000001E-002    -7.3902262651800478E-014
  -2.0100000000000000E-002    -4.7531658392476417E-014
  -2.0049999999999998E-002    -1.3257605084512784E-014
  -2.0000000000000000E-002     2.4391029639704519E-014
  -1.9949999999999999E-002     6.0229774907861408E-014
  -1.9900000000000001E-002     8.9178775901153757E-014
  -1.9850000000000000E-002     1.0702160792303238E-013
  -1.9799999999999998E-002     1.1103624843987441E-013
  -1.9750000000000000E-002     1.0039381821475926E-013
  -1.9699999999999999E-002     7.6264223569233899E-014
  -1.9650000000000001E-002     4.1621709758274829E-014
  -1.9599999999999999E-002     7.9696524945214801E-016
  -1.9550000000000001E-002    -4.1136311922401555E-014
  -1.9500000000000000E-002    -7.9032373256531647E-014
  -1.9449999999999999E-002    -1.0829771099351588E-013
  -1.9400000000000001E-002    -1.2538870860770251E-013
  -1.9349999999999999E-002    -1.2814014925355596E-013
  -1.9300000000000001E-002    -1.1591968462095011E-013
  -1.9250000000000000E-002    -8.9632906711103718E-014
  -1.9199999999999998E-002    -5.1616317826931546E-014
  -1.9150000000000000E-002    -5.4509388187326693E-015
  -1.9099999999999999E-002     4.4287087770815006E-014
  -1.9050000000000001E-002     9.2342834623187211E-014
  -1.9000000000000000E-002     1.3318223475014922E-013
  -1.8949999999999998E-002     1.6148963878469040E-013
  -1.8900000000000000E-002     1.7275604585696486E-013
  -1.8849999999999999E-002     1.6391692547252719E-013
  -1.8800000000000001E-002     1.3395836927254907E-013
  -1.8749999999999999E-002     8.4379585457864495E-014
  -1.8700000000000001E-002     1.9390388164990106E-014
  -1.8650000000000000E-002    -5.4257915857301055E-014
  -1.8599999999999998E-002    -1.2785990549669597E-013
  -1.8550000000000001E-002    -1.9174012319234946E-013
  -1.8499999999999999E-002    -2.3653092974902679E-013
  -1.8450000000000001E-002    -2.5456874885102793E-013
  -1.8400000000000000E-002    -2.4118809973377711E-013
  -1.8349999999999998E-002    -1.9568482654070850E-013
  -1.8300000000000000E-002    -1.2175664840199425E-013
  -1.8249999999999999E-002    -2.7303142137272952E-014
  -1.8200000000000001E-002     7.6432328425853565E-014
  -1.8149999999999999E-002     1.7628734670553423E-013
  -1.8100000000000002E-002     2.5898165792641987E-013
  -1.8050000000000000E-002     3.1303455905963001E-013
  -1.7999999999999999E-002     3.3050668978716376E-013
  -1.7950000000000001E-002     3.0828775885077521E-013
  -1.7899999999999999E-002     2.4871082564318708E-013
  -1.7850000000000001E-002     1.5936779949078844E-013
  -1.7800000000000000E-002     5.2118185455038625E-014
  -1.7749999999999998E-002    -5.8591810786751323E-014
  -1.7700000000000000E-002    -1.5786952167997575E-013
  -1.7649999999999999E-002    -2.3266149019565024E-013
  -1.7600000000000001E-002    -2.7382944836112159E-013
  -1.7550000000000000E-002    -2.7767733743171394E-013
  -1.7499999999999998E-002    -2.4665786035447197E-013
  -1.7450000000000000E-002    -1.8910694997732084E-013
  -1.7399999999999999E-002    -1.1800341890695899E-013
  -1.7350000000000001E-002    -4.8909694305202239E-014
  -1.7299999999999999E-002     2.6120146785757065E-015
  -1.7250000000000001E-002     2.3719482403375054E-014
  -1.7200000000000000E-002     6.7248881817275760E-015
  -1.7149999999999999E-002    -4.9141413351360336E-014
  -1.7100000000000001E-002    -1.3692951443127187E-013
  -1.7049999999999999E-002    -2.4228422850295820E-013
  -1.7000000000000001E-002    -3.4487703531822041E-013
  -1.6950000000000000E-002    -4.2081424817825560E-013
  -1.6899999999999998E-002    -4.4576703821611337E-013
  -1.6850000000000000E-002    -3.9849197061758518E-013
  -1.6799999999999999E-002    -2.6437469731017919E-013
  -1.6750000000000001E-002    -3.8618740645457444E-014
  -1.6700000000000000E-002     2.7128939108378737E-013
  -1.6649999999999998E-002     6.4418339034290862E-013
  -1.6600000000000000E-002     1.0451958067452575E-012
  -1.6549999999999999E-002     1.4273490527071047E-012
  -1.6500000000000001E-002     1.7348836128852594E-012
  -1.6449999999999999E-002     1.9082824302724567E-012
  -1.6400000000000001E-002     1.8907229874483351E-012
  -1.6350000000000000E-002     1.6354450849358801E-012
  -1.6299999999999999E-002     1.1132703372505798E-012
  -1.6250000000000001E-002     3.1934961516688005E-013
  -1.6199999999999999E-002    -7.2183869673950589E-013
  -1.6150000000000001E-002    -1.9540917459530811E-012
  -1.6100000000000000E-002    -3.2902425088702856E-012
  -1.6049999999999998E-002    -4.6161894881858406E-012
  -1.6000000000000000E-002    -5.7977913014180138E-012
  -1.5949999999999999E-002    -6.6897282831998307E-012
  -1.5900000000000001E-002    -7.1450667495767595E-012
  -1.5850000000000000E-002    -7.0241067540588341E-012
  -1.5799999999999998E-002    -6.2012029531872585E-012
  -1.5750000000000000E-002    -4.5686199454526521E-012
  -1.5699999999999999E-002    -2.0370100766803351E-012
  -1.5650000000000001E-002     1.4672270433904734E-012
  -1.5599999999999999E-002     6.0068776024445636E-012
  -1.5550000000000001E-002     1.1639854557212792E-011
  -1.5500000000000000E-002     1.8424669320112664E-011
  -1.5449999999999998E-002     2.6424031170240699E-011
  -1.5400000000000000E-002     3.5705529210477848E-011
  -1.5349999999999999E-002     4.6338872961468894E-011
  -1.5300000000000001E-002     5.8389819674701354E-011
  -1.5250000000000000E-002     7.1911494008959707E-011
  -1.5199999999999998E-002     8.6934512870778353E-011
  -1.5150000000000000E-002     1.0345740604875625E-010
  -1.5099999999999999E-002     1.2143915603123620E-010
  -1.5050000000000001E-002     1.4079547922448824E-010
  -1.4999999999999999E-002     1.6140003532736366E-010
  -1.4949999999999998E-002     1.8309099554465935E-010
  -1.4900000000000000E-002     2.0568302218864129E-010
  -1.4849999999999999E-002     2.2898348789918660E-010
  -1.4800000000000001E-002     2.5281113938549599E-010
  -1.4749999999999999E-002     2.7701482074863710E-010
  -1.4700000000000001E-002     3.0148992286933524E-010
  -1.4650000000000000E-002     3.2618957597637164E-010
  -1.4599999999999998E-002     3.5112889688816000E-010
  -1.4550000000000000E-002     3.7638145906996970E-010
  -1.4499999999999999E-002     4.0206742885125061E-010
  -1.4450000000000001E-002     4.2833570054276760E-010
  -1.4400000000000000E-002     4.5534212944617826E-010
  -1.4349999999999998E-002     4.8322669807228100E-010
  -1.4300000000000000E-002     5.1209420979633735E-010
  -1.4249999999999999E-002     5.4200014159753980E-010
  -1.4200000000000001E-002     5.7294510394700671E-010
  -1.4149999999999999E-002     6.0487772819620560E-010
  -1.4099999999999998E-002     6.3770601600197194E-010
  -1.4050000000000000E-002     6.7131476740321265E-010
  -1.3999999999999999E-002     7.0558682954246653E-010
  -1.3950000000000001E-002     7.4042382797865380E-010
  -1.3899999999999999E-002     7.7576507600210872E-010
  -1.3850000000000001E-002     8.1159983757973310E-010
  -1.3800000000000000E-002     8.4797368728316159E-010
  -1.3749999999999998E-002     8.8498637530100580E-010
  -1.3700000000000000E-002     9.2278371147464670E-010
  -1.3649999999999999E-002     9.6154216346336870E-010
  -1.3600000000000001E-002     1.0014502166167908E-009
  -1.3550000000000000E-002     1.0426888958777160E-009
  -1.3499999999999998E-002     1.0854106776332845E-009
  -1.3450000000000000E-002     1.1297235253682817E-009
  -1.3399999999999999E-002     1.1756786826208417E-009
  -1.3350000000000001E-002     1.2232668438299486E-009
  -1.3299999999999999E-002     1.2724208796545909E-009
  -1.3249999999999998E-002     1.3230277358530865E-009
  -1.3200000000000000E-002     1.3749460646431339E-009
  -1.3149999999999998E-002     1.4280297072133282E-009
  -1.3100000000000001E-002     1.4821525312852724E-009
  -1.3049999999999999E-002     1.5372317328680032E-009
  -1.3000000000000001E-002     1.5932449086165257E-009
  -1.2950000000000000E-002     1.6502397659490315E-009
  -1.2899999999999998E-002     1.7083331282028681E-009
  -1.2850000000000000E-002     1.7676988953079510E-009
  -1.2799999999999999E-002     1.8285486008966510E-009