  -4.0000000000000001E-002     0.0000000000000000     
  -3.9949999999999999E-002     0.0000000000000000     
  -3.9899999999999998E-002     0.0000000000000000     
  -3.9850000000000003E-002     0.0000000000000000     
  -3.9800000000000002E-002     0.0000000000000000     
  -3.9750000000000001E-002     0.0000000000000000     
  -3.9699999999999999E-002     0.0000000000000000     
  -3.9649999999999998E-002     0.0000000000000000     
  -3.9600000000000003E-002     0.0000000000000000     
  -3.9550000000000002E-002     0.0000000000000000     
  -3.9500000000000000E-002     0.0000000000000000     
  -3.9449999999999999E-002     0.0000000000000000     
  -3.9399999999999998E-002     0.0000000000000000     
  -3.9350000000000003E-002     0.0000000000000000     
  -3.9300000000000002E-002     0.0000000000000000     
  -3.9250000000000000E-002     0.0000000000000000     
  -3.9199999999999999E-002     0.0000000000000000     
  -3.9150000000000004E-002     0.0000000000000000     
  -3.9100000000000003E-002     0.0000000000000000     
  -3.9050000000000001E-002     0.0000000000000000     
  -3.9000000000000000E-002     0.0000000000000000     
  -3.8949999999999999E-002     0.0000000000000000     
  -3.8900000000000004E-002     0.0000000000000000     
  -3.8850000000000003E-002     0.0000000000000000     
  -3.8800000000000001E-002     0.0000000000000000     
  -3.8750000000000000E-002     0.0000000000000000     
  -3.8699999999999998E-002     0.0000000000000000     
  -3.8650000000000004E-002     0.0000000000000000     
  -3.8600000000000002E-002     0.0000000000000000     
  -3.8550000000000001E-002     0.0000000000000000     
  -3.8500000000000000E-002     0.0000000000000000     
  -3.8449999999999998E-002     0.0000000000000000     
  -3.8400000000000004E-002     0.0000000000000000     
  -3.8350000000000002E-002     0.0000000000000000     
  -3.8300000000000001E-002     0.0000000000000000     
  -3.8249999999999999E-002     0.0000000000000000     
  -3.8199999999999998E-002     0.0000000000000000     
  -3.8150000000000003E-002     0.0000000000000000     
  -3.8100000000000002E-002     0.0000000000000000     
  -3.8050000000000000E-002     0.0000000000000000     
  -3.7999999999999999E-002     0.0000000000000000     
  -3.7949999999999998E-002     0.0000000000000000     
  -3.7900000000000003E-002     0.0000000000000000     
  -3.7850000000000002E-002     0.0000000000000000     
  -3.7800000000000000E-002     0.0000000000000000     
  -3.7749999999999999E-002     0.0000000000000000     
  -3.7699999999999997E-002     0.0000000000000000     
  -3.7650000000000003E-002     0.0000000000000000     
  -3.7600000000000001E-002     0.0000000000000000     
  -3.7550000000000000E-002     0.0000000000000000     
  -3.7499999999999999E-002     0.0000000000000000     
  -3.7449999999999997E-002     0.0000000000000000     
  -3.7400000000000003E-002     0.0000000000000000     
  -3.7350000000000001E-002     0.0000000000000000     
  -3.7300000000000000E-002     0.0000000000000000     
  -3.7249999999999998E-002     0.0000000000000000     
  -3.7200000000000004E-002     0.0000000000000000     
  -3.7150000000000002E-002     0.0000000000000000     
  -3.7100000000000001E-002     0.0000000000000000     
  -3.7050000000000000E-002     0.0000000000000000     
  -3.6999999999999998E-002     0.0000000000000000     
  -3.6950000000000004E-002     0.0000000000000000     
  -3.6900000000000002E-002     0.0000000000000000     
  -3.6850000000000001E-002     0.0000000000000000     
  -3.6799999999999999E-002     0.0000000000000000     
  -3.6749999999999998E-002     0.0000000000000000     
  -3.6700000000000003E-002     0.0000000000000000     
  -3.6650000000000002E-002     0.0000000000000000     
  -3.6600000000000001E-002     0.0000000000000000     
  -3.6549999999999999E-002     0.0000000000000000     
  -3.6499999999999998E-002     0.0000000000000000     
  -3.6450000000000003E-002     0.0000000000000000     
  -3.6400000000000002E-002     0.0000000000000000     
  -3.6350000000000000E-002     0.0000000000000000     
  -3.6299999999999999E-002     0.0000000000000000     
  -3.6249999999999998E-002     0.0000000000000000     
  -3.6200000000000003E-002     0.0000000000000000     
  -3.6150000000000002E-002     0.0000000000000000     
  -3.6100000000000000E-002     0.0000000000000000     
  -3.6049999999999999E-002     0.0000000000000000     
  -3.6000000000000004E-002     0.0000000000000000     
  -3.5950000000000003E-002     0.0000000000000000     
  -3.5900000000000001E-002     0.0000000000000000     
  -3.5850000000000000E-002     0.0000000000000000     
  -3.5799999999999998E-002     0.0000000000000000     
  -3.5750000000000004E-002     0.0000000000000000     
  -3.5700000000000003E-002     0.0000000000000000     
  -3.5650000000000001E-002     0.0000000000000000     
  -3.5600000000000000E-002     0.0000000000000000     
  -3.5549999999999998E-002     0.0000000000000000     
  -3.5500000000000004E-002     0.0000000000000000     
  -3.5450000000000002E-002     0.0000000000000000     
  -3.5400000000000001E-002     0.0000000000000000     
  -3.5349999999999999E-002     0.0000000000000000     
  -3.5299999999999998E-002     0.0000000000000000     
  -3.5250000000000004E-002     0.0000000000000000     
  -3.5200000000000002E-002     0.0000000000000000     
  -3.5150000000000001E-002     0.0000000000000000     
  -3.5099999999999999E-002     0.0000000000000000     
  -3.5049999999999998E-002     0.0000000000000000     
  -3.5000000000000003E-002     0.0000000000000000     
  -3.4950000000000002E-002     0.0000000000000000     
  -3.4900000000000000E-002     0.0000000000000000     
  -3.4849999999999999E-002     0.0000000000000000     
  -3.4799999999999998E-002     0.0000000000000000     
  -3.4750000000000003E-002     0.0000000000000000     
  -3.4700000000000002E-002     0.0000000000000000     
  -3.4650000000000000E-002     0.0000000000000000     
  -3.4599999999999999E-002     0.0000000000000000     
  -3.4549999999999997E-002     0.0000000000000000     
  -3.4500000000000003E-002     0.0000000000000000     
  -3.4450000000000001E-002     0.0000000000000000     
  -3.4400000000000000E-002     0.0000000000000000     
  -3.4349999999999999E-002     0.0000000000000000     
  -3.4299999999999997E-002     0.0000000000000000     
  -3.4250000000000003E-002     0.0000000000000000     
  -3.4200000000000001E-002     0.0000000000000000     
  -3.4150000000000000E-002     0.0000000000000000     
  -3.4099999999999998E-002     0.0000000000000000     
  -3.4049999999999997E-002     0.0000000000000000     
  -3.4000000000000002E-002     0.0000000000000000     
  -3.3950000000000001E-002     0.0000000000000000     
  -3.3900000000000000E-002     0.0000000000000000     
  -3.3849999999999998E-002     0.0000000000000000     
  -3.3799999999999997E-002     0.0000000000000000     
  -3.3750000000000002E-002     0.0000000000000000     
  -3.3700000000000001E-002     0.0000000000000000     
  -3.3649999999999999E-002     0.0000000000000000     
  -3.3599999999999998E-002     0.0000000000000000     
  -3.3550000000000003E-002     0.0000000000000000     
  -3.3500000000000002E-002     0.0000000000000000     
  -3.3450000000000001E-002     0.0000000000000000     
  -3.3399999999999999E-002     0.0000000000000000     
  -3.3349999999999998E-002     0.0000000000000000     
  -3.3300000000000003E-002     0.0000000000000000     
  -3.3250000000000002E-002     0.0000000000000000     
  -3.3200000000000000E-002     0.0000000000000000     
  -3.3149999999999999E-002     0.0000000000000000     
  -3.3099999999999997E-002     0.0000000000000000     
  -3.3050000000000003E-002     0.0000000000000000     
  -3.3000000000000002E-002     0.0000000000000000     
  -3.2950000000000000E-002     0.0000000000000000     
  -3.2899999999999999E-002     0.0000000000000000     
  -3.2850000000000004E-002     0.0000000000000000     
  -3.2800000000000003E-002     0.0000000000000000     
  -3.2750000000000001E-002     0.0000000000000000     
  -3.2700000000000000E-002     0.0000000000000000     
  -3.2649999999999998E-002     0.0000000000000000     
  -3.2600000000000004E-002     0.0000000000000000     
  -3.2550000000000003E-002     0.0000000000000000     
  -3.2500000000000001E-002     0.0000000000000000     
  -3.2450000000000000E-002     0.0000000000000000     
  -3.2399999999999998E-002     0.0000000000000000     
  -3.2350000000000004E-002     0.0000000000000000     
  -3.2300000000000002E-002     0.0000000000000000     
  -3.2250000000000001E-002     0.0000000000000000     
  -3.2199999999999999E-002     0.0000000000000000     
  -3.2149999999999998E-002     0.0000000000000000     
  -3.2100000000000004E-002     0.0000000000000000     
  -3.2050000000000002E-002     0.0000000000000000     
  -3.2000000000000001E-002     0.0000000000000000     
  -3.1949999999999999E-002     0.0000000000000000     
  -3.1899999999999998E-002     0.0000000000000000     
  -3.1850000000000003E-002     0.0000000000000000     
  -3.1800000000000002E-002     0.0000000000000000     
  -3.1750000000000000E-002     0.0000000000000000     
  -3.1699999999999999E-002     0.0000000000000000     
  -3.1649999999999998E-002     0.0000000000000000     
  -3.1600000000000003E-002     0.0000000000000000     
  -3.1550000000000002E-002     0.0000000000000000     
  -3.1500000000000000E-002     0.0000000000000000     
  -3.1449999999999999E-002     0.0000000000000000     
  -3.1399999999999997E-002     0.0000000000000000     
  -3.1350000000000003E-002     0.0000000000000000     
  -3.1300000000000001E-002     0.0000000000000000     
  -3.1250000000000000E-002     0.0000000000000000     
  -3.1199999999999999E-002     0.0000000000000000     
  -3.1150000000000001E-002     0.0000000000000000     
  -3.1100000000000003E-002     0.0000000000000000     
  -3.1050000000000001E-002     0.0000000000000000     
  -3.1000000000000000E-002     0.0000000000000000     
  -3.0949999999999998E-002     0.0000000000000000     
  -3.0900000000000000E-002     0.0000000000000000     
  -3.0850000000000002E-002     0.0000000000000000     
  -3.0800000000000001E-002     0.0000000000000000     
  -3.0750000000000000E-002     0.0000000000000000     
  -3.0699999999999998E-002     0.0000000000000000     
  -3.0650000000000000E-002     0.0000000000000000     
  -3.0600000000000002E-002     0.0000000000000000     
  -3.0550000000000001E-002     0.0000000000000000     
  -3.0499999999999999E-002     0.0000000000000000     
  -3.0449999999999998E-002     0.0000000000000000     
  -3.0400000000000000E-002     0.0000000000000000     
  -3.0350000000000002E-002     0.0000000000000000     
  -3.0300000000000001E-002     0.0000000000000000     
  -3.0249999999999999E-002     0.0000000000000000     
  -3.0200000000000001E-002     0.0000000000000000     
  -3.0150000000000000E-002     0.0000000000000000     
  -3.0100000000000002E-002     0.0000000000000000     
  -3.0050000000000000E-002     0.0000000000000000     
  -2.9999999999999999E-002     0.0000000000000000     
  -2.9950000000000001E-002     0.0000000000000000     
  -2.9899999999999999E-002     0.0000000000000000     
  -2.9850000000000002E-002     0.0000000000000000     
  -2.9800000000000000E-002     0.0000000000000000     
  -2.9749999999999999E-002     0.0000000000000000     
  -2.9700000000000001E-002     0.0000000000000000     
  -2.9650000000000003E-002     0.0000000000000000     
  -2.9600000000000001E-002     0.0000000000000000     
  -2.9550000000000000E-002     0.0000000000000000     
  -2.9499999999999998E-002     0.0000000000000000     
  -2.9450000000000000E-002     0.0000000000000000     
  -2.9400000000000003E-002     0.0000000000000000     
  -2.9350000000000001E-002     0.0000000000000000     
  -2.9300000000000000E-002     0.0000000000000000     
  -2.9249999999999998E-002     0.0000000000000000     
  -2.9200000000000000E-002     0.0000000000000000     
  -2.9150000000000002E-002     0.0000000000000000     
  -2.9100000000000001E-002     0.0000000000000000     
  -2.9049999999999999E-002     0.0000000000000000     
  -2.8999999999999998E-002     0.0000000000000000     
  -2.8950000000000000E-002     0.0000000000000000     
  -2.8900000000000002E-002     0.0000000000000000     
  -2.8850000000000001E-002     0.0000000000000000     
  -2.8799999999999999E-002     0.0000000000000000     
  -2.8749999999999998E-002     0.0000000000000000     
  -2.8700000000000000E-002     0.0000000000000000     
  -2.8650000000000002E-002     0.0000000000000000     
  -2.8600000000000000E-002     0.0000000000000000     
  -2.8549999999999999E-002     0.0000000000000000     
  -2.8500000000000001E-002     0.0000000000000000     
  -2.8450000000000000E-002     0.0000000000000000     
  -2.8400000000000002E-002     0.0000000000000000     
  -2.8350000000000000E-002     0.0000000000000000     
  -2.8299999999999999E-002     0.0000000000000000     
  -2.8250000000000001E-002     0.0000000000000000     
  -2.8200000000000003E-002     0.0000000000000000     
  -2.8150000000000001E-002     0.0000000000000000     
  -2.8100000000000000E-002     0.0000000000000000     
  -2.8049999999999999E-002     0.0000000000000000     
  -2.8000000000000001E-002     0.0000000000000000     
  -2.7950000000000003E-002     0.0000000000000000     
  -2.7900000000000001E-002     0.0000000000000000     
  -2.7850000000000000E-002     0.0000000000000000     
  -2.7799999999999998E-002     0.0000000000000000     
  -2.7750000000000000E-002     0.0000000000000000     
  -2.7700000000000002E-002     0.0000000000000000     
  -2.7650000000000001E-002     0.0000000000000000     
  -2.7600000000000000E-002     0.0000000000000000     
  -2.7549999999999998E-002     0.0000000000000000     
  -2.7500000000000000E-002     0.0000000000000000     
  -2.7450000000000002E-002     0.0000000000000000     
  -2.7400000000000001E-002     0.0000000000000000     
  -2.7349999999999999E-002     0.0000000000000000     
  -2.7299999999999998E-002     0.0000000000000000     
  -2.7250000000000000E-002     0.0000000000000000     
  -2.7200000000000002E-002     0.0000000000000000     
  -2.7150000000000001E-002     0.0000000000000000     
  -2.7099999999999999E-002     0.0000000000000000     
  -2.7049999999999998E-002     0.0000000000000000     
  -2.7000000000000000E-002     0.0000000000000000     
  -2.6950000000000002E-002     0.0000000000000000     
  -2.6900000000000000E-002     0.0000000000000000     
  -2.6849999999999999E-002     0.0000000000000000     
  -2.6800000000000001E-002     0.0000000000000000     
  -2.6749999999999999E-002     0.0000000000000000     
  -2.6700000000000002E-002     0.0000000000000000     
  -2.6650000000000000E-002     0.0000000000000000     
  -2.6599999999999999E-002     0.0000000000000000     
  -2.6550000000000001E-002     0.0000000000000000     
  -2.6500000000000003E-002     0.0000000000000000     
  -2.6450000000000001E-002     0.0000000000000000     
  -2.6400000000000000E-002     0.0000000000000000     
  -2.6349999999999998E-002     0.0000000000000000     
  -2.6300000000000000E-002     0.0000000000000000     
  -2.6250000000000002E-002     0.0000000000000000     
  -2.6200000000000001E-002     0.0000000000000000     
  -2.6150000000000000E-002     0.0000000000000000     
  -2.6099999999999998E-002     0.0000000000000000     
  -2.6050000000000000E-002     0.0000000000000000     
  -2.6000000000000002E-002     0.0000000000000000     
  -2.5950000000000001E-002     0.0000000000000000     
  -2.5899999999999999E-002     0.0000000000000000     
  -2.5849999999999998E-002     0.0000000000000000     
  -2.5800000000000000E-002     0.0000000000000000     
  -2.5750000000000002E-002     0.0000000000000000     
  -2.5700000000000001E-002     0.0000000000000000     
  -2.5649999999999999E-002     0.0000000000000000     
  -2.5599999999999998E-002     0.0000000000000000     
  -2.5550000000000000E-002     0.0000000000000000     
  -2.5500000000000002E-002     0.0000000000000000     
  -2.5450000000000000E-002     0.0000000000000000     
  -2.5399999999999999E-002     0.0000000000000000     
  -2.5349999999999998E-002     0.0000000000000000     
  -2.5300000000000000E-002     0.0000000000000000     
  -2.5250000000000002E-002     0.0000000000000000     
  -2.5200000000000000E-002     0.0000000000000000     
  -2.5149999999999999E-002     0.0000000000000000     
  -2.5100000000000001E-002     0.0000000000000000     
  -2.5049999999999999E-002     0.0000000000000000     
  -2.5000000000000001E-002     0.0000000000000000     
  -2.4950000000000000E-002     0.0000000000000000     
  -2.4899999999999999E-002     0.0000000000000000     
  -2.4850000000000001E-002     0.0000000000000000     
  -2.4800000000000003E-002     0.0000000000000000     
  -2.4750000000000001E-002     0.0000000000000000     
  -2.4700000000000000E-002     0.0000000000000000     
  -2.4649999999999998E-002     0.0000000000000000     
  -2.4600000000000000E-002     0.0000000000000000     
  -2.4550000000000002E-002     0.0000000000000000     
  -2.4500000000000001E-002     0.0000000000000000     
  -2.4450000000000000E-002     0.0000000000000000     
  -2.4399999999999998E-002     0.0000000000000000     
  -2.4350000000000000E-002     0.0000000000000000     
  -2.4299999999999999E-002     0.0000000000000000     
  -2.4250000000000001E-002     0.0000000000000000     
  -2.4199999999999999E-002     0.0000000000000000     
  -2.4150000000000001E-002     0.0000000000000000     
  -2.4100000000000000E-002     0.0000000000000000     
  -2.4049999999999998E-002     0.0000000000000000     
  -2.4000000000000000E-002     0.0000000000000000     
  -2.3949999999999999E-002     0.0000000000000000     
  -2.3900000000000001E-002     0.0000000000000000     
  -2.3850000000000000E-002     0.0000000000000000     
  -2.3800000000000002E-002     0.0000000000000000     
  -2.3750000000000000E-002     0.0000000000000000     
  -2.3699999999999999E-002     0.0000000000000000     
  -2.3650000000000001E-002     0.0000000000000000     
  -2.3599999999999999E-002     0.0000000000000000     
  -2.3550000000000001E-002     0.0000000000000000     
  -2.3500000000000000E-002     0.0000000000000000     
  -2.3449999999999999E-002     0.0000000000000000     
  -2.3400000000000001E-002     0.0000000000000000     
  -2.3349999999999999E-002     0.0000000000000000     
  -2.3300000000000001E-002     0.0000000000000000     
  -2.3250000000000000E-002     0.0000000000000000     
  -2.3199999999999998E-002     0.0000000000000000     
  -2.3150000000000000E-002     0.0000000000000000     
  -2.3099999999999999E-002     0.0000000000000000     
  -2.3050000000000001E-002     0.0000000000000000     
  -2.3000000000000000E-002     0.0000000000000000     
  -2.2950000000000002E-002     0.0000000000000000     
  -2.2900000000000000E-002     0.0000000000000000     
  -2.2849999999999999E-002     0.0000000000000000     
  -2.2800000000000001E-002     0.0000000000000000     
  -2.2749999999999999E-002     0.0000000000000000     
  -2.2700000000000001E-002     0.0000000000000000     
  -2.2650000000000000E-002     0.0000000000000000     
  -2.2599999999999999E-002     0.0000000000000000     
  -2.2550000000000001E-002     0.0000000000000000     
  -2.2499999999999999E-002     0.0000000000000000     
  -2.2450000000000001E-002     0.0000000000000000     
  -2.2400000000000000E-002     0.0000000000000000     
  -2.2349999999999998E-002     0.0000000000000000     
  -2.2300000000000000E-002     0.0000000000000000     
  -2.2249999999999999E-002     0.0000000000000000     
  -2.2200000000000001E-002     0.0000000000000000     
  -2.2150000000000000E-002     0.0000000000000000     
  -2.2100000000000002E-002     0.0000000000000000     
  -2.2050000000000000E-002     0.0000000000000000     
  -2.1999999999999999E-002     0.0000000000000000     
  -2.1950000000000001E-002     2.1667464956069225E-040
  -2.1899999999999999E-002     2.1667464956069225E-040
  -2.1850000000000001E-002     2.1667464956069225E-040
  -2.1800000000000000E-002    -4.4877591217157470E-040
  -2.1749999999999999E-002    -1.0666247193385643E-039
  -2.1700000000000001E-002    -9.2895575363652123E-040
  -2.1649999999999999E-002     0.0000000000000000     
  -2.1600000000000001E-002     8.0650532718933461E-040
  -2.1550000000000000E-002     4.6863224687728394E-040
  -2.1499999999999998E-002    -7.7864849128261538E-040
  -2.1450000000000000E-002    -1.4926454298147549E-039
  -2.1399999999999999E-002    -3.0920740763130753E-040
  -2.1350000000000001E-002     2.4123419906595356E-039
  -2.1299999999999999E-002     5.0690559040664621E-039
  -2.1250000000000002E-002     5.9920100405564021E-039
  -2.1200000000000000E-002    -1.3146152758269632E-038
  -2.1149999999999999E-002    -3.8742017592648722E-038
  -2.1100000000000001E-002    -5.9896107765278766E-038
  -2.1049999999999999E-002    -8.0677920307452426E-038
  -2.1000000000000001E-002    -1.1799003940362094E-037
  -2.0950000000000000E-002    -1.6948464019335779E-037
  -2.0899999999999998E-002    -1.5678888762259700E-037
  -2.0850000000000000E-002    -7.2241028279985532E-039
  -2.0799999999999999E-002     2.7577070228985608E-037
  -2.0750000000000001E-002     5.7489163603717104E-037
  -2.0700000000000000E-002     7.6171173492998677E-037
  -2.0649999999999998E-002     7.1092097971558037E-037
  -2.0600000000000000E-002     3.7796673833506912E-037
  -2.0549999999999999E-002    -1.9970862649749484E-037
  -2.0500000000000001E-002    -9.2101938860662952E-037
  -2.0449999999999999E-002    -1.6330488694180115E-036
  -2.0400000000000001E-002    -2.1180916863572624E-036
  -2.0350000000000000E-002    -2.1078680405153199E-036
  -2.0299999999999999E-002    -1.3677048280656769E-036
  -2.0250000000000001E-002     1.5948726627554224E-037
  -2.0199999999999999E-002     2.2366687960559902E-036
  -2.0150000000000001E-002     4.3265478330844252E-036
  -2.0100000000000000E-002     5.7274806171890077E-036
  -2.0049999999999998E-002     5.7912719354782755E-036
  -2.0000000000000000E-002     4.1318533980359627E-036
  -1.9949999999999999E-002     7.6234757722003569E-037
  -1.9900000000000001E-002    -3.8501235516908839E-036
  -1.9850000000000000E-002    -8.8013190294423788E-036
  -1.9799999999999998E-002    -1.2856326949839608E-035
  -1.9750000000000000E-002    -1.4663494827818362E-035
  -1.9699999999999999E-002    -1.3085643008520081E-035
  -1.9650000000000001E-002    -7.5712431995476225E-036
  -1.9599999999999999E-002     1.5617000262470371E-036
  -1.9550000000000001E-002     1.3041968694953838E-035
  -1.9500000000000000E-002     2.4779146651102112E-035
  -1.9449999999999999E-002     3.4145505539754243E-035
  -1.9400000000000001E-002     3.8320026315394833E-035
  -1.9349999999999999E-002     3.4674594806284876E-035
  -1.9300000000000001E-002     2.1267857559310654E-035
  -1.9250000000000000E-002    -2.4816356967956898E-036
  -1.9199999999999998E-002    -3.4973027758838131E-035
  -1.9150000000000000E-002    -7.1654449932425396E-035
  -1.9099999999999999E-002    -1.0466893618211593E-034
  -1.9050000000000001E-002    -1.2334319067220563E-034
  -1.9000000000000000E-002    -1.1588278629514752E-034
  -1.8949999999999998E-002    -7.2412796321037037E-035
  -1.8900000000000000E-002     1.0904093751915572E-035
  -1.8849999999999999E-002     1.2751359729636547E-034
  -1.8800000000000001E-002     2.5733360499135811E-034
  -1.8749999999999999E-002     3.6667148068641350E-034
  -1.8700000000000001E-002     4.1284542235183620E-034
  -1.8650000000000000E-002     3.5416945856098144E-034
  -1.8599999999999998E-002     1.6421262695914370E-034
  -1.8550000000000001E-002    -1.5285812137341767E-034
  -1.8499999999999999E-002    -5.5078929650220028E-034
  -1.8450000000000001E-002    -9.3915118605900534E-034
  -1.8400000000000000E-002    -1.1950421978817473E-033
  -1.8349999999999998E-002    -1.1898871022031961E-033
  -1.8300000000000000E-002    -8.2799990175575076E-034
  -1.8249999999999999E-002    -8.8491587313460105E-035
  -1.8200000000000001E-002     9.4187325601588628E-034
  -1.8149999999999999E-002     2.0584061497023762E-033
  -1.8100000000000002E-002     2.9613662912741296E-033
  -1.8050000000000000E-002     3.3152144011923723E-033
  -1.7999999999999999E-002     2.8370096227465093E-033
  -1.7950000000000001E-002     1.3956879066713447E-033
  -1.7899999999999999E-002    -9.0427333564901256E-034
  -1.7850000000000001E-002    -3.6835043079834612E-033
  -1.7800000000000000E-002    -6.3156155147028880E-033
  -1.7749999999999998E-002    -8.0315350698623348E-033
  -1.7700000000000000E-002    -8.0903808708326184E-033
  -1.7649999999999999E-002    -5.9866944992635950E-033
  -1.7600000000000001E-002    -1.6478040719517763E-033
  -1.7550000000000000E-002     4.4319133547992433E-033
  -1.7499999999999998E-002     1.1168032099592878E-032
  -1.7450000000000000E-002     1.7005026052765082E-032
  -1.7399999999999999E-002     2.0180582565718636E-032
  -1.7350000000000001E-002     1.9106408884980470E-032
  -1.7299999999999999E-002     1.2805135349595498E-032
  -1.7250000000000001E-002     1.3180235402680332E-033
  -1.7200000000000000E-002    -1.4015347216635828E-032
  -1.7149999999999999E-002    -3.0502517272275830E-032
  -1.7100000000000001E-002    -4.4345580709228049E-032
  -1.7049999999999999E-002    -5.1226517456505398E-032
  -1.7000000000000001E-002    -4.7203757001853711E-032
  -1.6950000000000000E-002    -2.9812966057694756E-032
  -1.6899999999999998E-002     8.2432054935247187E-034
  -1.6850000000000000E-002     4.1158694151431054E-032
  -1.6799999999999999E-002     8.3953211904095369E-032
  -1.6750000000000001E-002     1.1889394864722007E-031
  -1.6700000000000000E-002     1.3423713172991264E-031
  -1.6649999999999998E-002     1.1943601320350051E-031
  -1.6600000000000000E-002     6.8389369020502202E-032
  -1.6549999999999999E-002    -1.7366465487532228E-032
  -1.6500000000000001E-002    -1.2644398326816012E-031
  -1.6449999999999999E-002    -2.3735366343161073E-031
  -1.6400000000000001E-002    -3.2098654687724746E-031
  -1.6350000000000000E-002    -3.4607610514550317E-031
  -1.6299999999999999E-002    -2.8709768908269085E-031
  -1.6250000000000001E-002    -1.3316619734541565E-031
  -1.6199999999999999E-002     1.0427743325944754E-031
  -1.6150000000000001E-002     3.8756424983638387E-031
  -1.6100000000000000E-002     6.5497311983915754E-031
  -1.6049999999999998E-002     8.3023945789233180E-031
  -1.6000000000000000E-002     8.3893788079561019E-031
  -1.5949999999999999E-002     6.2920138002827451E-031
  -1.5900000000000001E-002     1.9229866121509486E-031
  -1.5850000000000000E-002    -4.2262028452074853E-031
  -1.5799999999999998E-002    -1.1052395942373617E-030
  -1.5750000000000000E-002    -1.6962560637886534E-030
  -1.5699999999999999E-002    -2.0158810072367473E-030
  -1.5650000000000001E-002    -1.9053836933522167E-030
  -1.5599999999999999E-002    -1.2741067288754271E-030
  -1.5550000000000001E-002    -1.4108766739286275E-031
  -1.5500000000000000E-002     1.3408284406364189E-030
  -1.5449999999999998E-002     2.8889282535679827E-030
  -1.5400000000000000E-002     4.1285590785188728E-030
  -1.5349999999999999E-002     4.6638593600964775E-030
  -1.5300000000000001E-002     4.1716784303351786E-030
  -1.5250000000000000E-002     2.5010870208583258E-030
  -1.5199999999999998E-002    -2.4463372118980056E-031
  -1.5150000000000000E-002    -3.6679052279990067E-030
  -1.5099999999999999E-002    -7.0988151661151576E-030
  -1.5050000000000001E-002    -9.6893119612530398E-030
  -1.4999999999999999E-002    -1.0575092405450720E-029
  -1.4949999999999998E-002    -9.0833326944481558E-030
  -1.4900000000000000E-002    -4.9479498848978947E-030
  -1.4849999999999999E-002     1.5176699343198993E-030
  -1.4800000000000001E-002     9.3435489760939500E-030
  -1.4749999999999999E-002     1.6965846208509507E-029
  -1.4700000000000001E-002     2.2451849768952325E-029
  -1.4650000000000000E-002     2.3876326125497544E-029
  -1.4599999999999998E-002     1.9798205593868939E-029
  -1.4550000000000000E-002     9.7474874036281286E-030
  -1.4499999999999999E-002    -5.3955047423289497E-030
  -1.4450000000000001E-002    -2.3252834824854888E-029
  -1.4400000000000000E-002    -4.0134716219641739E-029
  -1.4349999999999998E-002    -5.1603845520070827E-029
  -1.4300000000000000E-002    -5.3380545409070081E-029
  -1.4249999999999999E-002    -4.2453811392051762E-029
  -1.4200000000000001E-002    -1.8173172363793032E-029
  -1.4149999999999999E-002     1.6960537495889156E-029
  -1.4099999999999998E-002     5.7087376869732547E-029
  -1.4050000000000000E-002     9.3571844022503945E-029
  -1.3999999999999999E-002     1.1643897428540559E-028
  -1.3950000000000001E-002     1.1652188009269498E-028
  -1.3899999999999999E-002     8.7960667388117802E-029
  -1.3850000000000001E-002     3.0509980274158491E-029
  -1.3800000000000000E-002    -4.8976741062415340E-029
  -1.3749999999999998E-002    -1.3646785692948775E-028
  -1.3700000000000000E-002    -2.1244874300076417E-028
  -1.3649999999999999E-002    -2.5540293833184100E-028
  -1.3600000000000001E-002    -2.4664398834560923E-028
  -1.3550000000000000E-002    -1.7561831622539918E-028
  -1.3499999999999998E-002    -4.4473626487637133E-029
  -1.3450000000000000E-002     1.2941413955396556E-028
  -1.3399999999999999E-002     3.1405962026583510E-028
  -1.3350000000000001E-002     4.6721526833839836E-028
  -1.3299999999999999E-002     5.4424601559460778E-028
  -1.3249999999999998E-002     5.0842105644972250E-028
  -1.3200000000000000E-002     3.4167037736922534E-028
  -1.3149999999999998E-002     5.3300260306385599E-029
  -1.3100000000000001E-002    -3.1590491543863509E-028
  -1.3049999999999999E-002    -6.9623150576407135E-028
  -1.3000000000000001E-002    -9.9912776012974827E-028
  -1.2950000000000000E-002    -1.1341180746198416E-027
  -1.2899999999999998E-002    -1.0300289329083452E-027
  -1.2850000000000000E-002    -6.5642315223346344E-028
  -1.2799999999999999E-002    -4.0172714572099708E-029