  -4.0000000000000001E-002     0.0000000000000000     
  -3.9949999999999999E-002     0.0000000000000000     
  -3.9899999999999998E-002     0.0000000000000000     
  -3.9850000000000003E-002     0.0000000000000000     
  -3.9800000000000002E-002     0.0000000000000000     
  -3.9750000000000001E-002     0.0000000000000000     
  -3.9699999999999999E-002     0.0000000000000000     
  -3.9649999999999998E-002     0.0000000000000000     
  -3.9600000000000003E-002     0.0000000000000000     
  -3.9550000000000002E-002     0.0000000000000000     
  -3.9500000000000000E-002     0.0000000000000000     
  -3.9449999999999999E-002     0.0000000000000000     
  -3.9399999999999998E-002     0.0000000000000000     
  -3.9350000000000003E-002     0.0000000000000000     
  -3.9300000000000002E-002     0.0000000000000000     
  -3.9250000000000000E-002     0.0000000000000000     
  -3.9199999999999999E-002     0.0000000000000000     
  -3.9150000000000004E-002     0.0000000000000000     
  -3.9100000000000003E-002     0.0000000000000000     
  -3.9050000000000001E-002     0.0000000000000000     
  -3.9000000000000000E-002     0.0000000000000000     
  -3.8949999999999999E-002     0.0000000000000000     
  -3.8900000000000004E-002     0.0000000000000000     
  -3.8850000000000003E-002     0.0000000000000000     
  -3.8800000000000001E-002     0.0000000000000000     
  -3.8750000000000000E-002     0.0000000000000000     
  -3.8699999999999998E-002     0.0000000000000000     
  -3.8650000000000004E-002     0.0000000000000000     
  -3.8600000000000002E-002     0.0000000000000000     
  -3.8550000000000001E-002     0.0000000000000000     
  -3.8500000000000000E-002     0.0000000000000000     
  -3.8449999999999998E-002     0.0000000000000000     
  -3.8400000000000004E-002     0.0000000000000000     
  -3.8350000000000002E-002     0.0000000000000000     
  -3.8300000000000001E-002     0.0000000000000000     
  -3.8249999999999999E-002     0.0000000000000000     
  -3.8199999999999998E-002     0.0000000000000000     
  -3.8150000000000003E-002     0.0000000000000000     
  -3.8100000000000002E-002     0.0000000000000000     
  -3.8050000000000000E-002     0.0000000000000000     
  -3.7999999999999999E-002     0.0000000000000000     
  -3.7949999999999998E-002     0.0000000000000000     
  -3.7900000000000003E-002     0.0000000000000000     
  -3.7850000000000002E-002     0.0000000000000000     
  -3.7800000000000000E-002     0.0000000000000000     
  -3.7749999999999999E-002     0.0000000000000000     
  -3.7699999999999997E-002     0.0000000000000000     
  -3.7650000000000003E-002     0.0000000000000000     
  -3.7600000000000001E-002     0.0000000000000000     
  -3.7550000000000000E-002     0.0000000000000000     
  -3.7499999999999999E-002     0.0000000000000000     
  -3.7449999999999997E-002     0.0000000000000000     
  -3.7400000000000003E-002     0.0000000000000000     
  -3.7350000000000001E-002     0.0000000000000000     
  -3.7300000000000000E-002     0.0000000000000000     
  -3.7249999999999998E-002     0.0000000000000000     
  -3.7200000000000004E-002     0.0000000000000000     
  -3.7150000000000002E-002     0.0000000000000000     
  -3.7100000000000001E-002     0.0000000000000000     
  -3.7050000000000000E-002     0.0000000000000000     
  -3.6999999999999998E-002     0.0000000000000000     
  -3.6950000000000004E-002     0.0000000000000000     
  -3.6900000000000002E-002     0.0000000000000000     
  -3.6850000000000001E-002     0.0000000000000000     
  -3.6799999999999999E-002     0.0000000000000000     
  -3.6749999999999998E-002     0.0000000000000000     
  -3.6700000000000003E-002     0.0000000000000000     
  -3.6650000000000002E-002     0.0000000000000000     
  -3.6600000000000001E-002     0.0000000000000000     
  -3.6549999999999999E-002     0.0000000000000000     
  -3.6499999999999998E-002     0.0000000000000000     
  -3.6450000000000003E-002     0.0000000000000000     
  -3.6400000000000002E-002     0.0000000000000000     
  -3.6350000000000000E-002     0.0000000000000000     
  -3.6299999999999999E-002     0.0000000000000000     
  -3.6249999999999998E-002     0.0000000000000000     
  -3.6200000000000003E-002     0.0000000000000000     
  -3.6150000000000002E-002     0.0000000000000000     
  -3.6100000000000000E-002     0.0000000000000000     
  -3.6049999999999999E-002     0.0000000000000000     
  -3.6000000000000004E-002     0.0000000000000000     
  -3.5950000000000003E-002     0.0000000000000000     
  -3.5900000000000001E-002     0.0000000000000000     
  -3.5850000000000000E-002     0.0000000000000000     
  -3.5799999999999998E-002     0.0000000000000000     
  -3.5750000000000004E-002     0.0000000000000000     
  -3.5700000000000003E-002     0.0000000000000000     
  -3.5650000000000001E-002     0.0000000000000000     
  -3.5600000000000000E-002     0.0000000000000000     
  -3.5549999999999998E-002     0.0000000000000000     
  -3.5500000000000004E-002     0.0000000000000000     
  -3.5450000000000002E-002     0.0000000000000000     
  -3.5400000000000001E-002     0.0000000000000000     
  -3.5349999999999999E-002     0.0000000000000000     
  -3.5299999999999998E-002     0.0000000000000000     
  -3.5250000000000004E-002    -3.1617310646332924E-039
  -3.5200000000000002E-002    -6.6178282288656163E-039
  -3.5150000000000001E-002    -7.2357655642755288E-039
  -3.5099999999999999E-002     0.0000000000000000     
  -3.5049999999999998E-002     1.8209004163338886E-038
  -3.5000000000000003E-002     3.9602663085997940E-038
  -3.4950000000000002E-002     4.9014515609858005E-038
  -3.4900000000000000E-002     2.3847799835009122E-038
  -3.4849999999999999E-002    -3.9381877116957565E-038
  -3.4799999999999998E-002    -1.3974160233393052E-037
  -3.4750000000000003E-002    -1.9983807718457468E-037
  -3.4700000000000002E-002    -1.5760873255226309E-037
  -3.4650000000000000E-002     2.9990795794438246E-038
  -3.4599999999999999E-002     3.2760105522240158E-037
  -3.4549999999999997E-002     5.9803417454610898E-037
  -3.4500000000000003E-002     6.0201048661613320E-037
  -3.4450000000000001E-002     6.9164611699541707E-038
  -3.4400000000000000E-002    -1.0884059864773184E-036
  -3.4349999999999999E-002    -2.5167911686616660E-036
  -3.4299999999999997E-002    -3.2313538459086499E-036
  -3.4250000000000003E-002    -1.7853664451232839E-036
  -3.4200000000000001E-002     3.0468765498126085E-036
  -3.4150000000000000E-002     1.0967092963993741E-035
  -3.4099999999999998E-002     1.8789644704595688E-035
  -3.4049999999999997E-002     1.9990474720063003E-035
  -3.4000000000000002E-002     6.4300521833244268E-036
  -3.3950000000000001E-002    -2.6976650688814359E-035
  -3.3900000000000000E-002    -7.5384216700189936E-035
  -3.3849999999999998E-002    -1.1800044269840330E-034
  -3.3799999999999997E-002    -1.1816071105636685E-034
  -3.3750000000000002E-002    -3.4959827373980905E-035
  -3.3700000000000001E-002     1.5159434389681194E-034
  -3.3649999999999999E-002     4.0787033601277751E-034
  -3.3599999999999998E-002     6.2272948936780151E-034
  -3.3550000000000003E-002     6.1646889225968886E-034
  -3.3500000000000002E-002     2.0379925776302927E-034
  -3.3450000000000001E-002    -6.8756916057592336E-034
  -3.3399999999999999E-002    -1.8774754437402200E-033
  -3.3349999999999998E-002    -2.8490320835001921E-033
  -3.3300000000000003E-002    -2.8178344631624520E-033
  -3.3250000000000002E-002    -1.0269633594338361E-033
  -3.3200000000000000E-002     2.7528897915180992E-033
  -3.3149999999999999E-002     7.6867188080490192E-033
  -3.3099999999999997E-002     1.1616488618172164E-032
  -3.3050000000000003E-002     1.1443230470942966E-032
  -3.3000000000000002E-002     4.3637496039125015E-033
  -3.2950000000000000E-002    -1.0212098444010659E-032
  -3.2899999999999999E-002    -2.8781213693191327E-032
  -3.2850000000000004E-002    -4.3084080716631277E-032
  -3.2800000000000003E-002    -4.1876324537375326E-032
  -3.2750000000000001E-002    -1.5664913363119531E-032
  -3.2700000000000000E-002     3.6518986155744515E-032
  -3.2649999999999998E-002     1.0106340526039368E-031
  -3.2600000000000004E-002     1.4849936871627581E-031
  -3.2550000000000003E-002     1.4075505038763518E-031
  -3.2500000000000001E-002     4.7944062518771428E-032
  -3.2450000000000000E-002    -1.2931456926223784E-031
  -3.2399999999999998E-002    -3.4169040806448255E-031
  -3.2350000000000004E-002    -4.9002331378198435E-031
  -3.2300000000000002E-002    -4.5199041621953567E-031
  -3.2250000000000001E-002    -1.3749812797046519E-031
  -3.2199999999999999E-002     4.4208100475854092E-031
  -3.2149999999999998E-002     1.1218732920785935E-030
  -3.2100000000000004E-002     1.5872287986590993E-030
  -3.2050000000000002E-002     1.4617080105956842E-030
  -3.2000000000000001E-002     4.7658811240778795E-031
  -3.1949999999999999E-002    -1.3269109571136151E-030
  -3.1899999999999998E-002    -3.4544093092365509E-030
  -3.1850000000000003E-002    -4.9805537142462872E-030
  -3.1800000000000002E-002    -4.8074919388373539E-030
  -3.1750000000000000E-002    -2.1398822745308436E-030
  -3.1699999999999999E-002     2.9663166710552266E-030
  -3.1649999999999998E-002     9.2286077943878834E-030
  -3.1600000000000003E-002     1.4205655790619909E-029
  -3.1550000000000002E-002     1.4968657334022944E-029
  -3.1500000000000000E-002     9.2983071917067974E-030
  -3.1449999999999999E-002    -2.9695286478269841E-030
  -3.1399999999999997E-002    -1.9053614202060698E-029
  -3.1350000000000003E-002    -3.3404857601583571E-029
  -3.1300000000000001E-002    -3.9261482780853862E-029
  -3.1250000000000000E-002    -3.1316295751423687E-029
  -3.1199999999999999E-002    -8.5782662022986548E-030
  -3.1150000000000001E-002     2.3905121593735156E-029
  -3.1100000000000003E-002     5.5671923297194034E-029
  -3.1050000000000001E-002     7.4224268869032297E-029
  -3.1000000000000000E-002     7.0279798209205987E-029
  -3.0949999999999998E-002     4.2750436328680241E-029
  -3.0900000000000000E-002     7.5877356376115289E-031
  -3.0850000000000002E-002    -3.9262212715111511E-029
  -3.0800000000000001E-002    -6.1260060643648765E-029
  -3.0750000000000000E-002    -5.9149160227552504E-029
  -3.0699999999999998E-002    -4.3234285444738163E-029
  -3.0650000000000000E-002    -3.8317450239788513E-029
  -3.0600000000000002E-002    -7.1189345136058804E-029
  -3.0550000000000001E-002    -1.5059349586156841E-028
  -3.0499999999999999E-002    -2.4865966002997769E-028
  -3.0449999999999998E-002    -2.9610256218334032E-028
  -3.0400000000000000E-002    -2.0119619259250893E-028
  -3.0350000000000002E-002     1.0645996177883660E-028
  -3.0300000000000001E-002     6.1997593357013999E-028
  -3.0249999999999999E-002     1.2123447351339549E-027
  -3.0200000000000001E-002     1.6366915014969077E-027
  -3.0150000000000000E-002     1.5900784646283802E-027
  -3.0100000000000002E-002     8.3698803372400788E-028
  -3.0050000000000000E-002    -6.4400039176544859E-028
  -2.9999999999999999E-002    -2.5540710608492705E-027
  -2.9950000000000001E-002    -4.2779827825463002E-027
  -2.9899999999999999E-002    -5.0399787108469439E-027
  -2.9850000000000002E-002    -4.1948197975368390E-027
  -2.9800000000000000E-002    -1.5637061228066776E-027
  -2.9749999999999999E-002     2.3309300268801072E-027
  -2.9700000000000001E-002     6.2815373586130326E-027
  -2.9650000000000003E-002     8.7426350029353007E-027
  -2.9600000000000001E-002     8.4540196682551984E-027
  -2.9550000000000000E-002     5.1272409667942437E-027
  -2.9499999999999998E-002    -1.2698062723455135E-028
  -2.9450000000000000E-002    -4.9416912251271398E-027
  -2.9400000000000003E-002    -6.5470198009973015E-027
  -2.9350000000000001E-002    -3.1670080798375427E-027
  -2.9300000000000000E-002     4.5491360907274770E-027
  -2.9249999999999998E-002     1.2793330967970325E-026
  -2.9200000000000000E-002     1.5243769294009619E-026
  -2.9150000000000002E-002     5.3655608456417852E-027
  -2.9100000000000001E-002    -2.0056934497676462E-026
  -2.9049999999999999E-002    -5.7357930462478703E-026
  -2.8999999999999998E-002    -9.4121738390139139E-026
  -2.8950000000000000E-002    -1.1065965414658501E-025
  -2.8900000000000002E-002    -8.5630324589065476E-026
  -2.8850000000000001E-002    -5.0598512980517467E-027
  -2.8799999999999999E-002     1.2778108095245942E-025
  -2.8749999999999998E-002     2.8555487987439589E-025
  -2.8700000000000000E-002     4.1720671290939975E-025
  -2.8650000000000002E-002     4.5816368457099722E-025
  -2.8600000000000000E-002     3.5002797040221801E-025
  -2.8549999999999999E-002     6.5501549006189478E-026
  -2.8500000000000001E-002    -3.6920905229949510E-025
  -2.8450000000000000E-002    -8.6383146806634663E-025
  -2.8400000000000002E-002    -1.2731141055640564E-024
  -2.8350000000000000E-002    -1.4284733506597818E-024
  -2.8299999999999999E-002    -1.1877697083194951E-024
  -2.8250000000000001E-002    -4.9108756640398557E-025
  -2.8200000000000003E-002     5.9492628519102280E-025
  -2.8150000000000001E-002     1.8620601535397258E-024
  -2.8100000000000000E-002     2.9870975056298260E-024
  -2.8049999999999999E-002     3.6010693401878258E-024
  -2.8000000000000001E-002     3.3885767436685651E-024
  -2.7950000000000003E-002     2.1924006815885352E-024
  -2.7900000000000001E-002     9.2453036355969862E-026
  -2.7850000000000000E-002    -2.5690051950170592E-024
  -2.7799999999999998E-002    -5.2316560788610148E-024
  -2.7750000000000000E-002    -7.2278851914732000E-024
  -2.7700000000000002E-002    -7.9369510738011722E-024
  -2.7650000000000001E-002    -6.9448176756810968E-024
  -2.7600000000000000E-002    -4.1677014072811974E-024
  -2.7549999999999998E-002     9.4280098546428441E-026
  -2.7500000000000000E-002     5.1883123478285842E-024
  -2.7450000000000002E-002     1.0216783845582485E-023
  -2.7400000000000001E-002     1.4193921648061632E-023
  -2.7349999999999999E-002     1.6213548186372907E-023
  -2.7299999999999998E-002     1.5593821814674433E-023
  -2.7250000000000000E-002     1.1979552810272552E-023
  -2.7200000000000002E-002     5.4017612099869034E-024
  -2.7150000000000001E-002    -3.6910958904284562E-024
  -2.7099999999999999E-002    -1.4413498326649201E-023
  -2.7049999999999998E-002    -2.5430529266781833E-023
  -2.7000000000000000E-002    -3.4971870038931643E-023
  -2.6950000000000002E-002    -4.0915165039218567E-023
  -2.6900000000000000E-002    -4.0992850126175905E-023
  -2.6849999999999999E-002    -3.3163441673474643E-023
  -2.6800000000000001E-002    -1.6146756485929191E-023
  -2.6749999999999999E-002     9.9418867664703321E-024
  -2.6700000000000002E-002     4.2994484403715347E-023
  -2.6650000000000000E-002     7.8541473027016324E-023
  -2.6599999999999999E-002     1.0981851147854940E-022
  -2.6550000000000001E-002     1.2843699718284786E-022
  -2.6500000000000003E-002     1.2572614986285050E-022
  -2.6450000000000001E-002     9.4664051590950681E-023
  -2.6400000000000000E-002     3.2137133173183773E-023
  -2.6349999999999998E-002    -5.8903026214379294E-023
  -2.6300000000000000E-002    -1.6793947989795282E-022
  -2.6250000000000002E-002    -2.7663590485415020E-022
  -2.6200000000000001E-002    -3.6033095747744813E-022
  -2.6150000000000000E-002    -3.9155157802487165E-022
  -2.6099999999999998E-002    -3.4543605403959932E-022
  -2.6050000000000000E-002    -2.0646301476890268E-022
  -2.6000000000000002E-002     2.4658288239093488E-023
  -2.5950000000000001E-002     3.2555060835484372E-022
  -2.5899999999999999E-002     6.5004284585504239E-022
  -2.5849999999999998E-002     9.3107884949709845E-022
  -2.5800000000000000E-002     1.0897353185125690E-021
  -2.5750000000000002E-002     1.0502399080658082E-021
  -2.5700000000000001E-002     7.5927708391650551E-022
  -2.5649999999999999E-002     2.0613543437941888E-022
  -2.5599999999999998E-002    -5.6116266719071811E-022
  -2.5550000000000000E-002    -1.4291835325029948E-021
  -2.5500000000000002E-002    -2.2265770822017936E-021
  -2.5450000000000000E-002    -2.7482208953605132E-021
  -2.5399999999999999E-002    -2.7948707115576629E-021
  -2.5349999999999998E-002    -2.2227759011718166E-021
  -2.5300000000000000E-002    -9.9352747293816101E-022
  -2.5250000000000002E-002     7.8833547964111226E-022
  -2.5200000000000000E-002     2.8625983587862435E-021
  -2.5149999999999999E-002     4.8350119697393782E-021
  -2.5100000000000001E-002     6.2364311392240503E-021
  -2.5049999999999999E-002     6.6138610685654439E-021
  -2.5000000000000001E-002     5.6386523137541264E-021
  -2.4950000000000000E-002     3.2096728149282929E-021
  -2.4899999999999999E-002    -4.7403063624160717E-022
  -2.4850000000000001E-002    -4.8942166916745111E-021
  -2.4800000000000003E-002    -9.2627639989448985E-021
  -2.4750000000000001E-002    -1.2640592343069403E-020
  -2.4700000000000000E-002    -1.4111639533183445E-020
  -2.4649999999999998E-002    -1.2982523346415420E-020
  -2.4600000000000000E-002    -8.9685239357182326E-021
  -2.4550000000000002E-002    -2.3240675889428604E-021
  -2.4500000000000001E-002     6.1176176361216834E-021
  -2.4450000000000000E-002     1.5016123847311613E-020
  -2.4399999999999998E-002     2.2706762542444922E-020
  -2.4350000000000000E-002     2.7472556870251432E-020
  -2.4299999999999999E-002     2.7863880730720696E-020
  -2.4250000000000001E-002     2.3011667226112854E-020
  -2.4199999999999999E-002     1.2876943853198802E-020
  -2.4150000000000001E-002    -1.6139928399772346E-021
  -2.4100000000000000E-002    -1.8584435497063414E-020
  -2.4049999999999998E-002    -3.5386589604751351E-020
  -2.4000000000000000E-002    -4.8936309353925885E-020
  -2.3949999999999999E-002    -5.6170773761801148E-020
  -2.3900000000000001E-002    -5.4575924146985937E-020
  -2.3850000000000000E-002    -4.2714349448250419E-020
  -2.3800000000000002E-002    -2.0673476416846996E-020
  -2.3750000000000000E-002     9.6495276554943974E-021
  -2.3699999999999999E-002     4.4504331157062737E-020
  -2.3650000000000001E-002     7.8546254934460171E-020
  -2.3599999999999999E-002     1.0542652663336227E-019
  -2.3550000000000001E-002     1.1869633533037696E-019
  -2.3500000000000000E-002     1.1294706171451104E-019
  -2.3449999999999999E-002     8.5042900395137463E-020
  -2.3400000000000001E-002     3.5241287414402296E-020
  -2.3349999999999999E-002    -3.2042995152172889E-020
  -2.3300000000000001E-002    -1.0807584697923603E-019
  -2.3250000000000000E-002    -1.8043927249654465E-019
  -2.3199999999999998E-002    -2.3455073408079604E-019
  -2.3150000000000000E-002    -2.5599232579791877E-019
  -2.3099999999999999E-002    -2.3338448869472430E-019
  -2.3050000000000001E-002    -1.6135106235945745E-019
  -2.3000000000000000E-002    -4.2983288031488617E-020
  -2.2950000000000002E-002     1.0883384550312140E-019
  -2.2900000000000000E-002     2.7178605883788074E-019
  -2.2849999999999999E-002     4.1650976454504310E-019
  -2.2800000000000001E-002     5.1095456606841226E-019
  -2.2749999999999999E-002     5.2626305794244825E-019
  -2.2700000000000001E-002     4.4326842727238108E-019
  -2.2650000000000000E-002     2.5837787658096346E-019
  -2.2599999999999999E-002    -1.2522993772458600E-020
  -2.2550000000000001E-002    -3.3337327824467904E-019
  -2.2499999999999999E-002    -6.5123972336222441E-019
  -2.2450000000000001E-002    -9.0371738948090918E-019
  -2.2400000000000000E-002    -1.0296685164403425E-018
  -2.2349999999999998E-002    -9.8169103762204470E-019
  -2.2300000000000000E-002    -7.3804468398926688E-019
  -2.2249999999999999E-002    -3.1147388973031464E-019
  -2.2200000000000001E-002     2.4741936999908746E-019
  -2.2150000000000000E-002     8.5385257207379649E-019
  -2.2100000000000002E-002     1.3999766312724999E-018
  -2.2050000000000000E-002     1.7723335341302362E-018
  -2.1999999999999999E-002     1.8730931651967173E-018
  -2.1950000000000001E-002     1.6413580173205306E-018
  -2.1899999999999999E-002     1.0702986105498529E-018
  -2.1850000000000001E-002     2.1615318613708956E-019
  -2.1800000000000000E-002    -8.0374361738909492E-019
  -2.1749999999999999E-002    -1.8249138756174656E-018
  -2.1700000000000001E-002    -2.6604306775772458E-018
  -2.1649999999999999E-002    -3.1328836469730497E-018
  -2.1600000000000001E-002    -3.1083535319027706E-018
  -2.1550000000000000E-002    -2.5262308400560294E-018
  -2.1499999999999998E-002    -1.4188841042699607E-018
  -2.1450000000000000E-002     8.3472407909095834E-020
  -2.1399999999999999E-002     1.7650353282846854E-018
  -2.1350000000000001E-002     3.3532144676063374E-018
  -2.1299999999999999E-002     4.5603548322430690E-018
  -2.1250000000000002E-002     5.1322262738667180E-018
  -2.1200000000000000E-002     4.8954359769338553E-018
  -2.1149999999999999E-002     3.7955653304313555E-018
  -2.1100000000000001E-002     1.9187812317697754E-018
  -2.1049999999999999E-002    -5.0808883246262574E-019
  -2.1000000000000001E-002    -3.1408851783109092E-018
  -2.0950000000000000E-002    -5.5630679702488855E-018
  -2.0899999999999998E-002    -7.3469235068905851E-018
  -2.0850000000000000E-002    -8.1227094134226527E-018
  -2.0799999999999999E-002    -7.6454328755731283E-018
  -2.0750000000000001E-002    -5.8484573390833386E-018
  -2.0700000000000000E-002    -2.8741205415385117E-018
  -2.0649999999999998E-002     9.2592368993571562E-019
  -2.0600000000000000E-002     5.0240290813807030E-018
  -2.0549999999999999E-002     8.7821193781531125E-018
  -2.0500000000000001E-002     1.1542868316995158E-017
  -2.0449999999999999E-002     1.2735033069330165E-017
  -2.0400000000000001E-002     1.1977647112607300E-017
  -2.0350000000000000E-002     9.1659607974634548E-018
  -2.0299999999999999E-002     4.5225658367621212E-018
  -2.0250000000000001E-002    -1.3994748157194340E-018
  -2.0199999999999999E-002    -7.7684805428855736E-018
  -2.0150000000000001E-002    -1.3579752880706256E-017
  -2.0100000000000000E-002    -1.7804116977235257E-017
  -2.0049999999999998E-002    -1.9559668853970969E-017
  -2.0000000000000000E-002    -1.8279918689971396E-017
  -1.9949999999999999E-002    -1.3848294250399079E-017
  -1.9900000000000001E-002    -6.6706767669882471E-018
  -1.9850000000000000E-002     2.3350975484353690E-018
  -1.9799999999999998E-002     1.1841566643692905E-017
  -1.9750000000000000E-002     2.0298820328611135E-017
  -1.9699999999999999E-002     2.6182770258383459E-017
  -1.9650000000000001E-002     2.8266182583748788E-017
  -1.9599999999999999E-002     2.5864952139019455E-017
  -1.9550000000000001E-002     1.9010937390358112E-017
  -1.9500000000000000E-002     8.5110035531359459E-018
  -1.9449999999999999E-002    -4.1307741934775725E-018
  -1.9400000000000001E-002    -1.6926688524587338E-017
  -1.9349999999999999E-002    -2.7726841522920665E-017
  -1.9300000000000001E-002    -3.4596474635981359E-017
  -1.9250000000000000E-002    -3.6180908520432294E-017
  -1.9199999999999998E-002    -3.1985989674233909E-017
  -1.9150000000000000E-002    -2.2512630585944941E-017
  -1.9099999999999999E-002    -9.2086433273350850E-018
  -1.9050000000000001E-002     5.7643994961966606E-018
  -1.9000000000000000E-002     1.9913259564534030E-017
  -1.8949999999999998E-002     3.0874637884096030E-017
  -1.8900000000000000E-002     3.6865224019167839E-017
  -1.8849999999999999E-002     3.7026485017369903E-017
  -1.8800000000000001E-002     3.1587207197012821E-017
  -1.8749999999999999E-002     2.1802603725869932E-017
  -1.8700000000000001E-002     9.6757877595847000E-018
  -1.8650000000000000E-002    -2.4836091405850357E-018
  -1.8599999999999998E-002    -1.2569290554443127E-017
  -1.8550000000000001E-002    -1.9141557120828846E-017
  -1.8499999999999999E-002    -2.1733808586778875E-017
  -1.8450000000000001E-002    -2.0922649849526329E-017
  -1.8400000000000000E-002    -1.8133682463287289E-017
  -1.8349999999999998E-002    -1.5216756704923237E-017
  -1.8300000000000000E-002    -1.3883128134541625E-017
  -1.8249999999999999E-002    -1.5138441157569027E-017
  -1.8200000000000001E-002    -1.8858503017403709E-017
  -1.8149999999999999E-002    -2.3634720825646662E-017
  -1.8100000000000002E-002    -2.6963910692133083E-017
  -1.8050000000000000E-002    -2.5782519277736593E-017
  -1.7999999999999999E-002    -1.7262627849752086E-017
  -1.7950000000000001E-002     2.8640867774616532E-019
  -1.7899999999999999E-002     2.6613128765332972E-017
  -1.7850000000000001E-002     5.9026311149664750E-017
  -1.7800000000000000E-002     9.2377672517847445E-017
  -1.7749999999999998E-002     1.1961892221717084E-016
  -1.7700000000000000E-002     1.3291811387110138E-016
  -1.7649999999999999E-002     1.2519838561184233E-016
  -1.7600000000000001E-002     9.1852171451714008E-017
  -1.7550000000000000E-002     3.2306227601584986E-017
  -1.7499999999999998E-002    -4.8912061367596741E-017
  -1.7450000000000000E-002    -1.4191644116745497E-016
  -1.7399999999999999E-002    -2.3221672978085074E-016
  -1.7350000000000001E-002    -3.0252986302003233E-016
  -1.7299999999999999E-002    -3.3549505647828770E-016
  -1.7250000000000001E-002    -3.1694127361463004E-016
  -1.7200000000000000E-002    -2.3918907152155217E-016
  -1.7149999999999999E-002    -1.0377126285715981E-016
  -1.7100000000000001E-002     7.7044285938900852E-017
  -1.7049999999999999E-002     2.8043002799492078E-016
  -1.7000000000000001E-002     4.7514549526718271E-016
  -1.6950000000000000E-002     6.2561149189448028E-016
  -1.6899999999999998E-002     6.9750246123071999E-016
  -1.6850000000000000E-002     6.6410059635931638E-016
  -1.6799999999999999E-002     5.1238388053787923E-016
  -1.6750000000000001E-002     2.4770069021679114E-016
  -1.6700000000000000E-002    -1.0405086680537881E-016
  -1.6649999999999998E-002    -4.9753824589128475E-016
  -1.6600000000000000E-002    -8.7273793175737742E-016
  -1.6549999999999999E-002    -1.1630338384139407E-015
  -1.6500000000000001E-002    -1.3057497383570268E-015
  -1.6449999999999999E-002    -1.2536232894240340E-015
  -1.6400000000000001E-002    -9.8532755171662387E-016
  -1.6350000000000000E-002    -5.1305066303289467E-016
  -1.6299999999999999E-002     1.1462892681073658E-016
  -1.6250000000000001E-002     8.1574630183650188E-016
  -1.6199999999999999E-002     1.4841385755875712E-015
  -1.6150000000000001E-002     2.0040750786415655E-015
  -1.6100000000000000E-002     2.2685393087985929E-015
  -1.6049999999999998E-002     2.1985020718563216E-015
  -1.6000000000000000E-002     1.7599979580460710E-015
  -1.5949999999999999E-002     9.7580051061134167E-016
  -1.5900000000000001E-002    -7.0990782128651078E-017
  -1.5850000000000000E-002    -1.2430707492252350E-015
  -1.5799999999999998E-002    -2.3649269801726865E-015
  -1.5750000000000000E-002    -3.2472071446405262E-015
  -1.5699999999999999E-002    -3.7163714015217496E-015
  -1.5650000000000001E-002    -3.6452629245937294E-015
  -1.5599999999999999E-002    -2.9796025391165476E-015
  -1.5550000000000001E-002    -1.7555173680755023E-015
  -1.5500000000000000E-002    -1.0417941615961306E-016
  -1.5449999999999998E-002     1.7586541801806834E-015
  -1.5400000000000000E-002     3.5581407565656149E-015
  -1.5349999999999999E-002     4.9983430740593971E-015
  -1.5300000000000001E-002     5.8078308352119790E-015
  -1.5250000000000000E-002     5.7862629096435506E-015
  -1.5199999999999998E-002     4.8444879012628822E-015
  -1.5150000000000000E-002     3.0309746908938113E-015
  -1.5099999999999999E-002     5.3887786123902929E-016
  -1.5050000000000001E-002    -2.3094196135906807E-015
  -1.4999999999999999E-002    -5.1001242325182426E-015
  -1.4949999999999998E-002    -7.3844813915162555E-015
  -1.4900000000000000E-002    -8.7467293656240822E-015
  -1.4849999999999999E-002    -8.8739077499618470E-015
  -1.4800000000000001E-002    -7.6165646714714575E-015
  -1.4749999999999999E-002    -5.0297060099703887E-015
  -1.4700000000000001E-002    -1.3853883110183750E-015
  -1.4650000000000000E-002     2.8480563492708589E-015
  -1.4599999999999998E-002     7.0603806804461778E-015
  -1.4550000000000000E-002     1.0582232426079817E-014
  -1.4499999999999999E-002     1.2786153369545980E-014
  -1.4450000000000001E-002     1.3191428585225405E-014
  -1.4400000000000000E-002     1.1556250744754098E-014
  -1.4349999999999998E-002     7.9408887041794574E-015
  -1.4300000000000000E-002     2.7284736566361000E-015
  -1.4249999999999999E-002    -3.4045253543715178E-015
  -1.4200000000000001E-002    -9.5686116399967006E-015
  -1.4149999999999999E-002    -1.4784491154523791E-014
  -1.4099999999999998E-002    -1.8133290976634087E-014
  -1.4050000000000000E-002    -1.8911635674380294E-014
  -1.3999999999999999E-002    -1.6766294834451195E-014
  -1.3950000000000001E-002    -1.1783940605801250E-014
  -1.3899999999999999E-002    -4.5166735875032397E-015
  -1.3850000000000001E-002     4.0670036983648445E-015
  -1.3800000000000000E-002     1.2704457984930937E-014
  -1.3749999999999998E-002     2.0020425066027120E-014
  -1.3700000000000000E-002     2.4742441930860841E-014
  -1.3649999999999999E-002     2.5916874758190384E-014
  -1.3600000000000001E-002     2.3089323195759009E-014
  -1.3550000000000000E-002     1.6416312338911964E-014
  -1.3499999999999998E-002     6.6843741380248195E-015
  -1.3450000000000000E-002    -4.7733052370651151E-015
  -1.3399999999999999E-002    -1.6255993880888971E-014
  -1.3350000000000001E-002    -2.5946685287593609E-014
  -1.3299999999999999E-002    -3.2198454723345330E-014
  -1.3249999999999998E-002    -3.3810565301310461E-014
  -1.3200000000000000E-002    -3.0248160298877436E-014
  -1.3149999999999998E-002    -2.1766228088897747E-014
  -1.3100000000000001E-002    -9.4125882958805673E-015
  -1.3049999999999999E-002     5.0968271383709693E-015
  -1.3000000000000001E-002     1.9615973707179516E-014
  -1.2950000000000000E-002     3.1887003107369845E-014
  -1.2899999999999998E-002     3.9890880281421812E-014
  -1.2850000000000000E-002     4.2175710892067646E-014
  -1.2799999999999999E-002     3.8109680246878762E-014