  -4.0000000000000001E-002     0.0000000000000000     
  -3.9949999999999999E-002     0.0000000000000000     
  -3.9899999999999998E-002     0.0000000000000000     
  -3.9850000000000003E-002     0.0000000000000000     
  -3.9800000000000002E-002     0.0000000000000000     
  -3.9750000000000001E-002     0.0000000000000000     
  -3.9699999999999999E-002     0.0000000000000000     
  -3.9649999999999998E-002     0.0000000000000000     
  -3.9600000000000003E-002     0.0000000000000000     
  -3.9550000000000002E-002     0.0000000000000000     
  -3.9500000000000000E-002     0.0000000000000000     
  -3.9449999999999999E-002     0.0000000000000000     
  -3.9399999999999998E-002     0.0000000000000000     
  -3.9350000000000003E-002     0.0000000000000000     
  -3.9300000000000002E-002    -2.1916371622918249E-039
  -3.9250000000000000E-002    -4.0279740849573425E-038
  -3.9199999999999999E-002    -3.1138800328237878E-037
  -3.9150000000000004E-002    -1.3071013160162031E-036
  -3.9100000000000003E-002    -1.2640781338197226E-036
  -3.9050000000000001E-002     2.2738218959464355E-035
  -3.9000000000000000E-002     1.8839332729450146E-034
  -3.8949999999999999E-002     8.8348925419945447E-034
  -3.8900000000000004E-002     2.9321651946150759E-033
  -3.8850000000000003E-002     6.9835749029873941E-033
  -3.8800000000000001E-002     9.9633953013669484E-033
  -3.8750000000000000E-002    -4.6391552652531186E-033
  -3.8699999999999998E-002    -8.2139700472642898E-032
  -3.8650000000000004E-002    -2.9999503459609994E-031
  -3.8600000000000002E-002    -7.0510511945765346E-031
  -3.8550000000000001E-002    -1.0954402043077153E-030
  -3.8500000000000000E-002    -6.0025744943303634E-031
  -3.8449999999999998E-002     2.7200003743822939E-030
  -3.8400000000000004E-002     1.1440897691649464E-029
  -3.8350000000000002E-002     2.6008678608392386E-029
  -3.8300000000000001E-002     3.8324466679668224E-029
  -3.8249999999999999E-002     2.3168974585059189E-029
  -3.8199999999999998E-002    -6.4128580708667218E-029
  -3.8150000000000003E-002    -2.6604031557678635E-028
  -3.8100000000000002E-002    -5.5645463944111991E-028
  -3.8050000000000000E-002    -7.2909980586702656E-028
  -3.7999999999999999E-002    -3.0117839582693221E-028
  -3.7949999999999998E-002     1.4109988373616448E-027
  -3.7900000000000003E-002     4.8152395149722854E-027
  -3.7850000000000002E-002     9.0193503688465367E-027
  -3.7800000000000000E-002     1.0512292905766813E-026
  -3.7749999999999999E-002     2.5659823199770509E-027
  -3.7699999999999997E-002    -2.2789200426750280E-026
  -3.7650000000000003E-002    -6.8249147187616348E-026
  -3.7600000000000001E-002    -1.2000266613147248E-025
  -3.7550000000000000E-002    -1.3613213657256525E-025
  -3.7499999999999999E-002    -4.5487699578801702E-026
  -3.7449999999999997E-002     2.2740456914026891E-025
  -3.7400000000000003E-002     6.9960452462310990E-025
  -3.7350000000000001E-002     1.2366496348919206E-024
  -3.7300000000000000E-002     1.4724779619040156E-024
  -3.7249999999999998E-002     8.2614857176505255E-025
  -3.7200000000000004E-002    -1.2857911587744903E-024
  -3.7150000000000002E-002    -4.9928232981419657E-024
  -3.7100000000000001E-002    -9.3648426289086612E-024
  -3.7050000000000000E-002    -1.1968462734076938E-023
  -3.6999999999999998E-002    -9.0861507214442044E-024
  -3.6950000000000004E-002     2.9101072404865326E-024
  -3.6900000000000002E-002     2.4926729051728588E-023
  -3.6850000000000001E-002     5.1974439762933079E-023
  -3.6799999999999999E-002     7.1198065627417422E-023
  -3.6749999999999998E-002     6.3525611112365844E-023
  -3.6700000000000003E-002     1.0878529016338972E-023
  -3.6650000000000002E-002    -9.1330646574716806E-023
  -3.6600000000000001E-002    -2.2048558217528193E-022
  -3.6549999999999999E-002    -3.1989867131301557E-022
  -3.6499999999999998E-002    -3.0845078143845929E-022
  -3.6450000000000003E-002    -1.1276826359077205E-022
  -3.6400000000000002E-002     2.8225660022104490E-022
  -3.6350000000000000E-002     7.8351351440688985E-022
  -3.6299999999999999E-002     1.1718969065347063E-021
  -3.6249999999999998E-002     1.1493955528318610E-021
  -3.6200000000000003E-002     4.6486943756256774E-022
  -3.6150000000000002E-002    -9.0739323446822842E-022
  -3.6100000000000000E-002    -2.6109664618775066E-021
  -3.6049999999999999E-002    -3.8799164234909392E-021
  -3.6000000000000004E-002    -3.7353038337094644E-021
  -3.5950000000000003E-002    -1.4221240671013664E-021
  -3.5900000000000001E-002     3.0299788246800396E-021
  -3.5850000000000000E-002     8.3782149794329046E-021
  -3.5799999999999998E-002     1.2191518312161507E-020
  -3.5750000000000004E-002     1.1561542953601880E-020
  -3.5700000000000003E-002     4.4605295096823307E-021
  -3.5650000000000001E-002    -8.6852563486273583E-021
  -3.5600000000000000E-002    -2.3982848864226439E-020
  -3.5549999999999998E-002    -3.4470539960842319E-020
  -3.5500000000000004E-002    -3.2400715609676797E-020
  -3.5450000000000002E-002    -1.3052895540782822E-020
  -3.5400000000000001E-002     2.1304699067946082E-020
  -3.5349999999999999E-002     5.9422362086431606E-020
  -3.5299999999999998E-002     8.3054879525222960E-020
  -3.5250000000000004E-002     7.3659413052919510E-020
  -3.5200000000000002E-002     2.2275925348075427E-020
  -3.5150000000000001E-002    -6.1370234628239789E-020
  -3.5099999999999999E-002    -1.4583595279559479E-019
  -3.5049999999999998E-002    -1.8531708594932041E-019
  -3.5000000000000003E-002    -1.3798118731530302E-019
  -3.4950000000000002E-002     9.7689468279428275E-021
  -3.4900000000000000E-002     2.2344013872502752E-019
  -3.4849999999999999E-002     4.1734046825998614E-019
  -3.4799999999999998E-002     4.7688415335468733E-019
  -3.4750000000000003E-002     3.0532412273120223E-019
  -3.4700000000000002E-002    -1.1900390553136319E-019
  -3.4650000000000000E-002    -6.9964152113817283E-019
  -3.4599999999999999E-002    -1.2202593587791162E-018
  -3.4549999999999997E-002    -1.4009688666384901E-018
  -3.4500000000000003E-002    -1.0071044583118313E-018
  -3.4450000000000001E-002     2.2619121816986291E-020
  -3.4400000000000000E-002     1.4825618673379562E-018
  -3.4349999999999999E-002     2.8971481662716560E-018
  -3.4299999999999997E-002     3.6402458549368712E-018
  -3.4250000000000003E-002     3.1620396356785958E-018
  -3.4200000000000001E-002     1.2542573711802390E-018
  -3.4150000000000000E-002    -1.7538852638636390E-018
  -3.4099999999999998E-002    -4.9769420389932016E-018
  -3.4049999999999997E-002    -7.1907422738189397E-018
  -3.4000000000000002E-002    -7.2560940394596322E-018
  -3.3950000000000001E-002    -4.6190406269230582E-018
  -3.3900000000000000E-002     3.0975748499122142E-019
  -3.3849999999999998E-002     6.0914706424994534E-018
  -3.3799999999999997E-002     1.0617250368178690E-017
  -3.3750000000000002E-002     1.1836694749334652E-017
  -3.3700000000000001E-002     8.6327710364074526E-018
  -3.3649999999999999E-002     1.5034224046206135E-018
  -3.3599999999999998E-002    -7.2861755215303246E-018
  -3.3550000000000003E-002    -1.4268274204432718E-017
  -3.3500000000000002E-002    -1.5980191908212886E-017
  -3.3450000000000001E-002    -1.0452998753377576E-017
  -3.3399999999999999E-002     1.5797911100848318E-018
  -3.3349999999999998E-002     1.6323287765749803E-017
  -3.3300000000000003E-002     2.7757467505125766E-017
  -3.3250000000000002E-002     2.9601440330479128E-017
  -3.3200000000000000E-002     1.7867273790954902E-017
  -3.3149999999999999E-002    -6.8875687694653028E-018
  -3.3099999999999997E-002    -3.8571436748689142E-017
  -3.3050000000000003E-002    -6.6504453302039919E-017
  -3.3000000000000002E-002    -7.8362752351949349E-017
  -3.2950000000000000E-002    -6.4436206685403270E-017
  -3.2899999999999999E-002    -2.1884916077665151E-017
  -3.2850000000000004E-002     4.2574094863129376E-017
  -3.2800000000000003E-002     1.1283736260004596E-016
  -3.2750000000000001E-002     1.6692883321110840E-016
  -3.2700000000000000E-002     1.8323100336477263E-016
  -3.2649999999999998E-002     1.4773957106245950E-016
  -3.2600000000000004E-002     6.0018387839195281E-017
  -3.2550000000000003E-002    -6.4368214152632165E-017
  -3.2500000000000001E-002    -1.9626741532889589E-016
  -3.2450000000000000E-002    -3.0002719944249299E-016
  -3.2399999999999998E-002    -3.4347221494543383E-016
  -3.2350000000000004E-002    -3.0778528628795878E-016
  -3.2300000000000002E-002    -1.9403882930104935E-016
  -3.2250000000000001E-002    -2.3973880742475874E-017
  -3.2199999999999999E-002     1.6557674914604881E-016
  -3.2149999999999998E-002     3.3303528077543306E-016
  -3.2100000000000004E-002     4.4380749699352809E-016
  -3.2050000000000002E-002     4.7931431725263107E-016
  -3.2000000000000001E-002     4.4005867714405919E-016
  -3.1949999999999999E-002     3.4162510716926058E-016
  -3.1899999999999998E-002     2.0532426311005587E-016
  -3.1850000000000003E-002     4.7600562314050173E-017
  -3.1800000000000002E-002    -1.2673330494103029E-016
  -3.1750000000000000E-002    -3.2348870275848792E-016
  -3.1699999999999999E-002    -5.4942099192472888E-016
  -3.1649999999999998E-002    -7.9698982944763860E-016
  -3.1600000000000003E-002    -1.0301346564799472E-015
  -3.1550000000000002E-002    -1.1789831780701203E-015
  -3.1500000000000000E-002    -1.1496511501689506E-015
  -3.1449999999999999E-002    -8.5049406133850812E-016
  -3.1399999999999997E-002    -2.2964130518370513E-016
  -3.1350000000000003E-002     6.8741825076153590E-016
  -3.1300000000000001E-002     1.7745692151517951E-015
  -3.1250000000000000E-002     2.8089389378828969E-015
  -3.1199999999999999E-002     3.5081297851493563E-015
  -3.1150000000000001E-002     3.5968508329718496E-015
  -3.1100000000000003E-002     2.8881776164056917E-015
  -3.1050000000000001E-002     1.3569149334681699E-015
  -3.1000000000000000E-002    -8.1903018737697298E-016
  -3.0949999999999998E-002    -3.2672585438591119E-015
  -3.0900000000000000E-002    -5.4846713771428190E-015
  -3.0850000000000002E-002    -6.9455221077150515E-015
  -3.0800000000000001E-002    -7.2281989232678078E-015
  -3.0750000000000000E-002    -6.1271030066739028E-015
  -3.0699999999999998E-002    -3.7175709822033130E-015
  -3.0650000000000000E-002    -3.5351794316397254E-016
  -3.0600000000000002E-002     3.4037098908288864E-015
  -3.0550000000000001E-002     6.9064861097750948E-015
  -3.0499999999999999E-002     9.5581003956042260E-015
  -3.0449999999999998E-002     1.0927395590691302E-014
  -3.0400000000000000E-002     1.0810290456008141E-014
  -3.0350000000000002E-002     9.2262265765081323E-015
  -3.0300000000000001E-002     6.3607852827266755E-015
  -3.0249999999999999E-002     2.4851650802040383E-015
  -3.0200000000000001E-002    -2.1085397762496000E-015
  -3.0150000000000000E-002    -7.1245531890507380E-015
  -3.0100000000000002E-002    -1.2222881235418775E-014
  -3.0050000000000000E-002    -1.6939695761555867E-014
  -2.9999999999999999E-002    -2.0613181728231733E-014
  -2.9950000000000001E-002    -2.2371203832091368E-014
  -2.9899999999999999E-002    -2.1227750868752809E-014
  -2.9850000000000002E-002    -1.6303724181989626E-014
  -2.9800000000000000E-002    -7.1418769110028944E-015
  -2.9749999999999999E-002     5.9608674198825850E-015
  -2.9700000000000001E-002     2.1711259458528219E-014
  -2.9650000000000003E-002     3.7776720031026885E-014
  -2.9600000000000001E-002     5.1016565042019970E-014
  -2.9550000000000000E-002     5.7997734389857694E-014
  -2.9499999999999998E-002     5.5724805051346225E-014
  -2.9450000000000000E-002     4.2439550752278685E-014
  -2.9400000000000003E-002     1.8299351118981724E-014
  -2.9350000000000001E-002    -1.4256527651564449E-014
  -2.9300000000000000E-002    -5.0593679944381781E-014
  -2.9249999999999998E-002    -8.4470803382960345E-014
  -2.9200000000000000E-002    -1.0906400780878325E-013
  -2.9150000000000002E-002    -1.1825394848064353E-013
  -2.9100000000000001E-002    -1.0792792202585640E-013
  -2.9049999999999999E-002    -7.7027331346030727E-014
  -2.8999999999999998E-002    -2.8108194250397101E-014
  -2.8950000000000000E-002     3.2729234577690454E-014
  -2.8900000000000002E-002     9.6566740154987608E-014
  -2.8850000000000001E-002     1.5295169039138556E-013
  -2.8799999999999999E-002     1.9153743189585952E-013
  -2.8749999999999998E-002     2.0381764325182143E-013
  -2.8700000000000000E-002     1.8467737319561518E-013
  -2.8650000000000002E-002     1.3351304864471159E-013
  -2.8600000000000000E-002     5.4736912516627698E-014
  -2.8549999999999999E-002    -4.2435711726017566E-014
  -2.8500000000000001E-002    -1.4492824563714430E-013
  -2.8450000000000000E-002    -2.3739612727430292E-013
  -2.8400000000000002E-002    -3.0430973250319134E-013
  -2.8350000000000000E-002    -3.3228899559607156E-013
  -2.8299999999999999E-002    -3.1238886403366252E-013
  -2.8250000000000001E-002    -2.4199563028094133E-013
  -2.8200000000000003E-002    -1.2599425555620492E-013
  -2.8150000000000001E-002     2.3081361721047130E-014
  -2.8100000000000000E-002     1.8608805013373364E-013
  -2.8049999999999999E-002     3.3950475666453334E-013
  -2.8000000000000001E-002     4.5864907381482228E-013
  -2.7950000000000003E-002     5.2146519723206763E-013
  -2.7900000000000001E-002     5.1230755594553439E-013
  -2.7850000000000000E-002     4.2507411579531265E-013
  -2.7799999999999998E-002     2.6508898174604175E-013
  -2.7750000000000000E-002     4.9303953361146363E-014
  -2.7700000000000002E-002    -1.9534488757005211E-013
  -2.7650000000000001E-002    -4.3527487341426660E-013
  -2.7600000000000000E-002    -6.3483889782224359E-013
  -2.7549999999999998E-002    -7.6147912456516220E-013
  -2.7500000000000000E-002    -7.9067698710399667E-013
  -2.7450000000000002E-002    -7.0995756197572637E-013
  -2.7400000000000001E-002    -5.2136013064325624E-013
  -2.7349999999999999E-002    -2.4202369647600559E-013
  -2.7299999999999998E-002     9.7199285258197886E-014
  -2.7250000000000000E-002     4.5494134513869342E-013
  -2.7200000000000002E-002     7.8397681347135221E-013
  -2.7150000000000001E-002     1.0368512992183480E-012
  -2.7099999999999999E-002     1.1719183008817173E-012
  -2.7049999999999998E-002     1.1591772972370907E-012
  -2.7000000000000000E-002     9.8527661219156350E-013
  -2.6950000000000002E-002     6.5704524170935431E-013
  -2.6900000000000000E-002     2.0293961576011405E-013
  -2.6849999999999999E-002    -3.2810122668990226E-013
  -2.6800000000000001E-002    -8.7069817112858135E-013
  -2.6749999999999999E-002    -1.3499481468378417E-012
  -2.6700000000000002E-002    -1.6907542612609346E-012
  -2.6650000000000000E-002    -1.8286208836549584E-012
  -2.6599999999999999E-002    -1.7205173018329596E-012
  -2.6550000000000001E-002    -1.3541111801517548E-012
  -2.6500000000000003E-002    -7.5363122432579730E-013
  -2.6450000000000001E-002     1.9119060911352213E-014
  -2.6400000000000000E-002     8.6947832983225069E-013
  -2.6349999999999998E-002     1.6804130586640544E-012
  -2.6300000000000000E-002     2.3278277899406139E-012
  -2.6250000000000002E-002     2.6988216472311132E-012
  -2.6200000000000001E-002     2.7102861495112138E-012
  -2.6150000000000000E-002     2.3248798954498641E-012
  -2.6099999999999998E-002     1.5615280533638279E-012
  -2.6050000000000000E-002     4.9819025777550428E-013
  -2.6000000000000002E-002    -7.3433421606918071E-013
  -2.5950000000000001E-002    -1.9674648434272388E-012
  -2.5899999999999999E-002    -3.0172298547477719E-012
  -2.5849999999999998E-002    -3.7111285150568727E-012
  -2.5800000000000000E-002    -3.9156179580410081E-012
  -2.5750000000000002E-002    -3.5599211874399118E-012
  -2.5700000000000001E-002    -2.6520411234398868E-012
  -2.5649999999999999E-002    -1.2837650638259009E-012
  -2.5599999999999998E-002     3.7704723450911051E-013
  -2.5550000000000000E-002     2.1066554749092703E-012
  -2.5500000000000002E-002     3.6557932204819088E-012
  -2.5450000000000000E-002     4.7860021786216024E-012
  -2.5399999999999999E-002     5.3064535086845978E-012
  -2.5349999999999998E-002     5.1053393580002148E-012
  -2.5300000000000000E-002     4.1704742391970157E-012
  -2.5250000000000002E-002     2.5953088728377736E-012
  -2.5200000000000000E-002     5.6888575189444190E-013
  -2.5149999999999999E-002    -1.6490816840171333E-012
  -2.5100000000000001E-002    -3.7642715233774139E-012
  -2.5049999999999999E-002    -5.4893294127088975E-012
  -2.5000000000000001E-002    -6.5844259469721398E-012
  -2.4950000000000000E-002    -6.8905613274271959E-012
  -2.4899999999999999E-002    -6.3507445259879907E-012
  -2.4850000000000001E-002    -5.0163729184927818E-012
  -2.4800000000000003E-002    -3.0386170701980039E-012
  -2.4750000000000001E-002    -6.4691998295674222E-013
  -2.4700000000000000E-002     1.8815683781458550E-012
  -2.4649999999999998E-002     4.2569652234276672E-012
  -2.4600000000000000E-002     6.2113722542121355E-012
  -2.4550000000000002E-002     7.5293517224414304E-012
  -2.4500000000000001E-002     8.0711980097886125E-012
  -2.4450000000000000E-002     7.7871370443804837E-012
  -2.4399999999999998E-002     6.7215020555993188E-012
  -2.4350000000000000E-002     5.0066612217227798E-012
  -2.4299999999999999E-002     2.8470850224362596E-012
  -2.4250000000000001E-002     4.9459900984925022E-013
  -2.4199999999999999E-002    -1.7832210232429928E-012
  -2.4150000000000001E-002    -3.7384540936207032E-012
  -2.4100000000000000E-002    -5.1777714674332083E-012
  -2.4049999999999998E-002    -5.9917375758921328E-012
  -2.4000000000000000E-002    -6.1730572772302869E-012
  -2.3949999999999999E-002    -5.8191814200020954E-012
  -2.3900000000000001E-002    -5.1166585628404136E-012
  -2.3850000000000000E-002    -4.3076017431177314E-012
  -2.3800000000000002E-002    -3.6421201013867383E-012
  -2.3750000000000000E-002    -3.3237403559062347E-012
  -2.3699999999999999E-002    -3.4569866147385029E-012
  -2.3650000000000001E-002    -4.0066905570413670E-012
  -2.3599999999999999E-002    -4.7770540762521205E-012
  -2.3550000000000001E-002    -5.4151492447607886E-012
  -2.3500000000000000E-002    -5.4391305021892772E-012
  -2.3449999999999999E-002    -4.2868952766101466E-012
  -2.3400000000000001E-002    -1.3772980420055372E-012
  -2.3349999999999999E-002     3.8259166597543896E-012
  -2.3300000000000001E-002     1.1757203048139929E-011
  -2.3250000000000000E-002     2.2706966827777470E-011
  -2.3199999999999998E-002     3.6798496825304518E-011
  -2.3150000000000000E-002     5.3984880644588735E-011
  -2.3099999999999999E-002     7.4063770104239717E-011
  -2.3050000000000001E-002     9.6705782642111025E-011
  -2.3000000000000000E-002     1.2149188557033003E-010
  -2.2950000000000002E-002     1.4795538179798410E-010
  -2.2900000000000000E-002     1.7562522032930830E-010
  -2.2849999999999999E-002     2.0406796474376300E-010
  -2.2800000000000001E-002     2.3292612179066635E-010
  -2.2749999999999999E-002     2.6195005597208699E-010
  -2.2700000000000001E-002     2.9102001950846548E-010
  -2.2650000000000000E-002     3.2015415846161890E-010
  -2.2599999999999999E-002     3.4949923107843845E-010
  -2.2550000000000001E-002     3.7930255646331821E-010
  -2.2499999999999999E-002     4.0986680931027924E-010
  -2.2450000000000001E-002     4.4149289909761470E-010
  -2.2400000000000000E-002     4.7442022779409407E-010
  -2.2349999999999998E-002     5.0877503458430595E-010
  -2.2300000000000000E-002     5.4453786880611211E-010
  -2.2249999999999999E-002     5.8153808225817254E-010
  -2.2200000000000001E-002     6.1947830417953931E-010
  -2.2150000000000000E-002     6.5798566655105716E-010
  -2.2100000000000002E-002     6.9668065033457669E-010
  -2.2050000000000000E-002     7.3524951804300363E-010
  -2.1999999999999999E-002     7.7350627720467353E-010
  -2.1950000000000001E-002     8.1143192058128611E-010
  -2.1899999999999999E-002     8.4918250846925179E-010
  -2.1850000000000001E-002     8.8706582677534428E-010
  -2.1800000000000000E-002     9.2549209567409554E-010
  -2.1749999999999999E-002     9.6490902143262110E-010
  -2.1700000000000001E-002     1.0057337597040894E-009
  -2.1649999999999999E-002     1.0482941298367572E-009
  -2.1600000000000001E-002     1.0927880541910267E-009
  -2.1550000000000000E-002     1.1392660910173446E-009
  -2.1499999999999998E-002     1.1876360541861316E-009
  -2.1450000000000000E-002     1.2376873454868152E-009
  -2.1399999999999999E-002     1.2891283153813463E-009
  -2.1350000000000001E-002     1.3416318433639005E-009
  -2.1299999999999999E-002     1.3948819131874471E-009
  -2.1250000000000002E-002     1.4486193998403723E-009
  -2.1200000000000000E-002     1.5026809670262749E-009
  -2.1149999999999999E-002     1.5570292377289736E-009
  -2.1100000000000001E-002     1.6117685525280154E-009
  -2.1049999999999999E-002     1.6671447085418944E-009
  -2.1000000000000001E-002     1.7235248259087466E-009
  -2.0950000000000000E-002     1.7813567624776092E-009
  -2.0899999999999998E-002     1.8411124185362465E-009
  -2.0850000000000000E-002     1.9032215709069619E-009
  -2.0799999999999999E-002     1.9680051043633167E-009
  -2.0750000000000001E-002     2.0356244265776706E-009
  -2.0700000000000000E-002     2.1060558748361454E-009
  -2.0649999999999998E-002     2.1790978219634847E-009
  -2.0600000000000000E-002     2.2544109976065291E-009
  -2.0549999999999999E-002     2.3315894714743449E-009
  -2.0500000000000001E-002     2.4102445402234580E-009
  -2.0449999999999999E-002     2.4900882890366573E-009
  -2.0400000000000001E-002     2.5709978933907256E-009
  -2.0350000000000000E-002     2.6530459050175055E-009
  -2.0299999999999999E-002     2.7364948271638716E-009
  -2.0250000000000001E-002     2.8217529187121305E-009
  -2.0199999999999999E-002     2.9093064861756699E-009
  -2.0150000000000001E-002     2.9996428844740431E-009
  -2.0100000000000000E-002     3.0931785077932029E-009
  -2.0049999999999998E-002     3.1902088243376706E-009
  -2.0000000000000000E-002     3.2908862199254054E-009
  -1.9949999999999999E-002     3.3952289789979498E-009
  -1.9900000000000001E-002     3.5031539599621231E-009
  -1.9850000000000000E-002     3.6145225036532862E-009
  -1.9799999999999998E-002     3.7291886666686733E-009
  -1.9750000000000000E-002     3.8470421366289909E-009
  -1.9699999999999999E-002     3.9680316143216882E-009
  -1.9650000000000001E-002     4.0921742321695855E-009
  -1.9599999999999999E-002     4.2195483082988225E-009
  -1.9550000000000001E-002     4.3502751337943978E-009
  -1.9500000000000000E-002     4.4844974921008135E-009
  -1.9449999999999999E-002     4.6223576311405284E-009
  -1.9400000000000001E-002     4.7639803642904137E-009
  -1.9349999999999999E-002     4.9094633496430732E-009
  -1.9300000000000001E-002     5.0588805592301478E-009
  -1.9250000000000000E-002     5.2122836080088289E-009
  -1.9199999999999998E-002     5.3697162646892561E-009
  -1.9150000000000000E-002     5.5312301491578538E-009
  -1.9099999999999999E-002     5.6969018805669985E-009
  -1.9050000000000001E-002     5.8668503893445034E-009
  -1.9000000000000000E-002     6.0412542972722190E-009
  -1.8949999999999998E-002     6.2203624041031287E-009
  -1.8900000000000000E-002     6.4044896246613638E-009
  -1.8849999999999999E-002     6.5940037854823232E-009
  -1.8800000000000001E-002     6.7893014153106521E-009
  -1.8749999999999999E-002     6.9907688105464894E-009
  -1.8700000000000001E-002     7.1987439105532719E-009
  -1.8650000000000000E-002     7.4134790533668522E-009
  -1.8599999999999998E-002     7.6351136347000299E-009
  -1.8550000000000001E-002     7.8636657807559966E-009
  -1.8499999999999999E-002     8.0990439652337868E-009
  -1.8450000000000001E-002     8.3410703553899653E-009
  -1.8400000000000000E-002     8.5895269343818772E-009
  -1.8349999999999998E-002     8.8442050134053656E-009
  -1.8300000000000000E-002     9.1049584698167762E-009
  -1.8249999999999999E-002     9.3717482027476246E-009
  -1.8200000000000001E-002     9.6446771860646729E-009
  -1.8149999999999999E-002     9.9240127476302797E-009
  -1.8100000000000002E-002     1.0210180400130221E-008
  -1.8050000000000000E-002     1.0503744163752693E-008
  -1.7999999999999999E-002     1.0805356521262761E-008
  -1.7950000000000001E-002     1.1115699505927363E-008
  -1.7899999999999999E-002     1.1435405056728026E-008
  -1.7850000000000001E-002     1.1764982442354879E-008
  -1.7800000000000000E-002     1.2104761553115504E-008
  -1.7749999999999998E-002     1.2454859552750260E-008
  -1.7700000000000000E-002     1.2815200880330650E-008
  -1.7649999999999999E-002     1.3185570340589109E-008
  -1.7600000000000001E-002     1.3565718661994327E-008
  -1.7550000000000000E-002     1.3955472291513888E-008
  -1.7499999999999998E-002     1.4354845705180320E-008
  -1.7450000000000000E-002     1.4764107315920974E-008
  -1.7399999999999999E-002     1.5183795054480467E-008
  -1.7350000000000001E-002     1.5614648070352510E-008
  -1.7299999999999999E-002     1.6057483811410740E-008
  -1.7250000000000001E-002     1.6513027337371035E-008
  -1.7200000000000000E-002     1.6981753950670367E-008
  -1.7149999999999999E-002     1.7463773435579401E-008
  -1.7100000000000001E-002     1.7958812353819425E-008
  -1.7049999999999999E-002     1.8466309596780822E-008
  -1.7000000000000001E-002     1.8985613864464529E-008
  -1.6950000000000000E-002     1.9516233638416808E-008
  -1.6899999999999998E-002     2.0058096994126658E-008
  -1.6850000000000000E-002     2.0611716569153504E-008
  -1.6799999999999999E-002     2.1178237025751455E-008
  -1.6750000000000001E-002     2.1759317840129256E-008
  -1.6700000000000000E-002     2.2356863943521725E-008
  -1.6649999999999998E-002     2.2972675305080124E-008
  -1.6600000000000000E-002     2.3608087657409140E-008
  -1.6549999999999999E-002     2.4263718822171873E-008
  -1.6500000000000001E-002     2.4939362653342905E-008
  -1.6449999999999999E-002     2.5634108411514087E-008
  -1.6400000000000001E-002     2.6346652615256138E-008
  -1.6350000000000000E-002     2.7075714896904178E-008
  -1.6299999999999999E-002     2.7820474487385967E-008
  -1.6250000000000001E-002     2.8580897697202917E-008
  -1.6199999999999999E-002     2.9357874118701050E-008
  -1.6150000000000001E-002     3.0153099941232746E-008
  -1.6100000000000000E-002     3.0968740839812508E-008
  -1.6049999999999998E-002     3.1806974625683187E-008
  -1.6000000000000000E-002     3.2669469790509069E-008
  -1.5949999999999999E-002     3.3557045976250403E-008
  -1.5900000000000001E-002     3.4469518198776784E-008
  -1.5850000000000000E-002     3.5405831795820814E-008
  -1.5799999999999998E-002     3.6364436709138135E-008
  -1.5750000000000000E-002     3.7343824505948638E-008
  -1.5699999999999999E-002     3.8343103015419558E-008
  -1.5650000000000001E-002     3.9362408955856574E-008
  -1.5599999999999999E-002     4.0403088268249315E-008
  -1.5550000000000001E-002     4.1467573973319443E-008
  -1.5500000000000000E-002     4.2558973827478800E-008
  -1.5449999999999998E-002     4.3680457261467644E-008
  -1.5400000000000000E-002     4.4834650936528713E-008
  -1.5349999999999999E-002     4.6023115784959185E-008
  -1.5300000000000001E-002     4.7246120996467139E-008
  -1.5250000000000000E-002     4.8502722178151065E-008
  -1.5199999999999998E-002     4.9791160571343447E-008
  -1.5150000000000000E-002     5.1109419118153455E-008
  -1.5099999999999999E-002     5.2455870440771714E-008
  -1.5050000000000001E-002     5.3829788913615287E-008
  -1.4999999999999999E-002     5.5231621789293083E-008
  -1.4949999999999998E-002     5.6662973097426733E-008
  -1.4900000000000000E-002     5.8126301203578480E-008
  -1.4849999999999999E-002     5.9624431709143799E-008
  -1.4800000000000001E-002     6.1159988701528393E-008
  -1.4749999999999999E-002     6.2734935375062180E-008
  -1.4700000000000001E-002     6.4350320582094634E-008
  -1.4650000000000000E-002     6.6006315353677092E-008
  -1.4599999999999998E-002     6.7702474022439814E-008
  -1.4550000000000000E-002     6.9438225841233602E-008
  -1.4499999999999999E-002     7.1213338670899883E-008
  -1.4450000000000001E-002     7.3028385212552281E-008
  -1.4400000000000000E-002     7.4884872236416978E-008
  -1.4349999999999998E-002     7.6785159998175816E-008
  -1.4300000000000000E-002     7.8732129607283856E-008
  -1.4249999999999999E-002     8.0728661239987180E-008
  -1.4200000000000001E-002     8.2777058603087497E-008
  -1.4149999999999999E-002     8.4878667181021223E-008
  -1.4099999999999998E-002     8.7033617289764450E-008
  -1.4050000000000000E-002     8.9240929738637961E-008
  -1.3999999999999999E-002     9.1498930375351310E-008
  -1.3950000000000001E-002     9.3805782614264644E-008
  -1.3899999999999999E-002     9.6160137681194659E-008
  -1.3850000000000001E-002     9.8561650911821551E-008
  -1.3800000000000000E-002     1.0101126805343475E-007
  -1.3749999999999998E-002     1.0351126901560674E-007
  -1.3700000000000000E-002     1.0606491942868184E-007
  -1.3649999999999999E-002     1.0867595078851764E-007
  -1.3600000000000001E-002     1.1134793777232345E-007
  -1.3550000000000000E-002     1.1408371191387944E-007
  -1.3499999999999998E-002     1.1688503946239101E-007
  -1.3450000000000000E-002     1.1975251782552495E-007
  -1.3399999999999999E-002     1.2268586272178840E-007
  -1.3350000000000001E-002     1.2568432456381278E-007
  -1.3299999999999999E-002     1.2874732313247062E-007
  -1.3249999999999998E-002     1.3187500343261257E-007
  -1.3200000000000000E-002     1.3506852747119165E-007
  -1.3149999999999998E-002     1.3833014213875578E-007
  -1.3100000000000001E-002     1.4166297027099733E-007
  -1.3049999999999999E-002     1.4507051008714263E-007
  -1.3000000000000001E-002     1.4855605355311974E-007
  -1.2950000000000000E-002     1.5212209561722109E-007
  -1.2899999999999998E-002     1.5577003847102880E-007
  -1.2850000000000000E-002     1.5950005099160727E-007
  -1.2799999999999999E-002     1.6331145560408220E-007