  -4.0000000000000001E-002     0.0000000000000000     
  -3.9949999999999999E-002     0.0000000000000000     
  -3.9899999999999998E-002     0.0000000000000000     
  -3.9850000000000003E-002     0.0000000000000000     
  -3.9800000000000002E-002     0.0000000000000000     
  -3.9750000000000001E-002     0.0000000000000000     
  -3.9699999999999999E-002     0.0000000000000000     
  -3.9649999999999998E-002     0.0000000000000000     
  -3.9600000000000003E-002     0.0000000000000000     
  -3.9550000000000002E-002     0.0000000000000000     
  -3.9500000000000000E-002     0.0000000000000000     
  -3.9449999999999999E-002     0.0000000000000000     
  -3.9399999999999998E-002     0.0000000000000000     
  -3.9350000000000003E-002     0.0000000000000000     
  -3.9300000000000002E-002     0.0000000000000000     
  -3.9250000000000000E-002     0.0000000000000000     
  -3.9199999999999999E-002     0.0000000000000000     
  -3.9150000000000004E-002     0.0000000000000000     
  -3.9100000000000003E-002     0.0000000000000000     
  -3.9050000000000001E-002     0.0000000000000000     
  -3.9000000000000000E-002     0.0000000000000000     
  -3.8949999999999999E-002     0.0000000000000000     
  -3.8900000000000004E-002     0.0000000000000000     
  -3.8850000000000003E-002     0.0000000000000000     
  -3.8800000000000001E-002     0.0000000000000000     
  -3.8750000000000000E-002     0.0000000000000000     
  -3.8699999999999998E-002     0.0000000000000000     
  -3.8650000000000004E-002     0.0000000000000000     
  -3.8600000000000002E-002     0.0000000000000000     
  -3.8550000000000001E-002     0.0000000000000000     
  -3.8500000000000000E-002     0.0000000000000000     
  -3.8449999999999998E-002     0.0000000000000000     
  -3.8400000000000004E-002     0.0000000000000000     
  -3.8350000000000002E-002     0.0000000000000000     
  -3.8300000000000001E-002     0.0000000000000000     
  -3.8249999999999999E-002     0.0000000000000000     
  -3.8199999999999998E-002     0.0000000000000000     
  -3.8150000000000003E-002     0.0000000000000000     
  -3.8100000000000002E-002     0.0000000000000000     
  -3.8050000000000000E-002     0.0000000000000000     
  -3.7999999999999999E-002     0.0000000000000000     
  -3.7949999999999998E-002     0.0000000000000000     
  -3.7900000000000003E-002     0.0000000000000000     
  -3.7850000000000002E-002     0.0000000000000000     
  -3.7800000000000000E-002     0.0000000000000000     
  -3.7749999999999999E-002     0.0000000000000000     
  -3.7699999999999997E-002     0.0000000000000000     
  -3.7650000000000003E-002     0.0000000000000000     
  -3.7600000000000001E-002     0.0000000000000000     
  -3.7550000000000000E-002     0.0000000000000000     
  -3.7499999999999999E-002     0.0000000000000000     
  -3.7449999999999997E-002     0.0000000000000000     
  -3.7400000000000003E-002     0.0000000000000000     
  -3.7350000000000001E-002     0.0000000000000000     
  -3.7300000000000000E-002    -1.5984771554813768E-039
  -3.7249999999999998E-002    -5.4250645079703352E-039
  -3.7200000000000004E-002    -1.0563017646632666E-038
  -3.7150000000000002E-002    -9.2963751737804629E-039
  -3.7100000000000001E-002     9.3430529362126526E-039
  -3.7050000000000000E-002     7.6892178878742963E-038
  -3.6999999999999998E-002     1.9018861690036414E-037
  -3.6950000000000004E-002     3.0466167806154109E-037
  -3.6900000000000002E-002     2.5262808170865413E-037
  -3.6850000000000001E-002    -1.9201325283100209E-037
  -3.6799999999999999E-002    -1.2717416507707573E-036
  -3.6749999999999998E-002    -3.0012612567125394E-036
  -3.6700000000000003E-002    -4.7787500595246741E-036
  -3.6650000000000002E-002    -4.9854106806110185E-036
  -3.6600000000000001E-002    -9.6630069864581866E-037
  -3.6549999999999999E-002     1.0040388743977654E-035
  -3.6499999999999998E-002     2.8549189318717679E-035
  -3.6450000000000003E-002     4.9274441778703174E-035
  -3.6400000000000002E-002     5.8044090534783928E-035
  -3.6350000000000000E-002     3.2585287769781204E-035
  -3.6299999999999999E-002    -4.8582519374496193E-035
  -3.6249999999999998E-002    -1.8707376984167432E-034
  -3.6200000000000003E-002    -3.4005776559060836E-034
  -3.6150000000000002E-002    -4.0561745770938230E-034
  -3.6100000000000000E-002    -2.4302442714137190E-034
  -3.6049999999999999E-002     2.4924546223373710E-034
  -3.6000000000000004E-002     1.0009376035108436E-033
  -3.5950000000000003E-002     1.6403609522447328E-033
  -3.5900000000000001E-002     1.4911027509675473E-033
  -3.5850000000000000E-002    -1.5084483388916724E-034
  -3.5799999999999998E-002    -3.3802051131114322E-033
  -3.5750000000000004E-002    -6.8420352824318585E-033
  -3.5700000000000003E-002    -7.2157785744424437E-033
  -3.5650000000000001E-002     1.1420392122817279E-034
  -3.5600000000000000E-002     1.8378919074560304E-032
  -3.5549999999999998E-002     4.4711509423910295E-032
  -3.5500000000000004E-002     6.5094351321747224E-032
  -3.5450000000000002E-002     5.2861132104811567E-032
  -3.5400000000000001E-002    -2.3965658360036400E-032
  -3.5349999999999999E-002    -1.8263294534097517E-031
  -3.5299999999999998E-002    -3.9501511415637565E-031
  -3.5250000000000004E-002    -5.5894462526546410E-031
  -3.5200000000000002E-002    -4.9542930079190963E-031
  -3.5150000000000001E-002    -1.0820612978059790E-034
  -3.5099999999999999E-002     1.0350725075850333E-030
  -3.5049999999999998E-002     2.4497319043664774E-030
  -3.5000000000000003E-002     3.6667240698977483E-030
  -3.4950000000000002E-002     3.6927483572080352E-030
  -3.4900000000000000E-002     1.4011278902479514E-030
  -3.4849999999999999E-002    -3.8471528413540069E-030
  -3.4799999999999998E-002    -1.1368768634243689E-029
  -3.4750000000000003E-002    -1.8480470006487217E-029
  -3.4700000000000002E-002    -2.0547219607145173E-029
  -3.4650000000000000E-002    -1.2303644506296608E-029
  -3.4599999999999999E-002     9.3995342829640042E-030
  -3.4549999999999997E-002     4.2068644461369196E-029
  -3.4500000000000003E-002     7.4881133968183924E-029
  -3.4450000000000001E-002     8.9120534855077742E-029
  -3.4400000000000000E-002     6.3700943912709437E-029
  -3.4349999999999999E-002    -1.4019832009696986E-029
  -3.4299999999999997E-002    -1.3506226608392160E-028
  -3.4250000000000003E-002    -2.5964487265457641E-028
  -3.4200000000000001E-002    -3.2018275491570520E-028
  -3.4150000000000000E-002    -2.4263919336914106E-028
  -3.4099999999999998E-002     1.4682595300619383E-029
  -3.4049999999999997E-002     4.1689629854961734E-028
  -3.4000000000000002E-002     8.2563572614632887E-028
  -3.3950000000000001E-002     1.0160866499179318E-027
  -3.3900000000000000E-002     7.5465491148153634E-028
  -3.3849999999999998E-002    -7.1916352701619685E-029
  -3.3799999999999997E-002    -1.3211223568933082E-027
  -3.3750000000000002E-002    -2.5285421781628667E-027
  -3.3700000000000001E-002    -2.9899801358967150E-027
  -3.3649999999999999E-002    -2.0296285147439203E-027
  -3.3599999999999998E-002     5.9538589764656861E-028
  -3.3550000000000003E-002     4.3117403575997776E-027
  -3.3500000000000002E-002     7.6023810676395246E-027
  -3.3450000000000001E-002     8.3520625640579641E-027
  -3.3399999999999999E-002     4.7302533925856460E-027
  -3.3349999999999998E-002    -3.5990851433796971E-027
  -3.3300000000000003E-002    -1.4455121076578588E-026
  -3.3250000000000002E-002    -2.2992757502775075E-026
  -3.3200000000000000E-002    -2.2991531100496116E-026
  -3.3149999999999999E-002    -9.6294199561211405E-027
  -3.3099999999999997E-002     1.7021143641821346E-026
  -3.3050000000000003E-002     4.9345669911301287E-026
  -3.3000000000000002E-002     7.2309588060286473E-026
  -3.2950000000000000E-002     6.7737079319998577E-026
  -3.2899999999999999E-002     2.2566194211160496E-026
  -3.2850000000000004E-002    -6.1353980045007526E-026
  -3.2800000000000003E-002    -1.6040707305625821E-025
  -3.2750000000000001E-002    -2.3041427543613774E-025
  -3.2700000000000000E-002    -2.1923256481320626E-025
  -3.2649999999999998E-002    -8.9682712560476236E-026
  -3.2600000000000004E-002     1.5413941104672399E-025
  -3.2550000000000003E-002     4.4907072588682423E-025
  -3.2500000000000001E-002     6.7653943959337745E-025
  -3.2450000000000000E-002     6.9545097321738661E-025
  -3.2399999999999998E-002     4.0072072875536582E-025
  -3.2350000000000004E-002    -2.1050931172949138E-025
  -3.2300000000000002E-002    -9.9428722113286104E-025
  -3.2250000000000001E-002    -1.6675515219466784E-024
  -3.2199999999999999E-002    -1.8853672082740744E-024
  -3.2149999999999998E-002    -1.3776787876265887E-024
  -3.2100000000000004E-002    -1.0262457209323061E-025
  -3.2050000000000002E-002     1.6509434175017865E-024
  -3.2000000000000001E-002     3.2795997606601349E-024
  -3.1949999999999999E-002     4.0354459031000644E-024
  -3.1899999999999998E-002     3.3236613135491730E-024
  -3.1850000000000003E-002     1.0297254093628577E-024
  -3.1800000000000002E-002    -2.2705953975678462E-024
  -3.1750000000000000E-002    -5.3603075972262711E-024
  -3.1699999999999999E-002    -6.7550168095363519E-024
  -3.1649999999999998E-002    -5.3322837588325185E-024
  -3.1600000000000003E-002    -9.9871468023437405E-025
  -3.1550000000000002E-002     4.9175297652026720E-024
  -3.1500000000000000E-002     9.8368885008710179E-024
  -3.1449999999999999E-002     1.0776890719281395E-023
  -3.1399999999999997E-002     5.7063455936581529E-024
  -3.1350000000000003E-002    -5.0727188054444177E-024
  -3.1300000000000001E-002    -1.8175307745809490E-023
  -3.1250000000000000E-002    -2.7605994729769434E-023
  -3.1199999999999999E-002    -2.6670518631701572E-023
  -3.1150000000000001E-002    -1.0940932754442521E-023
  -3.1100000000000003E-002     1.8736903701923763E-023
  -3.1050000000000001E-002     5.4570855561346274E-023
  -3.1000000000000000E-002     8.2717133885605632E-023
  -3.0949999999999998E-002     8.7220762747830303E-023
  -3.0900000000000000E-002     5.6271182414493003E-023
  -3.0850000000000002E-002    -1.1219404933799486E-023
  -3.0800000000000001E-002    -1.0147263245693096E-022
  -3.0750000000000000E-002    -1.8667501140874713E-022
  -3.0699999999999998E-002    -2.3193162628042730E-022
  -3.0650000000000000E-002    -2.0720178470248705E-022
  -3.0600000000000002E-002    -1.0063884503796528E-022
  -3.0550000000000001E-002     7.1811902781894894E-023
  -3.0499999999999999E-002     2.6548906429018384E-022
  -3.0449999999999998E-002     4.1732516669278347E-022
  -3.0400000000000000E-002     4.6588644011179989E-022
  -3.0350000000000002E-002     3.7520003786534833E-022
  -3.0300000000000001E-002     1.5343338327403848E-022
  -3.0249999999999999E-002    -1.4241067093734236E-022
  -3.0200000000000001E-002    -4.2071211885938829E-022
  -3.0150000000000000E-002    -5.8633776344442789E-022
  -3.0100000000000002E-002    -5.7887230227379686E-022
  -3.0050000000000000E-002    -4.0288524119261298E-022
  -2.9999999999999999E-002    -1.3513165316947152E-022
  -2.9950000000000001E-002     9.9777005861330392E-023
  -2.9899999999999999E-002     1.8163824340899791E-022
  -2.9850000000000002E-002     5.7696330134887232E-023
  -2.9800000000000000E-002    -2.1023081800438964E-022
  -2.9749999999999999E-002    -4.4144558017887827E-022
  -2.9700000000000001E-002    -3.9014128409684895E-022
  -2.9650000000000003E-002     1.4918625554719026E-022
  -2.9600000000000001E-002     1.2162281057197165E-021
  -2.9550000000000000E-002     2.5895101119711524E-021
  -2.9499999999999998E-002     3.7740819013181220E-021
  -2.9450000000000000E-002     4.1061649696325497E-021
  -2.9400000000000003E-002     2.9700939281790632E-021
  -2.9350000000000001E-002     7.5214442025660158E-023
  -2.9300000000000000E-002    -4.2995341691661207E-021
  -2.9249999999999998E-002    -9.1998677733983520E-021
  -2.9200000000000000E-002    -1.3112218359626610E-020
  -2.9150000000000002E-002    -1.4323049532042427E-020
  -2.9100000000000001E-002    -1.1457811406155614E-020
  -2.9049999999999999E-002    -4.0540251713586241E-021
  -2.8999999999999998E-002     7.0244201626581760E-021
  -2.8950000000000000E-002     1.9512785913314533E-020
  -2.8900000000000002E-002     3.0112841527725868E-020
  -2.8850000000000001E-002     3.5273516092867937E-020
  -2.8799999999999999E-002     3.2211372415656424E-020
  -2.8749999999999998E-002     1.9887156331680636E-020
  -2.8700000000000000E-002    -3.7662173737673018E-022
  -2.8650000000000002E-002    -2.4881351912665733E-020
  -2.8600000000000000E-002    -4.8223512039850608E-020
  -2.8549999999999999E-002    -6.4524881509774043E-020
  -2.8500000000000001E-002    -6.8907268781300917E-020
  -2.8450000000000000E-002    -5.8797592315091574E-020
  -2.8400000000000002E-002    -3.4680897390817229E-020
  -2.8350000000000000E-002    -8.1125178706772242E-023
  -2.8299999999999999E-002     3.9207498140440899E-020
  -2.8250000000000001E-002     7.6375860732319541E-020
  -2.8200000000000003E-002     1.0493452117972845E-019
  -2.8150000000000001E-002     1.1973010038177059E-019
  -2.8100000000000000E-002     1.1741629456958030E-019
  -2.8049999999999999E-002     9.6419539177988876E-020
  -2.8000000000000001E-002     5.6692392697195982E-020
  -2.7950000000000003E-002    -3.3467601083398148E-022
  -2.7900000000000001E-002    -7.1288974023801652E-020
  -2.7850000000000000E-002    -1.4987197912870746E-019
  -2.7799999999999998E-002    -2.2576662384863719E-019
  -2.7750000000000000E-002    -2.8419725923874978E-019
  -2.7700000000000002E-002    -3.0700092659754406E-019
  -2.7650000000000001E-002    -2.7578368487986088E-019
  -2.7600000000000000E-002    -1.7707370227090073E-019
  -2.7549999999999998E-002    -8.5038100218854874E-021
  -2.7500000000000000E-002     2.1574543927256063E-019
  -2.7450000000000002E-002     4.6240271113857995E-019
  -2.7400000000000001E-002     6.8134144921932443E-019
  -2.7349999999999999E-002     8.1345004424054146E-019
  -2.7299999999999998E-002     8.0341347351717082E-019
  -2.7250000000000000E-002     6.1496592254515106E-019
  -2.7200000000000002E-002     2.4486609638137698E-019
  -2.7150000000000001E-002    -2.6854880836897763E-019
  -2.7099999999999999E-002    -8.4558370262240974E-019
  -2.7049999999999998E-002    -1.3756330259541592E-018
  -2.7000000000000000E-002    -1.7367423540052748E-018
  -2.6950000000000002E-002    -1.8206539352502641E-018
  -2.6900000000000000E-002    -1.5579876405721476E-018
  -2.6849999999999999E-002    -9.3783968533062607E-019
  -2.6800000000000001E-002    -1.7210537937077119E-020
  -2.6749999999999999E-002     1.0820306580041114E-018
  -2.6700000000000002E-002     2.1881839949137212E-018
  -2.6650000000000000E-002     3.1039248358992665E-018
  -2.6599999999999999E-002     3.6355146390612149E-018
  -2.6550000000000001E-002     3.6228108670654941E-018
  -2.6500000000000003E-002     2.9668066660341356E-018
  -2.6450000000000001E-002     1.6526123834751378E-018
  -2.6400000000000000E-002    -2.3356800546967983E-019
  -2.6349999999999998E-002    -2.4953803651922079E-018
  -2.6300000000000000E-002    -4.8285479958049084E-018
  -2.6250000000000002E-002    -6.8393443056471964E-018
  -2.6200000000000001E-002    -8.0846552152888187E-018
  -2.6150000000000000E-002    -8.1368051071333171E-018
  -2.6099999999999998E-002    -6.6708292826051511E-018
  -2.6050000000000000E-002    -3.5636283466739546E-018
  -2.6000000000000002E-002     1.0146850710033341E-018
  -2.5950000000000001E-002     6.5437922076589880E-018
  -2.5899999999999999E-002     1.2158304138460699E-017
  -2.5849999999999998E-002     1.6735812898911359E-017
  -2.5800000000000000E-002     1.9072878539140183E-017
  -2.5750000000000002E-002     1.8131629792841645E-017
  -2.5700000000000001E-002     1.3315565684779568E-017
  -2.5649999999999999E-002     4.7141071579074428E-018
  -2.5599999999999998E-002    -6.7519829911789726E-018
  -2.5550000000000000E-002    -1.9343083340809722E-017
  -2.5500000000000002E-002    -3.0703360321888786E-017
  -2.5450000000000000E-002    -3.8245604262612313E-017
  -2.5399999999999999E-002    -3.9664613315892680E-017
  -2.5349999999999998E-002    -3.3485074600794353E-017
  -2.5300000000000000E-002    -1.9526095033312808E-017
  -2.5250000000000002E-002     8.3465655295815342E-019
  -2.5200000000000000E-002     2.4685918289711823E-017
  -2.5149999999999999E-002     4.7933312568021508E-017
  -2.5100000000000001E-002     6.5945381099589023E-017
  -2.5049999999999999E-002     7.4398584868928191E-017
  -2.5000000000000001E-002     7.0172593842491541E-017
  -2.4950000000000000E-002     5.2122064593873804E-017
  -2.4899999999999999E-002     2.1559438704281334E-017
  -2.4850000000000001E-002    -1.7674629419941977E-017
  -2.4800000000000003E-002    -5.9607895615628178E-017
  -2.4750000000000001E-002    -9.6972151209170688E-017
  -2.4700000000000000E-002    -1.2236737671494743E-016
  -2.4649999999999998E-002    -1.2957688711820889E-016
  -2.4600000000000000E-002    -1.1481600298531799E-016
  -2.4550000000000002E-002    -7.7690820180899092E-017
  -2.4500000000000001E-002    -2.1674433516920796E-017
  -2.4450000000000000E-002     4.6028517872473768E-017
  -2.4399999999999998E-002     1.1526920758561250E-016
  -2.4350000000000000E-002     1.7433111329631309E-016
  -2.4299999999999999E-002     2.1173035635893886E-016
  -2.4250000000000001E-002     2.1818783015999889E-016
  -2.4199999999999999E-002     1.8846507580636620E-016
  -2.4150000000000001E-002     1.2274366712796484E-016
  -2.4100000000000000E-002     2.7266446093228535E-017
  -2.4049999999999998E-002    -8.5950661908703121E-017
  -2.4000000000000000E-002    -2.0039572317994351E-016
  -2.3949999999999999E-002    -2.9722867955371865E-016
  -2.3900000000000001E-002    -3.5808546636723212E-016
  -2.3850000000000000E-002    -3.6813282472421542E-016
  -2.3800000000000002E-002    -3.1891008117146932E-016
  -2.3750000000000000E-002    -2.1048295965247387E-016
  -2.3699999999999999E-002    -5.2497947407894809E-017
  -2.3650000000000001E-002     1.3614401288344650E-016
  -2.3599999999999999E-002     3.2909484309051140E-016
  -2.3550000000000001E-002     4.9574168742609550E-016
  -2.3500000000000000E-002     6.0545132145505746E-016
  -2.3449999999999999E-002     6.3238049781973010E-016
  -2.3400000000000001E-002     5.6021873988352123E-016
  -2.3349999999999999E-002     3.8615397318618834E-016
  -2.3300000000000001E-002     1.2335161684041282E-016
  -2.3250000000000000E-002    -1.9866855887790156E-016
  -2.3199999999999998E-002    -5.3618043974449810E-016
  -2.3150000000000000E-002    -8.3604718498478007E-016
  -2.3099999999999999E-002    -1.0428933313975991E-015
  -2.3050000000000001E-002    -1.1079344524859350E-015
  -2.3000000000000000E-002    -9.9829674616968949E-016
  -2.2950000000000002E-002    -7.0531473704298877E-016
  -2.2900000000000000E-002    -2.5013475376350630E-016
  -2.2849999999999999E-002     3.1491348664149252E-016
  -2.2800000000000001E-002     9.1025200808756627E-016
  -2.2749999999999999E-002     1.4385773732028107E-015
  -2.2700000000000001E-002     1.7992318657633088E-015
  -2.2650000000000000E-002     1.9055920923071727E-015
  -2.2599999999999999E-002     1.7027226140027064E-015
  -2.2550000000000001E-002     1.1819977983175812E-015
  -2.2499999999999999E-002     3.8944377761767535E-016
  -2.2450000000000001E-002    -5.7473764438606701E-016
  -2.2400000000000000E-002    -1.5666624208619288E-015
  -2.2349999999999998E-002    -2.4186987682181753E-015
  -2.2300000000000000E-002    -2.9663619981564210E-015
  -2.2249999999999999E-002    -3.0780384475338691E-015
  -2.2200000000000001E-002    -2.6823600175718669E-015
  -2.2150000000000000E-002    -1.7879031260781638E-015
  -2.2100000000000002E-002    -4.9074144415259250E-016
  -2.2050000000000000E-002     1.0328303845770733E-015
  -2.1999999999999999E-002     2.5486098622184357E-015
  -2.1950000000000001E-002     3.7993224804169389E-015
  -2.1899999999999999E-002     4.5469609502373697E-015
  -2.1850000000000001E-002     4.6158001885037223E-015
  -2.1800000000000000E-002     3.9285519647757631E-015
  -2.1749999999999999E-002     2.5286847682414892E-015
  -2.1700000000000001E-002     5.8379329319940069E-016
  -2.1649999999999999E-002    -1.6321858498868444E-015
  -2.1600000000000001E-002    -3.7765776689320677E-015
  -2.1550000000000000E-002    -5.4904651190105179E-015
  -2.1499999999999998E-002    -6.4581254735171647E-015
  -2.1450000000000000E-002    -6.4635939281349118E-015
  -2.1399999999999999E-002    -5.4342756990461824E-015
  -2.1350000000000001E-002    -3.4630561498615058E-015
  -2.1299999999999999E-002    -8.0355098457948353E-016
  -2.1250000000000002E-002     2.1624080887499780E-015
  -2.1200000000000000E-002     4.9810310247907746E-015
  -2.1149999999999999E-002     7.1979978029771968E-015
  -2.1100000000000001E-002     8.4332600154285527E-015
  -2.1049999999999999E-002     8.4462442849323360E-015
  -2.1000000000000001E-002     7.1797248181628279E-015
  -2.0950000000000000E-002     4.7741710707144790E-015
  -2.0899999999999998E-002     1.5496355914989585E-015
  -2.0850000000000000E-002    -2.0418648554265272E-015
  -2.0799999999999999E-002    -5.4851436341381426E-015
  -2.0750000000000001E-002    -8.2798059030879430E-015
  -2.0700000000000000E-002    -1.0014128960470257E-014
  -2.0649999999999998E-002    -1.0423047530997512E-014
  -2.0600000000000000E-002    -9.4220865773059255E-015
  -2.0549999999999999E-002    -7.1140480966090949E-015
  -2.0500000000000001E-002    -3.7702610288282004E-015
  -2.0449999999999999E-002     2.0787645862873924E-016
  -2.0400000000000001E-002     4.3393413954251485E-015
  -2.0350000000000000E-002     8.1182648748794070E-015
  -2.0299999999999999E-002     1.1067117012176136E-014
  -2.0250000000000001E-002     1.2784808730889141E-014
  -2.0199999999999999E-002     1.2988279245602122E-014
  -2.0150000000000001E-002     1.1546989051518529E-014
  -2.0100000000000000E-002     8.5090859923999061E-015
  -2.0049999999999998E-002     4.1161564990861197E-015
  -2.0000000000000000E-002    -1.1984872911203560E-015
  -1.9949999999999999E-002    -6.8339676465954070E-015
  -1.9900000000000001E-002    -1.2073164221346839E-014
  -1.9850000000000000E-002    -1.6162011210139799E-014
  -1.9799999999999998E-002    -1.8411469343686427E-014
  -1.9750000000000000E-002    -1.8309818372620346E-014
  -1.9699999999999999E-002    -1.5626969248940298E-014
  -1.9650000000000001E-002    -1.0489547412904413E-014
  -1.9599999999999999E-002    -3.4072048011938776E-015
  -1.9550000000000001E-002     4.7628023139844690E-015
  -1.9500000000000000E-002     1.2914934014818809E-014
  -1.9449999999999999E-002     1.9848066809626520E-014
  -1.9400000000000001E-002     2.4449165871787874E-014
  -1.9349999999999999E-002     2.5877334832700733E-014
  -1.9300000000000001E-002     2.3715327093349982E-014
  -1.9250000000000000E-002     1.8059930146911927E-014
  -1.9199999999999998E-002     9.5328048614520292E-015
  -1.9150000000000000E-002    -7.9255419356758387E-016
  -1.9099999999999999E-002    -1.1537221731126516E-014
  -1.9050000000000001E-002    -2.1213339265797875E-014
  -1.9000000000000000E-002    -2.8439323761831506E-014
  -1.8949999999999998E-002    -3.2140102513113891E-014
  -1.8900000000000000E-002    -3.1702268959449314E-014
  -1.8849999999999999E-002    -2.7062226153697712E-014
  -1.8800000000000001E-002    -1.8716461189786310E-014
  -1.8749999999999999E-002    -7.6548024252708412E-015
  -1.8700000000000001E-002     4.7717281569659363E-015
  -1.8650000000000000E-002     1.7028496187962933E-014
  -1.8599999999999998E-002     2.7595022430671875E-014
  -1.8550000000000001E-002     3.5155883005295555E-014
  -1.8499999999999999E-002     3.8759336644285695E-014
  -1.8450000000000001E-002     3.7923435922644089E-014
  -1.8400000000000000E-002     3.2677432065155999E-014
  -1.8349999999999998E-002     2.3536426571734167E-014
  -1.8300000000000000E-002     1.1418159931708271E-014
  -1.8249999999999999E-002    -2.4797390459990179E-015
  -1.8200000000000001E-002    -1.6817733220475916E-014
  -1.8149999999999999E-002    -3.0242850461503809E-014
  -1.8100000000000002E-002    -4.1488673827697311E-014
  -1.8050000000000000E-002    -4.9439134755776186E-014
  -1.7999999999999999E-002    -5.3162232904347541E-014
  -1.7950000000000001E-002    -5.1932317609199783E-014
  -1.7899999999999999E-002    -4.5265872301483741E-014
  -1.7850000000000001E-002    -3.2992717556303527E-014
  -1.7800000000000000E-002    -1.5370770554047952E-014
  -1.7749999999999998E-002     6.7694502664729322E-015
  -1.7700000000000000E-002     3.1888781720781744E-014
  -1.7649999999999999E-002     5.7669113847209725E-014
  -1.7600000000000001E-002     8.1071719474517229E-014
  -1.7550000000000000E-002     9.8573559534957149E-014
  -1.7499999999999998E-002     1.0659747850468204E-013
  -1.7450000000000000E-002     1.0210416942324987E-013
  -1.7399999999999999E-002     8.3260497972220309E-014
  -1.7350000000000001E-002     5.0055959623646161E-014
  -1.7299999999999999E-002     4.7184405728410598E-015
  -1.7250000000000001E-002    -4.8206641107465861E-014
  -1.7200000000000000E-002    -1.0220154416591780E-013
  -1.7149999999999999E-002    -1.4955596521617776E-013
  -1.7100000000000001E-002    -1.8249916029784417E-013
  -1.7049999999999999E-002    -1.9451482978085691E-013
  -1.7000000000000001E-002    -1.8160772315113306E-013
  -1.6950000000000000E-002    -1.4327142530147923E-013
  -1.6899999999999998E-002    -8.2938187361443460E-014
  -1.6850000000000000E-002    -7.7708656877117306E-015
  -1.6799999999999999E-002     7.2228580121996987E-014
  -1.6750000000000001E-002     1.4569164260090017E-013
  -1.6700000000000000E-002     2.0171695534460218E-013
  -1.6649999999999998E-002     2.3176180237930697E-013
  -1.6600000000000000E-002     2.3125596139808582E-013
  -1.6549999999999999E-002     2.0062790502956188E-013
  -1.6500000000000001E-002     1.4551691183226431E-013
  -1.6449999999999999E-002     7.6069749359263752E-014
  -1.6400000000000001E-002     5.3724949237001542E-015
  -1.6350000000000000E-002    -5.2780197654592197E-014
  -1.6299999999999999E-002    -8.6446588452334114E-014
  -1.6250000000000001E-002    -8.8013360609932860E-014
  -1.6199999999999999E-002    -5.6144282279366949E-014
  -1.6150000000000001E-002     3.1937329324258343E-015
  -1.6100000000000000E-002     7.6908059170664692E-014
  -1.6049999999999998E-002     1.4626946937736948E-013
  -1.6000000000000000E-002     1.8961130288845218E-013
  -1.5949999999999999E-002     1.8592113498357292E-013
  -1.5900000000000001E-002     1.1881994300000261E-013
  -1.5850000000000000E-002    -1.9696649212385007E-014
  -1.5799999999999998E-002    -2.2640832380929964E-013
  -1.5750000000000000E-002    -4.8548072278156570E-013
  -1.5699999999999999E-002    -7.6891842830003606E-013
  -1.5650000000000001E-002    -1.0389711117018941E-012
  -1.5599999999999999E-002    -1.2522955101268227E-012
  -1.5550000000000001E-002    -1.3653837954557922E-012
  -1.5500000000000000E-002    -1.3405447892221470E-012
  -1.5449999999999998E-002    -1.1516145069282709E-012
  -1.5400000000000000E-002    -7.8859779066946291E-013
  -1.5349999999999999E-002    -2.6059265328384536E-013
  -1.5300000000000001E-002     4.0339666104984795E-013
  -1.5250000000000000E-002     1.1558541625315853E-012
  -1.5199999999999998E-002     1.9341543896584974E-012
  -1.5150000000000000E-002     2.6655396892576293E-012
  -1.5099999999999999E-002     3.2730902702021504E-012
  -1.5050000000000001E-002     3.6820658034354724E-012
  -1.4999999999999999E-002     3.8260401686879275E-012
  -1.4949999999999998E-002     3.6523676162225256E-012
  -1.4900000000000000E-002     3.1266469692886096E-012
  -1.4849999999999999E-002     2.2360077994353226E-012
  -1.4800000000000001E-002     9.9115026961990989E-013
  -1.4749999999999999E-002    -5.7281366546937519E-013
  -1.4700000000000001E-002    -2.3965913549034665E-012
  -1.4650000000000000E-002    -4.3978098043017509E-012
  -1.4599999999999998E-002    -6.4727123194253188E-012
  -1.4550000000000000E-002    -8.4981275729114777E-012
  -1.4499999999999999E-002    -1.0333374340924636E-011
  -1.4450000000000001E-002    -1.1821789902740004E-011
  -1.4400000000000000E-002    -1.2791697771740537E-011
  -1.4349999999999998E-002    -1.3056795606436502E-011
  -1.4300000000000000E-002    -1.2416176332568596E-011
  -1.4249999999999999E-002    -1.0654442205575141E-011
  -1.4200000000000001E-002    -7.5425313955450651E-012
  -1.4149999999999999E-002    -2.8399689290112709E-012
  -1.4099999999999998E-002     3.7008573722928177E-012
  -1.4050000000000000E-002     1.2328011627423390E-011
  -1.3999999999999999E-002     2.3280945866574539E-011
  -1.3950000000000001E-002     3.6779492990726568E-011
  -1.3899999999999999E-002     5.3011912563193079E-011
  -1.3850000000000001E-002     7.2123131232614908E-011
  -1.3800000000000000E-002     9.4204739574207039E-011
  -1.3749999999999998E-002     1.1928804229524232E-010
  -1.3700000000000000E-002     1.4734143779109341E-010
  -1.3649999999999999E-002     1.7827270079257601E-010
  -1.3600000000000001E-002     2.1193649927244405E-010
  -1.3550000000000000E-002     2.4814653129270816E-010
  -1.3499999999999998E-002     2.8669151901419098E-010
  -1.3450000000000000E-002     3.2735324708580084E-010
  -1.3399999999999999E-002     3.6992516228543606E-010
  -1.3350000000000001E-002     4.1422930004952404E-010
  -1.3299999999999999E-002     4.6012980547675113E-010
  -1.3249999999999998E-002     5.0754118491129428E-010
  -1.3200000000000000E-002     5.5643035309573339E-010
  -1.3149999999999998E-002     6.0681227709039191E-010
  -1.3100000000000001E-002     6.5873938684189340E-010
  -1.3049999999999999E-002     7.1228683942095187E-010
  -1.3000000000000001E-002     7.6753531464147814E-010
  -1.2950000000000000E-002     8.2455401511143365E-010
  -1.2899999999999998E-002     8.8338773861572302E-010
  -1.2850000000000000E-002     9.4404888471201889E-010
  -1.2799999999999999E-002     1.0065172354233822E-009