  -4.0000000000000001E-002     0.0000000000000000     
  -3.9949999999999999E-002     0.0000000000000000     
  -3.9899999999999998E-002     0.0000000000000000     
  -3.9850000000000003E-002     0.0000000000000000     
  -3.9800000000000002E-002     0.0000000000000000     
  -3.9750000000000001E-002     0.0000000000000000     
  -3.9699999999999999E-002     0.0000000000000000     
  -3.9649999999999998E-002     0.0000000000000000     
  -3.9600000000000003E-002     0.0000000000000000     
  -3.9550000000000002E-002     0.0000000000000000     
  -3.9500000000000000E-002     0.0000000000000000     
  -3.9449999999999999E-002     0.0000000000000000     
  -3.9399999999999998E-002     0.0000000000000000     
  -3.9350000000000003E-002     0.0000000000000000     
  -3.9300000000000002E-002     0.0000000000000000     
  -3.9250000000000000E-002     0.0000000000000000     
  -3.9199999999999999E-002     0.0000000000000000     
  -3.9150000000000004E-002     0.0000000000000000     
  -3.9100000000000003E-002     0.0000000000000000     
  -3.9050000000000001E-002     0.0000000000000000     
  -3.9000000000000000E-002     0.0000000000000000     
  -3.8949999999999999E-002     0.0000000000000000     
  -3.8900000000000004E-002     0.0000000000000000     
  -3.8850000000000003E-002     0.0000000000000000     
  -3.8800000000000001E-002     0.0000000000000000     
  -3.8750000000000000E-002     0.0000000000000000     
  -3.8699999999999998E-002     0.0000000000000000     
  -3.8650000000000004E-002     0.0000000000000000     
  -3.8600000000000002E-002     0.0000000000000000     
  -3.8550000000000001E-002     0.0000000000000000     
  -3.8500000000000000E-002     0.0000000000000000     
  -3.8449999999999998E-002     0.0000000000000000     
  -3.8400000000000004E-002     0.0000000000000000     
  -3.8350000000000002E-002     0.0000000000000000     
  -3.8300000000000001E-002     0.0000000000000000     
  -3.8249999999999999E-002     0.0000000000000000     
  -3.8199999999999998E-002     0.0000000000000000     
  -3.8150000000000003E-002     0.0000000000000000     
  -3.8100000000000002E-002     0.0000000000000000     
  -3.8050000000000000E-002     0.0000000000000000     
  -3.7999999999999999E-002     0.0000000000000000     
  -3.7949999999999998E-002     0.0000000000000000     
  -3.7900000000000003E-002     0.0000000000000000     
  -3.7850000000000002E-002     0.0000000000000000     
  -3.7800000000000000E-002     0.0000000000000000     
  -3.7749999999999999E-002     0.0000000000000000     
  -3.7699999999999997E-002     0.0000000000000000     
  -3.7650000000000003E-002     0.0000000000000000     
  -3.7600000000000001E-002     0.0000000000000000     
  -3.7550000000000000E-002     0.0000000000000000     
  -3.7499999999999999E-002     0.0000000000000000     
  -3.7449999999999997E-002     0.0000000000000000     
  -3.7400000000000003E-002     0.0000000000000000     
  -3.7350000000000001E-002     0.0000000000000000     
  -3.7300000000000000E-002     0.0000000000000000     
  -3.7249999999999998E-002     0.0000000000000000     
  -3.7200000000000004E-002     0.0000000000000000     
  -3.7150000000000002E-002     0.0000000000000000     
  -3.7100000000000001E-002     0.0000000000000000     
  -3.7050000000000000E-002     0.0000000000000000     
  -3.6999999999999998E-002     0.0000000000000000     
  -3.6950000000000004E-002     0.0000000000000000     
  -3.6900000000000002E-002     0.0000000000000000     
  -3.6850000000000001E-002     0.0000000000000000     
  -3.6799999999999999E-002     0.0000000000000000     
  -3.6749999999999998E-002     0.0000000000000000     
  -3.6700000000000003E-002     0.0000000000000000     
  -3.6650000000000002E-002     0.0000000000000000     
  -3.6600000000000001E-002     0.0000000000000000     
  -3.6549999999999999E-002     0.0000000000000000     
  -3.6499999999999998E-002     0.0000000000000000     
  -3.6450000000000003E-002     0.0000000000000000     
  -3.6400000000000002E-002     0.0000000000000000     
  -3.6350000000000000E-002     0.0000000000000000     
  -3.6299999999999999E-002     0.0000000000000000     
  -3.6249999999999998E-002     0.0000000000000000     
  -3.6200000000000003E-002     0.0000000000000000     
  -3.6150000000000002E-002     0.0000000000000000     
  -3.6100000000000000E-002     0.0000000000000000     
  -3.6049999999999999E-002     0.0000000000000000     
  -3.6000000000000004E-002     0.0000000000000000     
  -3.5950000000000003E-002     0.0000000000000000     
  -3.5900000000000001E-002     0.0000000000000000     
  -3.5850000000000000E-002     0.0000000000000000     
  -3.5799999999999998E-002     0.0000000000000000     
  -3.5750000000000004E-002     0.0000000000000000     
  -3.5700000000000003E-002     0.0000000000000000     
  -3.5650000000000001E-002     0.0000000000000000     
  -3.5600000000000000E-002     0.0000000000000000     
  -3.5549999999999998E-002     0.0000000000000000     
  -3.5500000000000004E-002     0.0000000000000000     
  -3.5450000000000002E-002     0.0000000000000000     
  -3.5400000000000001E-002     0.0000000000000000     
  -3.5349999999999999E-002     0.0000000000000000     
  -3.5299999999999998E-002     0.0000000000000000     
  -3.5250000000000004E-002     0.0000000000000000     
  -3.5200000000000002E-002    -2.2810449022107227E-039
  -3.5150000000000001E-002    -4.8876678380480395E-039
  -3.5099999999999999E-002    -6.2883826114486699E-039
  -3.5049999999999998E-002    -1.9225394684237544E-039
  -3.5000000000000003E-002     1.6951466712477585E-038
  -3.4950000000000002E-002     4.8034229875877490E-038
  -3.4900000000000000E-002     7.6715331000463493E-038
  -3.4849999999999999E-002     7.6987064171904082E-038
  -3.4799999999999998E-002    -1.5120371927129679E-038
  -3.4750000000000003E-002    -1.9377529332133635E-037
  -3.4700000000000002E-002    -4.5870339057106884E-037
  -3.4650000000000000E-002    -7.0236311129210993E-037
  -3.4599999999999999E-002    -7.4506100488489883E-037
  -3.4549999999999997E-002    -2.9911079141641477E-037
  -3.4500000000000003E-002     8.5577610043171483E-037
  -3.4450000000000001E-002     2.6954680106387478E-036
  -3.4400000000000000E-002     4.6629152665831258E-036
  -3.4349999999999999E-002     5.5315603785424101E-036
  -3.4299999999999997E-002     3.6132068007188014E-036
  -3.4250000000000003E-002    -2.5132390777901659E-036
  -3.4200000000000001E-002    -1.2778547231570540E-035
  -3.4150000000000000E-002    -2.4308776984914127E-035
  -3.4099999999999998E-002    -3.0851770505031288E-035
  -3.4049999999999997E-002    -2.3986751160903770E-035
  -3.4000000000000002E-002     3.2032848051391342E-036
  -3.3950000000000001E-002     5.0381780331250103E-035
  -3.3900000000000000E-002     1.0430961308435261E-034
  -3.3849999999999998E-002     1.3713792870969998E-034
  -3.3799999999999997E-002     1.1291817173322044E-034
  -3.3750000000000002E-002     4.4367970729929301E-036
  -3.3700000000000001E-002    -1.8281313760868069E-034
  -3.3649999999999999E-002    -3.8996220211346845E-034
  -3.3599999999999998E-002    -5.0356829660656285E-034
  -3.3550000000000003E-002    -3.8921334428544360E-034
  -3.3500000000000002E-002     3.6636246456097339E-035
  -3.3450000000000001E-002     7.1607100062422665E-034
  -3.3399999999999999E-002     1.3869736308193802E-033
  -3.3349999999999998E-002     1.6100090169631855E-033
  -3.3300000000000003E-002     9.3250523628837427E-034
  -3.3250000000000002E-002    -8.2083786651362701E-034
  -3.3200000000000000E-002    -3.2323323093305600E-033
  -3.3149999999999999E-002    -5.1427275990799759E-033
  -3.3099999999999997E-002    -4.8885973047038947E-033
  -3.3050000000000003E-002    -1.0459146233551388E-033
  -3.3000000000000002E-002     6.4476980740970746E-033
  -3.2950000000000000E-002     1.5258080630127582E-032
  -3.2899999999999999E-002     2.0444489584218333E-032
  -3.2850000000000004E-002     1.5794145235249180E-032
  -3.2800000000000003E-002    -3.0716659774537418E-033
  -3.2750000000000001E-002    -3.4566656089859644E-032
  -3.2700000000000000E-002    -6.7888892103974186E-032
  -3.2649999999999998E-002    -8.3290689783530726E-032
  -3.2600000000000004E-002    -5.8084525640025993E-032
  -3.2550000000000003E-002     2.1471519975070202E-032
  -3.2500000000000001E-002     1.4576266161514935E-031
  -3.2450000000000000E-002     2.7192043487931243E-031
  -3.2399999999999998E-002     3.2723989374786572E-031
  -3.2350000000000004E-002     2.3230242275020066E-031
  -3.2300000000000002E-002    -5.7469311318173757E-032
  -3.2250000000000001E-002    -5.0462503814109669E-031
  -3.2199999999999999E-002    -9.6055787101365597E-031
  -3.2149999999999998E-002    -1.1816531075365614E-030
  -3.2100000000000004E-002    -9.0786327240791166E-031
  -3.2050000000000002E-002     4.6766424183840811E-033
  -3.2000000000000001E-002     1.4403420229157703E-030
  -3.1949999999999999E-002     2.9430424184521975E-030
  -3.1899999999999998E-002     3.7753833572082825E-030
  -3.1850000000000003E-002     3.1598106794516452E-030
  -3.1800000000000002E-002     6.6575725077675171E-031
  -3.1750000000000000E-002    -3.3910922928383568E-030
  -3.1699999999999999E-002    -7.7451352010632933E-030
  -3.1649999999999998E-002    -1.0377531972352036E-029
  -3.1600000000000003E-002    -9.2019857166883597E-030
  -3.1550000000000002E-002    -3.1079965650031621E-030
  -3.1500000000000000E-002     7.0242406287094223E-030
  -3.1449999999999999E-002     1.7888566567476848E-029
  -3.1399999999999997E-002     2.4393156185412119E-029
  -3.1350000000000003E-002     2.1523692667991852E-029
  -3.1300000000000001E-002     6.9887955085682932E-030
  -3.1250000000000000E-002    -1.6410745639611331E-029
  -3.1199999999999999E-002    -4.0074180817263242E-029
  -3.1150000000000001E-002    -5.1667872660489013E-029
  -3.1100000000000003E-002    -4.0088855165602421E-029
  -3.1050000000000001E-002    -1.9490500351963301E-030
  -3.1000000000000000E-002     5.3217317372332598E-029
  -3.0949999999999998E-002     1.0237080285349481E-028
  -3.0900000000000000E-002     1.1536003090402680E-028
  -3.0850000000000002E-002     6.7960686137676415E-029
  -3.0800000000000001E-002    -4.2438632048640166E-029
  -3.0750000000000000E-002    -1.8563677740214907E-028
  -3.0699999999999998E-002    -2.9975644673476231E-028
  -3.0650000000000000E-002    -3.0946982355430202E-028
  -3.0600000000000002E-002    -1.5918226155586921E-028
  -3.0550000000000001E-002     1.4960785809171446E-028
  -3.0499999999999999E-002     5.3420275209690487E-028
  -3.0449999999999998E-002     8.3766658075034353E-028
  -3.0400000000000000E-002     8.7606315828225789E-028
  -3.0350000000000002E-002     5.1840903032518583E-028
  -3.0300000000000001E-002    -2.2779620329434760E-028
  -3.0249999999999999E-002    -1.1660853632616594E-027
  -3.0200000000000001E-002    -1.9343520597952081E-027
  -3.0150000000000000E-002    -2.1185629040755316E-027
  -3.0100000000000002E-002    -1.4343494452117290E-027
  -3.0050000000000000E-002     8.8643115745150711E-029
  -2.9999999999999999E-002     2.0106958991775054E-027
  -2.9950000000000001E-002     3.5550894962015338E-027
  -2.9899999999999999E-002     3.8763045425820655E-027
  -2.9850000000000002E-002     2.4606345018616185E-027
  -2.9800000000000000E-002    -4.9418920118172653E-028
  -2.9749999999999999E-002    -3.9215583805579810E-027
  -2.9700000000000001E-002    -6.1166149962226645E-027
  -2.9650000000000003E-002    -5.3885186153313415E-027
  -2.9600000000000001E-002    -9.6776374020072162E-028
  -2.9550000000000000E-002     6.1924541658592744E-027
  -2.9499999999999998E-002     1.3172221585216919E-026
  -2.9450000000000000E-002     1.5751976548980752E-026
  -2.9400000000000003E-002     1.0034882884658427E-026
  -2.9350000000000001E-002    -5.3829176662718847E-027
  -2.9300000000000000E-002    -2.7531922612106100E-026
  -2.9249999999999998E-002    -4.8512376669199998E-026
  -2.9200000000000000E-002    -5.7076251394038463E-026
  -2.9150000000000002E-002    -4.2480358319803376E-026
  -2.9100000000000001E-002     2.5821927891843890E-028
  -2.9049999999999999E-002     6.5548053287563766E-026
  -2.8999999999999998E-002     1.3519156670796249E-025
  -2.8950000000000000E-002     1.8110596542907429E-025
  -2.8900000000000002E-002     1.7339518896536005E-025
  -2.8850000000000001E-002     9.2263092536716516E-026
  -2.8799999999999999E-002    -5.9912495873747475E-026
  -2.8749999999999998E-002    -2.5134231985062316E-025
  -2.8700000000000000E-002    -4.2305351667444075E-025
  -2.8650000000000002E-002    -5.0278862548708351E-025
  -2.8600000000000000E-002    -4.2869820606410815E-025
  -2.8549999999999999E-002    -1.7641306480853642E-025
  -2.8500000000000001E-002     2.2016912981265471E-025
  -2.8450000000000000E-002     6.6431825843702444E-025
  -2.8400000000000002E-002     1.0144238110589970E-024
  -2.8350000000000000E-002     1.1236425315752593E-024
  -2.8299999999999999E-002     8.9177227820408304E-025
  -2.8250000000000001E-002     3.1277783841844557E-025
  -2.8200000000000003E-002    -5.0095858815406326E-025
  -2.8150000000000001E-002    -1.3321219808133582E-024
  -2.8100000000000000E-002    -1.9130224914693126E-024
  -2.8049999999999999E-002    -2.0096548122462845E-024
  -2.8000000000000001E-002    -1.5100193343267775E-024
  -2.7950000000000003E-002    -4.8465693927627309E-025
  -2.7900000000000001E-002     8.0845104176731961E-025
  -2.7850000000000000E-002     1.9866438220691358E-024
  -2.7799999999999998E-002     2.6614101105212952E-024
  -2.7750000000000000E-002     2.5779913076385389E-024
  -2.7700000000000002E-002     1.7259764813836750E-024
  -2.7650000000000001E-002     3.7332293942937612E-025
  -2.7600000000000000E-002    -1.0025023813038678E-024
  -2.7549999999999998E-002    -1.8769630466143000E-024
  -2.7500000000000000E-002    -1.8865080072602093E-024
  -2.7450000000000002E-002    -1.0071851437693247E-024
  -2.7400000000000001E-002     3.7396384901649387E-025
  -2.7349999999999999E-002     1.5451917564227747E-024
  -2.7299999999999998E-002     1.7121427441204223E-024
  -2.7250000000000000E-002     3.3214208690640048E-025
  -2.7200000000000002E-002    -2.5720862935475293E-024
  -2.7150000000000001E-002    -6.2476487373680362E-024
  -2.7099999999999999E-002    -9.2942294891396417E-024
  -2.7049999999999998E-002    -1.0021110565589960E-023
  -2.7000000000000000E-002    -7.0105746775070094E-024
  -2.6950000000000002E-002     2.6708163843407109E-025
  -2.6900000000000000E-002     1.0989182408160496E-023
  -2.6849999999999999E-002     2.2855398401828699E-023
  -2.6800000000000001E-002     3.2412353167538142E-023
  -2.6749999999999999E-002     3.5815637131574635E-023
  -2.6700000000000002E-002     2.9883583684088368E-023
  -2.6650000000000000E-002     1.3193610938890275E-023
  -2.6599999999999999E-002    -1.3070063260037436E-023
  -2.6550000000000001E-002    -4.4776548622417331E-023
  -2.6500000000000003E-002    -7.5179817837771723E-023
  -2.6450000000000001E-002    -9.5951905028370468E-023
  -2.6400000000000000E-002    -9.8809281128401971E-023
  -2.6349999999999998E-002    -7.7502743507871644E-023
  -2.6300000000000000E-002    -2.9848238618445321E-023
  -2.6250000000000002E-002     4.0591938977601896E-023
  -2.6200000000000001E-002     1.2361069414519817E-022
  -2.6150000000000000E-002     2.0267788023890178E-022
  -2.6099999999999998E-002     2.5684799068529770E-022
  -2.6050000000000000E-002     2.6442008138997026E-022
  -2.6000000000000002E-002     2.0814794666841852E-022
  -2.5950000000000001E-002     8.1273189556413634E-023
  -2.5899999999999999E-002    -1.0693811146806559E-022
  -2.5849999999999998E-002    -3.2794304919866196E-022
  -2.5800000000000000E-002    -5.3484407146369679E-022
  -2.5750000000000002E-002    -6.6888245258287851E-022
  -2.5700000000000001E-002    -6.7170983128754788E-022
  -2.5649999999999999E-002    -5.0188133055961320E-022
  -2.5599999999999998E-002    -1.5206933852885401E-022
  -2.5550000000000000E-002     3.3800731720285329E-022
  -2.5500000000000002E-002     8.7831961062680936E-022
  -2.5450000000000000E-002     1.3390294992446980E-021
  -2.5399999999999999E-002     1.5758048313238564E-021
  -2.5349999999999998E-002     1.4666432677128990E-021
  -2.5300000000000000E-002     9.5233145425937251E-022
  -2.5250000000000002E-002     6.9327117134133219E-023
  -2.5200000000000000E-002    -1.0367885122865955E-021
  -2.5149999999999999E-002    -2.1261683968835284E-021
  -2.5100000000000001E-002    -2.9102018781884144E-021
  -2.5049999999999999E-002    -3.1211625331438742E-021
  -2.5000000000000001E-002    -2.5906657899674836E-021
  -2.4950000000000000E-002    -1.3156513277162504E-021
  -2.4899999999999999E-002     5.0996367570469159E-022
  -2.4850000000000001E-002     2.5136942354821443E-021
  -2.4800000000000003E-002     4.2165190582725797E-021
  -2.4750000000000001E-002     5.1465848029240747E-021
  -2.4700000000000000E-002     4.9681059933232333E-021
  -2.4649999999999998E-002     3.5901949921752490E-021
  -2.4600000000000000E-002     1.2210682865907414E-021
  -2.4550000000000002E-002    -1.6554056629115164E-021
  -2.4500000000000001E-002    -4.3835102996487801E-021
  -2.4450000000000000E-002    -6.2984868976138211E-021
  -2.4399999999999998E-002    -6.9063588598854279E-021
  -2.4350000000000000E-002    -6.0286859368465669E-021
  -2.4299999999999999E-002    -3.8652329875352296E-021
  -2.4250000000000001E-002    -9.4826491448078463E-022
  -2.4199999999999999E-002     2.0061061823388270E-021
  -2.4150000000000001E-002     4.3102105380865134E-021
  -2.4100000000000000E-002     5.5163845305765880E-021
  -2.4049999999999998E-002     5.5565868187872847E-021
  -2.4000000000000000E-002     4.7551619475694882E-021
  -2.3949999999999999E-002     3.6970960725990989E-021
  -2.3900000000000001E-002     2.9829325568283543E-021
  -2.3850000000000000E-002     2.9470440956585257E-021
  -2.3800000000000002E-002     3.4421602944147575E-021
  -2.3750000000000000E-002     3.7878192377669901E-021
  -2.3699999999999999E-002     2.9396870441822924E-021
  -2.3650000000000001E-002    -1.3194742279663796E-022
  -2.3599999999999999E-002    -5.9452523893696093E-021
  -2.3550000000000001E-002    -1.4046858705810172E-020
  -2.3500000000000000E-002    -2.2770277345968357E-020
  -2.3449999999999999E-002    -2.9364890827427551E-020
  -2.3400000000000001E-002    -3.0560992563602622E-020
  -2.3349999999999999E-002    -2.3507410591606473E-020
  -2.3300000000000001E-002    -6.8791682748053946E-021
  -2.3250000000000000E-002     1.8155609334704641E-020
  -2.3199999999999998E-002     4.7456971943014569E-020
  -2.3150000000000000E-002     7.4208781410160677E-020
  -2.3099999999999999E-002     9.0111708647097835E-020
  -2.3050000000000001E-002     8.7358307320764996E-020
  -2.3000000000000000E-002     6.1014484249500516E-020
  -2.2950000000000002E-002     1.1220975829268391E-020
  -2.2900000000000000E-002    -5.5462002289307837E-020
  -2.2849999999999999E-002    -1.2615997639234058E-019
  -2.2800000000000001E-002    -1.8356254113483927E-019
  -2.2749999999999999E-002    -2.0947634894675686E-019
  -2.2700000000000001E-002    -1.8946719821434836E-019
  -2.2650000000000000E-002    -1.1757458451324479E-019
  -2.2599999999999999E-002     1.6152067563258616E-022
  -2.2550000000000001E-002     1.4457163971432488E-019
  -2.2499999999999999E-002     2.8544477453833192E-019
  -2.2450000000000001E-002     3.8695755483260620E-019
  -2.2400000000000000E-002     4.1569975005817961E-019
  -2.2349999999999998E-002     3.4970790221678328E-019
  -2.2300000000000000E-002     1.8633572684408764E-019
  -2.2249999999999999E-002    -5.3321291986340682E-020
  -2.2200000000000001E-002    -3.2525381233040245E-019
  -2.2150000000000000E-002    -5.6937733308014422E-019
  -2.2100000000000002E-002    -7.2169863087205493E-019
  -2.2050000000000000E-002    -7.2960953293415560E-019
  -2.1999999999999999E-002    -5.6690963349281937E-019
  -2.1950000000000001E-002    -2.4465564941507537E-019
  -2.1899999999999999E-002     1.8561685310780231E-019
  -2.1850000000000001E-002     6.3832507948114474E-019
  -2.1800000000000000E-002     1.0097621673360910E-018
  -2.1749999999999999E-002     1.2008675114743100E-018
  -2.1700000000000001E-002     1.1420520800570554E-018
  -2.1649999999999999E-002     8.1407629467311199E-019
  -2.1600000000000001E-002     2.5918835643881109E-019
  -2.1550000000000000E-002    -4.2152972084735881E-019
  -2.1499999999999998E-002    -1.0856287095587684E-018
  -2.1450000000000000E-002    -1.5789144088876578E-018
  -2.1399999999999999E-002    -1.7711591408875092E-018
  -2.1350000000000001E-002    -1.5895995291040153E-018
  -2.1299999999999999E-002    -1.0416243866535080E-018
  -2.1250000000000002E-002    -2.1994883157317915E-019
  -2.1200000000000000E-002     7.1256561828991408E-019
  -2.1149999999999999E-002     1.5563405999024215E-018
  -2.1100000000000001E-002     2.1198066212321840E-018
  -2.1049999999999999E-002     2.2650158156719673E-018
  -2.1000000000000001E-002     1.9427514912532659E-018
  -2.0950000000000000E-002     1.2076799639458171E-018
  -2.0899999999999998E-002     2.0867523847903588E-019
  -2.0850000000000000E-002    -8.4435285286075313E-019
  -2.0799999999999999E-002    -1.7295482464264446E-018
  -2.0750000000000001E-002    -2.2659342643521442E-018
  -2.0700000000000000E-002    -2.3562387200515080E-018
  -2.0649999999999998E-002    -2.0081145708987305E-018
  -2.0600000000000000E-002    -1.3276327924327476E-018
  -2.0549999999999999E-002    -4.8648662067059139E-019
  -2.0500000000000001E-002     3.2809807722890178E-019
  -2.0449999999999999E-002     9.6626829746946125E-019
  -2.0400000000000001E-002     1.3552514757230635E-018
  -2.0350000000000000E-002     1.5130098710199163E-018
  -2.0299999999999999E-002     1.5303234558336512E-018
  -2.0250000000000001E-002     1.5255621961371776E-018
  -2.0199999999999999E-002     1.5858571097953506E-018
  -2.0150000000000001E-002     1.7146249981881531E-018
  -2.0100000000000000E-002     1.8060351163374139E-018
  -2.0049999999999998E-002     1.6610596081129203E-018
  -2.0000000000000000E-002     1.0481222921231233E-018
  -1.9949999999999999E-002    -2.0334275440234328E-019
  -1.9900000000000001E-002    -2.1017663920638209E-018
  -1.9850000000000000E-002    -4.4183501328204806E-018
  -1.9799999999999998E-002    -6.6709069328162836E-018
  -1.9750000000000000E-002    -8.1883568794292972E-018
  -1.9699999999999999E-002    -8.2573360385370425E-018
  -1.9650000000000001E-002    -6.3272211390252763E-018
  -1.9599999999999999E-002    -2.2263177170881233E-018
  -1.9550000000000001E-002     3.6726755303660921E-018
  -1.9500000000000000E-002     1.0399445435037260E-017
  -1.9449999999999999E-002     1.6488350034957048E-017
  -1.9400000000000001E-002     2.0244811018798526E-017
  -1.9349999999999999E-002     2.0139923292755441E-017
  -1.9300000000000001E-002     1.5253808420621128E-017
  -1.9250000000000000E-002     5.6577216445531154E-018
  -1.9199999999999998E-002    -7.3813086376488392E-018
  -1.9150000000000000E-002    -2.1465012192043887E-017
  -1.9099999999999999E-002    -3.3435231189808165E-017
  -1.9050000000000001E-002    -4.0015066627120757E-017
  -1.9000000000000000E-002    -3.8604422178468670E-017
  -1.8949999999999998E-002    -2.8052673570333472E-017
  -1.8900000000000000E-002    -9.2056248274475222E-018
  -1.8849999999999999E-002     1.4952414657729820E-017
  -1.8800000000000001E-002     3.9665959921846921E-017
  -1.8749999999999999E-002     5.9275462502622102E-017
  -1.8700000000000001E-002     6.8444851520934818E-017
  -1.8650000000000000E-002     6.3496988572894634E-017
  -1.8599999999999998E-002     4.3539652664912323E-017
  -1.8550000000000001E-002     1.1072297392044169E-017
  -1.8499999999999999E-002    -2.8148039760525403E-017
  -1.8450000000000001E-002    -6.6046787204815098E-017
  -1.8400000000000000E-002    -9.3849741913891172E-017
  -1.8349999999999998E-002    -1.0406585787930581E-016
  -1.8300000000000000E-002    -9.2394321942158016E-017
  -1.8249999999999999E-002    -5.9083924573760407E-017
  -1.8200000000000001E-002    -9.3564438254958548E-018
  -1.8149999999999999E-002     4.7304452775608031E-017
  -1.8100000000000002E-002     9.8939035197641963E-017
  -1.8050000000000000E-002     1.3364406471387206E-016
  -1.7999999999999999E-002     1.4231302472312874E-016
  -1.7950000000000001E-002     1.2094848374156343E-016
  -1.7899999999999999E-002     7.1964407332118946E-017
  -1.7850000000000001E-002     4.0956701347368491E-018
  -1.7800000000000000E-002    -6.9159630116870154E-017
  -1.7749999999999998E-002    -1.3229191459753083E-016
  -1.7700000000000000E-002    -1.7115085602113797E-016
  -1.7649999999999999E-002    -1.7617988895211312E-016
  -1.7600000000000001E-002    -1.4475372411225997E-016
  -1.7550000000000000E-002    -8.2036221043844848E-017
  -1.7499999999999998E-002    -1.0401108457193300E-019
  -1.7450000000000000E-002     8.4517255869443754E-017
  -1.7399999999999999E-002     1.5437594562116512E-016
  -1.7350000000000001E-002     1.9488526748674375E-016
  -1.7299999999999999E-002     1.9751042106419232E-016
  -1.7250000000000001E-002     1.6161196400661504E-016
  -1.7200000000000000E-002     9.4516684983333722E-017
  -1.7149999999999999E-002     9.8098676034850463E-018
  -1.7100000000000001E-002    -7.5732989275464863E-017
  -1.7049999999999999E-002    -1.4583074197947833E-016
  -1.7000000000000001E-002    -1.8811488466082365E-016
  -1.6950000000000000E-002    -1.9648055604963908E-016
  -1.6899999999999998E-002    -1.7185458565836022E-016
  -1.6850000000000000E-002    -1.2128169274227571E-016
  -1.6799999999999999E-002    -5.5666789087071550E-017
  -1.6750000000000001E-002     1.3143511180951337E-017
  -1.6700000000000000E-002     7.5103493260549022E-017
  -1.6649999999999998E-002     1.2377853527967375E-016
  -1.6600000000000000E-002     1.5676656452449733E-016
  -1.6549999999999999E-002     1.7471444411031007E-016
  -1.6500000000000001E-002     1.7936813051771673E-016
  -1.6449999999999999E-002     1.7143855088701526E-016
  -1.6400000000000001E-002     1.4917236100573493E-016
  -1.6350000000000000E-002     1.0834387956303081E-016
  -1.6299999999999999E-002     4.3952843592133880E-017
  -1.6250000000000001E-002    -4.6675922779890754E-017
  -1.6199999999999999E-002    -1.6027561364785722E-016
  -1.6150000000000001E-002    -2.8477974804996968E-016
  -1.6100000000000000E-002    -3.9854669539900105E-016
  -1.6049999999999998E-002    -4.7262871373112452E-016
  -1.6000000000000000E-002    -4.7629749955791853E-016
  -1.5949999999999999E-002    -3.8507156933799648E-016
  -1.5900000000000001E-002    -1.8954045943607513E-016
  -1.5850000000000000E-002     9.7371687307965553E-017
  -1.5799999999999998E-002     4.3716334391200104E-016
  -1.5750000000000000E-002     7.6842948504793182E-016
  -1.5699999999999999E-002     1.0161384789548771E-015
  -1.5650000000000001E-002     1.1065535871821430E-015
  -1.5599999999999999E-002     9.8517493219385540E-016
  -1.5550000000000001E-002     6.3375249525512554E-016
  -1.5500000000000000E-002     8.1945001834401168E-017
  -1.5449999999999998E-002    -5.9024866344098910E-016
  -1.5400000000000000E-002    -1.2615107048068089E-015
  -1.5349999999999999E-002    -1.7894404836838992E-015
  -1.5300000000000001E-002    -2.0389848377360305E-015
  -1.5250000000000000E-002    -1.9136216492566605E-015
  -1.5199999999999998E-002    -1.3824215604981012E-015
  -1.5150000000000000E-002    -4.9617002310272989E-016
  -1.5099999999999999E-002     6.1256110634317338E-016
  -1.5050000000000001E-002     1.7473871561647625E-015
  -1.4999999999999999E-002     2.6821930825803393E-015
  -1.4949999999999998E-002     3.2054788024739179E-015
  -1.4900000000000000E-002     3.1662485167522873E-015
  -1.4849999999999999E-002     2.5115420852893930E-015
  -1.4800000000000001E-002     1.3067320258663084E-015
  -1.4749999999999999E-002    -2.6720802590669801E-016
  -1.4700000000000001E-002    -1.9406200502005122E-015
  -1.4650000000000000E-002    -3.4022889622603591E-015
  -1.4599999999999998E-002    -4.3582084008531631E-015
  -1.4550000000000000E-002    -4.5904920013262225E-015
  -1.4499999999999999E-002    -4.0043935920338046E-015
  -1.4450000000000001E-002    -2.6533432222408644E-015
  -1.4400000000000000E-002    -7.3618398981153101E-016
  -1.4349999999999998E-002     1.4337954800369753E-015
  -1.4300000000000000E-002     3.4826678547917832E-015
  -1.4249999999999999E-002     5.0425827405614689E-015
  -1.4200000000000001E-002     5.8188243388175553E-015
  -1.4149999999999999E-002     5.6445537715713990E-015
  -1.4099999999999998E-002     4.5130144485853542E-015
  -1.4050000000000000E-002     2.5813398827600968E-015
  -1.3999999999999999E-002     1.4550799043311998E-016
  -1.3950000000000001E-002    -2.4087014547328227E-015
  -1.3899999999999999E-002    -4.6697275407783745E-015
  -1.3850000000000001E-002    -6.2678315227865916E-015
  -1.3800000000000000E-002    -6.9347531274773581E-015
  -1.3749999999999998E-002    -6.5458201345348532E-015
  -1.3700000000000000E-002    -5.1383660324286533E-015
  -1.3649999999999999E-002    -2.9045585725158449E-015
  -1.3600000000000001E-002    -1.6105214282190942E-016
  -1.3550000000000000E-002     2.6987314575948405E-015
  -1.3499999999999998E-002     5.2616851908589139E-015
  -1.3450000000000000E-002     7.1527753783845031E-015
  -1.3399999999999999E-002     8.0856076313070136E-015
  -1.3350000000000001E-002     7.8997073108654502E-015
  -1.3299999999999999E-002     6.5809170349239714E-015
  -1.3249999999999998E-002     4.2637740861367047E-015
  -1.3200000000000000E-002     1.2168574760246943E-015
  -1.3149999999999998E-002    -2.1864179862523783E-015
  -1.3100000000000001E-002    -5.5082997453938396E-015
  -1.3049999999999999E-002    -8.2949198258216889E-015
  -1.3000000000000001E-002    -1.0128579666001474E-014
  -1.2950000000000000E-002    -1.0680308132134788E-014
  -1.2899999999999998E-002    -9.7581962853429523E-015
  -1.2850000000000000E-002    -7.3465026523950559E-015
  -1.2799999999999999E-002    -3.6294292272861572E-015