  -4.0000000000000001E-002     0.0000000000000000     
  -3.9949999999999999E-002     0.0000000000000000     
  -3.9899999999999998E-002     0.0000000000000000     
  -3.9850000000000003E-002     0.0000000000000000     
  -3.9800000000000002E-002     0.0000000000000000     
  -3.9750000000000001E-002     0.0000000000000000     
  -3.9699999999999999E-002     0.0000000000000000     
  -3.9649999999999998E-002     0.0000000000000000     
  -3.9600000000000003E-002     0.0000000000000000     
  -3.9550000000000002E-002     0.0000000000000000     
  -3.9500000000000000E-002     0.0000000000000000     
  -3.9449999999999999E-002     0.0000000000000000     
  -3.9399999999999998E-002     0.0000000000000000     
  -3.9350000000000003E-002     0.0000000000000000     
  -3.9300000000000002E-002     0.0000000000000000     
  -3.9250000000000000E-002     0.0000000000000000     
  -3.9199999999999999E-002     0.0000000000000000     
  -3.9150000000000004E-002     0.0000000000000000     
  -3.9100000000000003E-002     0.0000000000000000     
  -3.9050000000000001E-002     0.0000000000000000     
  -3.9000000000000000E-002     0.0000000000000000     
  -3.8949999999999999E-002     2.8527903721093216E-038
  -3.8900000000000004E-002     2.1573988871562997E-037
  -3.8850000000000003E-002     1.1214703218163141E-036
  -3.8800000000000001E-002     4.3350278055824182E-036
  -3.8750000000000000E-002     1.2670254437327720E-035
  -3.8699999999999998E-002     2.7016555135171557E-035
  -3.8650000000000004E-002     3.1730702711798160E-035
  -3.8600000000000002E-002    -4.2264203023678940E-035
  -3.8550000000000001E-002    -3.7315329405544072E-034
  -3.8500000000000000E-002    -1.2561093897354172E-033
  -3.8449999999999998E-002    -2.8620588767298379E-033
  -3.8400000000000004E-002    -4.4008695287651761E-033
  -3.8350000000000002E-002    -2.4614947973405809E-033
  -3.8300000000000001E-002     1.0764885208892116E-032
  -3.8249999999999999E-002     4.6394847162672912E-032
  -3.8199999999999998E-002     1.0879938334702195E-031
  -3.8150000000000003E-002     1.6978512311018865E-031
  -3.8100000000000002E-002     1.2897124614507568E-031
  -3.8050000000000000E-002    -2.1115163982987306E-031
  -3.7999999999999999E-002    -1.0831993749106064E-030
  -3.7949999999999998E-002    -2.4994794017236087E-030
  -3.7900000000000003E-002    -3.7405189713428955E-030
  -3.7850000000000002E-002    -2.7428594314781420E-030
  -3.7800000000000000E-002     4.0168064415675845E-030
  -3.7749999999999999E-002     2.0022680431011499E-029
  -3.7699999999999997E-002     4.4382356332382461E-029
  -3.7650000000000003E-002     6.4581622975288534E-029
  -3.7600000000000001E-002     4.9457113362752235E-029
  -3.7550000000000000E-002    -4.9509379879296957E-029
  -3.7499999999999999E-002    -2.7628244951792853E-028
  -3.7449999999999997E-002    -6.1761319651298328E-028
  -3.7400000000000003E-002    -9.2502984309291949E-028
  -3.7350000000000001E-002    -8.4933756144673179E-028
  -3.7300000000000000E-002     1.3316803075997277E-028
  -3.7249999999999998E-002     2.5001096261787465E-027
  -3.7200000000000004E-002     6.2038728870180795E-027
  -3.7150000000000002E-002     1.0012460937306689E-026
  -3.7100000000000001E-002     1.0997355841297792E-026
  -3.7050000000000000E-002     4.7623962520822278E-027
  -3.6999999999999998E-002    -1.2906020546573748E-026
  -3.6950000000000004E-002    -4.2647852190436725E-026
  -3.6900000000000002E-002    -7.7073054408580406E-026
  -3.6850000000000001E-002    -9.7424427915657373E-026
  -3.6799999999999999E-002    -7.4931206137214801E-026
  -3.6749999999999998E-002     1.9465206373669408E-026
  -3.6700000000000003E-002     1.9578280124455761E-025
  -3.6650000000000002E-002     4.2042647522428906E-025
  -3.6600000000000001E-002     5.9828005088003558E-025
  -3.6549999999999999E-002     5.7928999392984120E-025
  -3.6499999999999998E-002     2.0617603206108862E-025
  -3.6450000000000003E-002    -5.9347242681807942E-025
  -3.6400000000000002E-002    -1.6938364233101911E-024
  -3.6350000000000000E-002    -2.6914384933172338E-024
  -3.6299999999999999E-002    -2.9358479581254688E-024
  -3.6249999999999998E-002    -1.7346386220866954E-024
  -3.6200000000000003E-002     1.2651408100865276E-024
  -3.6150000000000002E-002     5.6248171993842967E-024
  -3.6100000000000000E-002     9.8158264853795696E-024
  -3.6049999999999999E-002     1.1362216953217240E-023
  -3.6000000000000004E-002     7.6394503661031933E-024
  -3.5950000000000003E-002    -2.7053559205002330E-024
  -3.5900000000000001E-002    -1.8140755329009137E-023
  -3.5850000000000000E-002    -3.3266619585682064E-023
  -3.5799999999999998E-002    -3.9430716260938684E-023
  -3.5750000000000004E-002    -2.7590980053360124E-023
  -3.5700000000000003E-002     6.8396765024779328E-024
  -3.5650000000000001E-002     5.8732366502973770E-023
  -3.5600000000000000E-002     1.1030220550775254E-022
  -3.5549999999999998E-002     1.3350703825375701E-022
  -3.5500000000000004E-002     9.9517178422353907E-023
  -3.5450000000000002E-002    -6.0157999662198729E-024
  -3.5400000000000001E-002    -1.6713311001097542E-022
  -3.5349999999999999E-002    -3.2964076169408854E-022
  -3.5299999999999998E-002    -4.0976028739396779E-022
  -3.5250000000000004E-002    -3.2352872736445445E-022
  -3.5200000000000002E-002    -3.1867395369627334E-023
  -3.5150000000000001E-002     4.1510072724916953E-022
  -3.5099999999999999E-002     8.5913547965955413E-022
  -3.5049999999999998E-002     1.0639556582701676E-021
  -3.5000000000000003E-002     8.0334119479900286E-022
  -3.4950000000000002E-002    -1.0682502102203982E-023
  -3.4900000000000000E-002    -1.2085108942323475E-021
  -3.4849999999999999E-002    -2.3216192833542610E-021
  -3.4799999999999998E-002    -2.6814871278394232E-021
  -3.4750000000000003E-002    -1.6774317751829860E-021
  -3.4700000000000002E-002     8.8318112029512636E-022
  -3.4650000000000000E-002     4.4510733857635491E-021
  -3.4599999999999999E-002     7.6356168191481651E-021
  -3.4549999999999997E-002     8.4931241456095965E-021
  -3.4500000000000003E-002     5.2451937799318680E-021
  -3.4450000000000001E-002    -2.7298010649215674E-021
  -3.4400000000000000E-002    -1.4000770228331814E-020
  -3.4349999999999999E-002    -2.4774695613745370E-020
  -3.4299999999999997E-002    -2.9597505323713788E-020
  -3.4250000000000003E-002    -2.3181137908262660E-020
  -3.4200000000000001E-002    -2.9755835758231267E-021
  -3.4150000000000000E-002     2.8418032817047753E-020
  -3.4099999999999998E-002     6.2200955865461532E-020
  -3.4049999999999997E-002     8.4752769128677160E-020
  -3.4000000000000002E-002     8.1769680262626909E-020
  -3.3950000000000001E-002     4.4347208962776168E-020
  -3.3900000000000000E-002    -2.5029744698356062E-020
  -3.3849999999999998E-002    -1.0935118028899114E-019
  -3.3799999999999997E-002    -1.7926872590830156E-019
  -3.3750000000000002E-002    -2.0152851029019208E-019
  -3.3700000000000001E-002    -1.5205033685431151E-019
  -3.3649999999999999E-002    -2.9383812139195918E-020
  -3.3599999999999998E-002     1.3736115676911155E-019
  -3.3550000000000003E-002     2.9149871109900145E-019
  -3.3500000000000002E-002     3.6491669434232755E-019
  -3.3450000000000001E-002     3.0444600107644324E-019
  -3.3399999999999999E-002     9.9953486848688162E-020
  -3.3349999999999998E-002    -1.9783423258602933E-019
  -3.3300000000000003E-002    -4.8098314541238272E-019
  -3.3250000000000002E-002    -6.1463829944211328E-019
  -3.3200000000000000E-002    -4.8888424899272317E-019
  -3.3149999999999999E-002    -7.6023217927564381E-020
  -3.3099999999999997E-002     5.3021105202607687E-019
  -3.3050000000000003E-002     1.1162080767383695E-018
  -3.3000000000000002E-002     1.4026392130148326E-018
  -3.2950000000000000E-002     1.1439530120089891E-018
  -3.2899999999999999E-002     2.4453925649447028E-019
  -3.2850000000000004E-002    -1.1522847961811453E-018
  -3.2800000000000003E-002    -2.6472005294479005E-018
  -3.2750000000000001E-002    -3.6669661725192279E-018
  -3.2700000000000000E-002    -3.6396859320701720E-018
  -3.2649999999999998E-002    -2.2182199254810494E-018
  -3.2600000000000004E-002     5.2368417043549270E-019
  -3.2550000000000003E-002     4.0052557353923462E-018
  -3.2500000000000001E-002     7.2214816720133593E-018
  -3.2450000000000000E-002     9.0015701859843098E-018
  -3.2399999999999998E-002     8.3842897632814002E-018
  -3.2350000000000004E-002     4.9954307651457246E-018
  -3.2300000000000002E-002    -7.0978637052194843E-019
  -3.2250000000000001E-002    -7.4506156829810513E-018
  -3.2199999999999999E-002    -1.3409536914177520E-017
  -3.2149999999999998E-002    -1.6745239537479765E-017
  -3.2100000000000004E-002    -1.6177790365858584E-017
  -3.2050000000000002E-002    -1.1446969482686324E-017
  -3.2000000000000001E-002    -3.4672272569023662E-018
  -3.1949999999999999E-002     5.9040896474570017E-018
  -3.1899999999999998E-002     1.4431148109244328E-017
  -3.1850000000000003E-002     2.0209270245172960E-017
  -3.1800000000000002E-002     2.2257129061139433E-017
  -3.1750000000000000E-002     2.0750379047120057E-017
  -3.1699999999999999E-002     1.6779478628636671E-017
  -3.1649999999999998E-002     1.1705048979792667E-017
  -3.1600000000000003E-002     6.3722508452314165E-018
  -3.1550000000000002E-002     5.5163591066489786E-019
  -3.1500000000000000E-002    -7.0625472476121131E-018
  -3.1449999999999999E-002    -1.8156420603550181E-017
  -3.1399999999999997E-002    -3.3558100577382390E-017
  -3.1350000000000003E-002    -5.1908264368770495E-017
  -3.1300000000000001E-002    -6.8863513974866287E-017
  -3.1250000000000000E-002    -7.7404069091983201E-017
  -3.1199999999999999E-002    -6.9510133123600433E-017
  -3.1150000000000001E-002    -3.8974531025217443E-017
  -3.1100000000000003E-002     1.5411284304714641E-017
  -3.1050000000000001E-002     8.7423647729202607E-017
  -3.1000000000000000E-002     1.6286739661546323E-016
  -3.0949999999999998E-002     2.2165959297984682E-016
  -3.0900000000000000E-002     2.4248750337749927E-016
  -3.0850000000000002E-002     2.0906516050580994E-016
  -3.0800000000000001E-002     1.1624672832830941E-016
  -3.0750000000000000E-002    -2.6040212992661960E-017
  -3.0699999999999998E-002    -1.9271382055713403E-016
  -3.0650000000000000E-002    -3.4797623336540514E-016
  -3.0600000000000002E-002    -4.5354595186372923E-016
  -3.0550000000000001E-002    -4.7861508942640067E-016
  -3.0499999999999999E-002    -4.0864951899747832E-016
  -3.0449999999999998E-002    -2.5022225728070031E-016
  -3.0400000000000000E-002    -3.0117562171889717E-017
  -3.0350000000000002E-002     2.1129206192366084E-016
  -3.0300000000000001E-002     4.3046694523165007E-016
  -3.0249999999999999E-002     5.9157480762037306E-016
  -3.0200000000000001E-002     6.7415456003121117E-016
  -3.0150000000000000E-002     6.7491669004542008E-016
  -3.0100000000000002E-002     6.0314800353547264E-016
  -3.0050000000000000E-002     4.7173717997322928E-016
  -2.9999999999999999E-002     2.8788214413537597E-016
  -2.9950000000000001E-002     4.8206344371778869E-017
  -2.9899999999999999E-002    -2.5818716049843731E-016
  -2.9850000000000002E-002    -6.3809789081517094E-016
  -2.9800000000000000E-002    -1.0771909877931785E-015
  -2.9749999999999999E-002    -1.5240228767638935E-015
  -2.9700000000000001E-002    -1.8831300610829990E-015
  -2.9650000000000003E-002    -2.0239329070484710E-015
  -2.9600000000000001E-002    -1.8080664584178224E-015
  -2.9550000000000000E-002    -1.1316310175705143E-015
  -2.9499999999999998E-002     2.7492624298740224E-017
  -2.9450000000000000E-002     1.5715412907535738E-015
  -2.9400000000000003E-002     3.2688842059178349E-015
  -2.9350000000000001E-002     4.7749846328184644E-015
  -2.9300000000000000E-002     5.6908524071538168E-015
  -2.9249999999999998E-002     5.6509156890162154E-015
  -2.9200000000000000E-002     4.4222368949181955E-015
  -2.9150000000000002E-002     1.9906444609600365E-015
  -2.9100000000000001E-002    -1.3909688548913559E-015
  -2.9049999999999999E-002    -5.2104654638734187E-015
  -2.8999999999999998E-002    -8.7665378567267718E-015
  -2.8950000000000000E-002    -1.1292221865217360E-014
  -2.8900000000000002E-002    -1.2109091548398176E-014
  -2.8850000000000001E-002    -1.0780249226503494E-014
  -2.8799999999999999E-002    -7.2283872026472796E-015
  -2.8749999999999998E-002    -1.7914019769422682E-015
  -2.8700000000000000E-002     4.7993781994741759E-015
  -2.8650000000000002E-002     1.1517382298246063E-014
  -2.8600000000000000E-002     1.7199174038236198E-014
  -2.8549999999999999E-002     2.0735604302166683E-014
  -2.8500000000000001E-002     2.1263304366496437E-014
  -2.8450000000000000E-002     1.8325498606477610E-014
  -2.8400000000000002E-002     1.1977601874378614E-014
  -2.8350000000000000E-002     2.8221925030201403E-015
  -2.8299999999999999E-002    -8.0324078390911016E-015
  -2.8250000000000001E-002    -1.9087343709845037E-014
  -2.8200000000000003E-002    -2.8632548134611158E-014
  -2.8150000000000001E-002    -3.4974254291220744E-014
  -2.8100000000000000E-002    -3.6688462096822312E-014
  -2.8049999999999999E-002    -3.2871222567085426E-014
  -2.8000000000000001E-002    -2.3350439005681281E-014
  -2.7950000000000003E-002    -8.8203309270402721E-015
  -2.7900000000000001E-002     9.1379700928803367E-015
  -2.7850000000000000E-002     2.8175556702248719E-014
  -2.7799999999999998E-002     4.5440983596660272E-014
  -2.7750000000000000E-002     5.7971475632439883E-014
  -2.7700000000000002E-002     6.3161377692539074E-014
  -2.7650000000000001E-002     5.9235423405112468E-014
  -2.7600000000000000E-002     4.5642231663683880E-014
  -2.7549999999999998E-002     2.3287948893520045E-014
  -2.7500000000000000E-002    -5.4479912250602368E-015
  -2.7450000000000002E-002    -3.6936852148239817E-014
  -2.7400000000000001E-002    -6.6743415319956416E-014
  -2.7349999999999999E-002    -9.0226917542014341E-014
  -2.7299999999999998E-002    -1.0321133945491883E-013
  -2.7250000000000000E-002    -1.0262605728391741E-013
  -2.7200000000000002E-002    -8.7025349371520475E-014
  -2.7150000000000001E-002    -5.6917804083091681E-014
  -2.7099999999999999E-002    -1.4865135842476199E-014
  -2.7049999999999998E-002     3.4661741917307885E-014
  -2.7000000000000000E-002     8.5660009116194115E-014
  -2.6950000000000002E-002     1.3118227938111860E-013
  -2.6900000000000000E-002     1.6410030436370090E-013
  -2.6849999999999999E-002     1.7799925652691237E-013
  -2.6800000000000001E-002     1.6813666807110080E-013
  -2.6749999999999999E-002     1.3237068033455828E-013
  -2.6700000000000002E-002     7.1928509000977632E-014
  -2.6650000000000000E-002    -8.1413054398475122E-015
  -2.6599999999999999E-002    -9.8993309387582326E-014
  -2.6550000000000001E-002    -1.8861488544565569E-013
  -2.6500000000000003E-002    -2.6311390370457422E-013
  -2.6450000000000001E-002    -3.0860074228479277E-013
  -2.6400000000000000E-002    -3.1346309693205141E-013
  -2.6349999999999998E-002    -2.7070081223492811E-013
  -2.6300000000000000E-002    -1.7989786143963872E-013
  -2.6250000000000002E-002    -4.8391989064462884E-014
  -2.6200000000000001E-002     1.0872427972111701E-013
  -2.6150000000000000E-002     2.6997097386487512E-013
  -2.6099999999999998E-002     4.1018202645146452E-013
  -2.6050000000000000E-002     5.0424289812626803E-013
  -2.6000000000000002E-002     5.3132808235650202E-013
  -2.5950000000000001E-002     4.7893883791999885E-013
  -2.5899999999999999E-002     3.4599654004824555E-013
  -2.5849999999999998E-002     1.4433820692182403E-013
  -2.5800000000000000E-002    -1.0181751463080342E-013
  -2.5750000000000002E-002    -3.5854505262886152E-013
  -2.5700000000000001E-002    -5.8677224193309346E-013
  -2.5649999999999999E-002    -7.4812330609135423E-013
  -2.5599999999999998E-002    -8.1117292186258051E-013
  -2.5550000000000000E-002    -7.5710199327647779E-013
  -2.5500000000000002E-002    -5.8377310910538468E-013
  -2.5450000000000000E-002    -3.0743363320384298E-013
  -2.5399999999999999E-002     3.8406199864720440E-014
  -2.5349999999999998E-002     4.0693888331724475E-013
  -2.5300000000000000E-002     7.4441958810634089E-013
  -2.5250000000000002E-002     9.9804780000100299E-013
  -2.5200000000000000E-002     1.1241925952955029E-012
  -2.5149999999999999E-002     1.0956570613836223E-012
  -2.5100000000000001E-002     9.0676497480420155E-013
  -2.5049999999999999E-002     5.7534729798895815E-013
  -2.5000000000000001E-002     1.4118176853516581E-013
  -2.4950000000000000E-002    -3.3899753678536064E-013
  -2.4899999999999999E-002    -7.9923439473205941E-013
  -2.4850000000000001E-002    -1.1736800274256949E-012
  -2.4800000000000003E-002    -1.4061006437634080E-012
  -2.4750000000000001E-002    -1.4581185279709716E-012
  -2.4700000000000000E-002    -1.3149642868371219E-012
  -2.4649999999999998E-002    -9.8793580702969581E-013
  -2.4600000000000000E-002    -5.1329144134861850E-013
  -2.4550000000000002E-002     5.2162456334700645E-014
  -2.4500000000000001E-002     6.3808744101267265E-013
  -2.4450000000000000E-002     1.1692509853189390E-012
  -2.4399999999999998E-002     1.5747095516224857E-012
  -2.4350000000000000E-002     1.7965148507477575E-012
  -2.4299999999999999E-002     1.7970761208786655E-012
  -2.4250000000000001E-002     1.5645003517740211E-012
  -2.4199999999999999E-002     1.1153933203977301E-012
  -2.4150000000000001E-002     4.9474097086128958E-013
  -2.4100000000000000E-002    -2.2738036284601332E-013
  -2.4049999999999998E-002    -9.6233528657474540E-013
  -2.4000000000000000E-002    -1.6124885955604862E-012
  -2.3949999999999999E-002    -2.0831615300630565E-012
  -2.3900000000000001E-002    -2.2958449358553400E-012
  -2.3850000000000000E-002    -2.2010173200428216E-012
  -2.3800000000000002E-002    -1.7885515693093768E-012
  -2.3750000000000000E-002    -1.0936337668329199E-012
  -2.3699999999999999E-002    -1.9646994035019119E-013
  -2.3650000000000001E-002     7.8514178959208683E-013
  -2.3599999999999999E-002     1.7101363527705657E-012
  -2.3550000000000001E-002     2.4338506566367820E-012
  -2.3500000000000000E-002     2.8302804583575265E-012
  -2.3449999999999999E-002     2.8133726504966776E-012
  -2.3400000000000001E-002     2.3536271369917378E-012
  -2.3349999999999999E-002     1.4868274519298291E-012
  -2.3300000000000001E-002     3.1293130485311682E-013
  -2.3250000000000000E-002    -1.0152185464267429E-012
  -2.3199999999999998E-002    -2.3119441696797843E-012
  -2.3150000000000000E-002    -3.3846145962264956E-012
  -2.3099999999999999E-002    -4.0614527676143444E-012
  -2.3050000000000001E-002    -4.2170776357602900E-012
  -2.3000000000000000E-002    -3.7920273908565568E-012
  -2.2950000000000002E-002    -2.8035114135278976E-012
  -2.2900000000000000E-002    -1.3459946371726258E-012
  -2.2849999999999999E-002     4.1835221405515003E-013
  -2.2800000000000001E-002     2.2780209142665082E-012
  -2.2749999999999999E-002     3.9970410565377265E-012
  -2.2700000000000001E-002     5.3434057761623618E-012
  -2.2650000000000000E-002     6.1177827000485768E-012
  -2.2599999999999999E-002     6.1792131468111433E-012
  -2.2550000000000001E-002     5.4647673784766616E-012
  -2.2499999999999999E-002     4.0006166184388539E-012
  -2.2450000000000001E-002     1.9028157352712177E-012
  -2.2400000000000000E-002    -6.3279180114892843E-013
  -2.2349999999999998E-002    -3.3507126519870598E-012
  -2.2300000000000000E-002    -5.9636215178441757E-012
  -2.2249999999999999E-002    -8.1840638996671789E-012
  -2.2200000000000001E-002    -9.7552497700779449E-012
  -2.2150000000000000E-002    -1.0475898194616345E-011
  -2.2100000000000002E-002    -1.0214767741865868E-011
  -2.2050000000000000E-002    -8.9121267059506077E-012
  -2.1999999999999999E-002    -6.5677671420139371E-012
  -2.1950000000000001E-002    -3.2177549214997676E-012
  -2.1899999999999999E-002     1.0955760779289046E-012
  -2.1850000000000001E-002     6.3543918997285198E-012
  -2.1800000000000000E-002     1.2590685168136736E-011
  -2.1749999999999999E-002     1.9900978669945139E-011
  -2.1700000000000001E-002     2.8447431600639662E-011
  -2.1649999999999999E-002     3.8445112437370659E-011
  -2.1600000000000001E-002     5.0137886933001339E-011
  -2.1550000000000000E-002     6.3767510248330399E-011
  -2.1499999999999998E-002     7.9541362424525429E-011
  -2.1450000000000000E-002     9.7604149313191455E-011
  -2.1399999999999999E-002     1.1801753208914587E-010
  -2.1350000000000001E-002     1.4074986826583838E-010
  -2.1299999999999999E-002     1.6567639731156851E-010
  -2.1250000000000002E-002     1.9258854829520411E-010
  -2.1200000000000000E-002     2.2121057408957724E-010
  -2.1149999999999999E-002     2.5122112225034735E-010
  -2.1100000000000001E-002     2.8227800852181352E-010
  -2.1049999999999999E-002     3.1404457051606927E-010
  -2.1000000000000001E-002     3.4621621426811640E-010
  -2.0950000000000000E-002     3.7854519316233689E-010
  -2.0899999999999998E-002     4.1086180076872456E-010
  -2.0850000000000000E-002     4.4308878836909209E-010
  -2.0799999999999999E-002     4.7524637428595264E-010
  -2.0750000000000001E-002     5.0744551715868778E-010
  -2.0700000000000000E-002     5.3986919880548892E-010
  -2.0649999999999998E-002     5.7274300403541618E-010
  -2.0600000000000000E-002     6.0629914179152365E-010
  -2.0549999999999999E-002     6.4073957360867050E-010
  -2.0500000000000001E-002     6.7620479132851176E-010
  -2.0449999999999999E-002     7.1275445638388509E-010
  -2.0400000000000001E-002     7.5036322515564879E-010
  -2.0350000000000000E-002     7.8893327006207760E-010
  -2.0299999999999999E-002     8.2831967645795090E-010
  -2.0250000000000001E-002     8.6836408533755234E-010
  -2.0199999999999999E-002     9.0892870143259305E-010
  -2.0150000000000001E-002     9.4992510667542192E-010
  -2.0100000000000000E-002     9.9133165678398886E-010
  -2.0049999999999998E-002     1.0331976360508215E-009
  -2.0000000000000000E-002     1.0756360841664872E-009
  -1.9949999999999999E-002     1.1188072121943232E-009
  -1.9900000000000001E-002     1.1628982175126666E-009
  -1.9850000000000000E-002     1.2081038167057007E-009
  -1.9799999999999998E-002     1.2546096293931241E-009
  -1.9750000000000000E-002     1.3025822174934788E-009
  -1.9699999999999999E-002     1.3521622805283370E-009
  -1.9650000000000001E-002     1.4034609060613323E-009
  -1.9599999999999999E-002     1.4565574924948257E-009
  -1.9550000000000001E-002     1.5114969394527394E-009
  -1.9500000000000000E-002     1.5682865542507560E-009
  -1.9449999999999999E-002     1.6268938513588718E-009
  -1.9400000000000001E-002     1.6872480716620981E-009
  -1.9349999999999999E-002     1.7492464224908924E-009
  -1.9300000000000001E-002     1.8127660000175810E-009
  -1.9250000000000000E-002     1.8776812716760401E-009
  -1.9199999999999998E-002     1.9438842195487782E-009
  -1.9150000000000000E-002     2.0113037711217474E-009
  -1.9099999999999999E-002     2.0799231142434560E-009
  -1.9050000000000001E-002     2.1497886095242120E-009
  -1.9000000000000000E-002     2.2210117124046148E-009
  -1.8949999999999998E-002     2.2937621261899055E-009
  -1.8900000000000000E-002     2.3682553884913932E-009
  -1.8849999999999999E-002     2.4447347766016566E-009
  -1.8800000000000001E-002     2.5234506296716892E-009
  -1.8749999999999999E-002     2.6046404962999942E-009
  -1.8700000000000001E-002     2.6885098031717126E-009
  -1.8650000000000000E-002     2.7752163433852876E-009
  -1.8599999999999998E-002     2.8648594015894352E-009
  -1.8550000000000001E-002     2.9574760471444418E-009
  -1.8499999999999999E-002     3.0530455731272144E-009
  -1.8450000000000001E-002     3.1515003977782527E-009
  -1.8400000000000000E-002     3.2527469909841778E-009
  -1.8349999999999998E-002     3.3566919912838376E-009
  -1.8300000000000000E-002     3.4632695614714384E-009
  -1.8249999999999999E-002     3.5724649936502554E-009
  -1.8200000000000001E-002     3.6843312339103468E-009
  -1.8149999999999999E-002     3.7989900778135634E-009
  -1.8100000000000002E-002     3.9166205797709857E-009
  -1.8050000000000000E-002     4.0374370571594976E-009
  -1.7999999999999999E-002     4.1616561214814180E-009
  -1.7950000000000001E-002     4.2894734756988257E-009
  -1.7899999999999999E-002     4.4210422744953489E-009
  -1.7850000000000001E-002     4.5564691427780145E-009
  -1.7800000000000000E-002     4.6958272506889478E-009
  -1.7749999999999998E-002     4.8391770813803751E-009
  -1.7700000000000000E-002     4.9865918024666956E-009
  -1.7649999999999999E-002     5.1381781556282005E-009
  -1.7600000000000001E-002     5.2940857849260257E-009
  -1.7550000000000000E-002     5.4544967456320388E-009
  -1.7499999999999998E-002     5.6196051383751229E-009
  -1.7450000000000000E-002     5.7895886712240620E-009
  -1.7399999999999999E-002     5.9645806938488082E-009
  -1.7350000000000001E-002     6.1446598031668863E-009
  -1.7299999999999999E-002     6.3298548070258549E-009
  -1.7250000000000001E-002     6.5201707415066009E-009
  -1.7200000000000000E-002     6.7156253237575107E-009
  -1.7149999999999999E-002     6.9162904393434459E-009
  -1.7100000000000001E-002     7.1223172649476469E-009
  -1.7049999999999999E-002     7.3339405436322617E-009
  -1.7000000000000001E-002     7.5514564509404779E-009
  -1.6950000000000000E-002     7.7751790873731981E-009
  -1.6899999999999998E-002     8.0053864597892453E-009
  -1.6850000000000000E-002     8.2422789585382781E-009
  -1.6799999999999999E-002     8.4859536624885264E-009
  -1.6750000000000001E-002     8.7364149209052011E-009
  -1.6700000000000000E-002     8.9936099156344141E-009
  -1.6649999999999998E-002     9.2574844022834093E-009
  -1.6600000000000000E-002     9.5280458497286532E-009
  -1.6549999999999999E-002     9.8054114120315914E-009
  -1.6500000000000001E-002     1.0089824826105982E-008
  -1.6449999999999999E-002     1.0381640539441539E-008
  -1.6400000000000001E-002     1.0681279396637471E-008
  -1.6350000000000000E-002     1.0989167591683636E-008
  -1.6299999999999999E-002     1.1305682579220029E-008
  -1.6250000000000001E-002     1.1631119977654927E-008
  -1.6199999999999999E-002     1.1965694519702112E-008
  -1.6150000000000001E-002     1.2309574158557671E-008
  -1.6100000000000000E-002     1.2662928455114302E-008
  -1.6049999999999998E-002     1.3025986602027343E-008
  -1.6000000000000000E-002     1.3399063146613689E-008
  -1.5949999999999999E-002     1.3782552078078239E-008
  -1.5900000000000001E-002     1.4176886029372439E-008
  -1.5850000000000000E-002     1.4582456334195724E-008
  -1.5799999999999998E-002     1.4999543264481689E-008
  -1.5750000000000000E-002     1.5428251975161082E-008
  -1.5699999999999999E-002     1.5868507743941851E-008
  -1.5650000000000001E-002     1.6320105729966370E-008
  -1.5599999999999999E-002     1.6782801721654811E-008
  -1.5550000000000001E-002     1.7256445940837676E-008
  -1.5500000000000000E-002     1.7741103565009754E-008
  -1.5449999999999998E-002     1.8237144057508329E-008
  -1.5400000000000000E-002     1.8745259619275694E-008
  -1.5349999999999999E-002     1.9266409768084530E-008
  -1.5300000000000001E-002     1.9801692580717267E-008
  -1.5250000000000000E-002     2.0352178562529645E-008
  -1.5199999999999998E-002     2.0918747690098715E-008
  -1.5150000000000000E-002     2.1501959069308656E-008
  -1.5099999999999999E-002     2.2101995834871271E-008
  -1.5050000000000001E-002     2.2718698277299300E-008
  -1.4999999999999999E-002     2.3351676367968412E-008
  -1.4949999999999998E-002     2.4000466412542592E-008
  -1.4900000000000000E-002     2.4664713818442056E-008
  -1.4849999999999999E-002     2.5344315094968675E-008
  -1.4800000000000001E-002     2.6039509881444977E-008
  -1.4749999999999999E-002     2.6750898888883621E-008
  -1.4700000000000001E-002     2.7479383432297956E-008
  -1.4650000000000000E-002     2.8226045410180915E-008
  -1.4599999999999998E-002     2.8992015476863202E-008
  -1.4550000000000000E-002     2.9778338345043522E-008
  -1.4499999999999999E-002     3.0585866196626546E-008
  -1.4450000000000001E-002     3.1415209217760866E-008
  -1.4400000000000000E-002     3.2266746383356113E-008
  -1.4349999999999998E-002     3.3140645857221246E-008
  -1.4300000000000000E-002     3.4036972608155329E-008
  -1.4249999999999999E-002     3.4955761353195023E-008
  -1.4200000000000001E-002     3.5897115376128991E-008
  -1.4149999999999999E-002     3.6861256705547638E-008
  -1.4099999999999998E-002     3.7848590966158131E-008
  -1.4050000000000000E-002     3.8859697665413881E-008
  -1.3999999999999999E-002     3.9895304598727064E-008
  -1.3950000000000001E-002     4.0956256971033874E-008
  -1.3899999999999999E-002     4.2043442107361840E-008
  -1.3850000000000001E-002     4.3157717975953361E-008
  -1.3800000000000000E-002     4.4299856367527788E-008
  -1.3749999999999998E-002     4.5470484731838973E-008
  -1.3700000000000000E-002     4.6670105732873510E-008
  -1.3649999999999999E-002     4.7899122125309535E-008
  -1.3600000000000001E-002     4.9157912385888379E-008
  -1.3550000000000000E-002     5.0446930716552352E-008
  -1.3499999999999998E-002     5.1766768255392247E-008
  -1.3450000000000000E-002     5.3118229887242087E-008
  -1.3399999999999999E-002     5.4502308638131752E-008
  -1.3350000000000001E-002     5.5920137608307029E-008
  -1.3299999999999999E-002     5.7372883218230117E-008
  -1.3249999999999998E-002     5.8861624887655973E-008
  -1.3200000000000000E-002     6.0387217537148898E-008
  -1.3149999999999998E-002     6.1950240007483383E-008
  -1.3100000000000001E-002     6.3550972298559330E-008
  -1.3049999999999999E-002     6.5189493287173131E-008
  -1.3000000000000001E-002     6.6865833709111434E-008
  -1.2950000000000000E-002     6.8580155048686900E-008
  -1.2899999999999998E-002     7.0332930691951799E-008
  -1.2850000000000000E-002     7.2125091481715583E-008
  -1.2799999999999999E-002     7.3957995731118422E-008