  -4.0000000000000001E-002     0.0000000000000000     
  -3.9949999999999999E-002     0.0000000000000000     
  -3.9899999999999998E-002     0.0000000000000000     
  -3.9850000000000003E-002     0.0000000000000000     
  -3.9800000000000002E-002     0.0000000000000000     
  -3.9750000000000001E-002     0.0000000000000000     
  -3.9699999999999999E-002     0.0000000000000000     
  -3.9649999999999998E-002     0.0000000000000000     
  -3.9600000000000003E-002     0.0000000000000000     
  -3.9550000000000002E-002     0.0000000000000000     
  -3.9500000000000000E-002     0.0000000000000000     
  -3.9449999999999999E-002     0.0000000000000000     
  -3.9399999999999998E-002     0.0000000000000000     
  -3.9350000000000003E-002     0.0000000000000000     
  -3.9300000000000002E-002     0.0000000000000000     
  -3.9250000000000000E-002     0.0000000000000000     
  -3.9199999999999999E-002     0.0000000000000000     
  -3.9150000000000004E-002     0.0000000000000000     
  -3.9100000000000003E-002     0.0000000000000000     
  -3.9050000000000001E-002     0.0000000000000000     
  -3.9000000000000000E-002     0.0000000000000000     
  -3.8949999999999999E-002    -2.9969951679030657E-039
  -3.8900000000000004E-002    -6.3103873938992043E-039
  -3.8850000000000003E-002     9.7021725812755245E-039
  -3.8800000000000001E-002     1.5079466502232737E-037
  -3.8750000000000000E-002     6.1071245884552458E-037
  -3.8699999999999998E-002     1.7654710155535045E-036
  -3.8650000000000004E-002     3.4376182370364033E-036
  -3.8600000000000002E-002     3.0982098147051613E-036
  -3.8550000000000001E-002    -6.9588662985661536E-036
  -3.8500000000000000E-002    -4.2020705267567161E-035
  -3.8449999999999998E-002    -1.2599329820123583E-034
  -3.8400000000000004E-002    -2.9499249509254946E-034
  -3.8350000000000002E-002    -6.0141428965975220E-034
  -3.8300000000000001E-002    -1.0441791039517524E-033
  -3.8249999999999999E-002    -1.1516410961047289E-033
  -3.8199999999999998E-002     1.2440509313278791E-033
  -3.8150000000000003E-002     1.1984042943321576E-032
  -3.8100000000000002E-002     4.0768272379339002E-032
  -3.8050000000000000E-002     9.2154526919009817E-032
  -3.7999999999999999E-002     1.3677463030165083E-031
  -3.7949999999999998E-002     6.2412984998056752E-032
  -3.7900000000000003E-002    -3.5646009374242097E-031
  -3.7850000000000002E-002    -1.3668558926548519E-030
  -3.7800000000000000E-002    -2.8827598279477212E-030
  -3.7749999999999999E-002    -3.8424626637211346E-030
  -3.7699999999999997E-002    -1.6409453732044658E-030
  -3.7650000000000003E-002     7.4059899986397793E-030
  -3.7600000000000001E-002     2.5299945348301098E-029
  -3.7550000000000000E-002     4.6906682899906030E-029
  -3.7499999999999999E-002     5.4174707309745845E-029
  -3.7449999999999997E-002     1.6329134396989250E-029
  -3.7400000000000003E-002    -9.5681397099969625E-029
  -3.7350000000000001E-002    -2.7709922480249795E-028
  -3.7300000000000000E-002    -4.5095116297925099E-028
  -3.7249999999999998E-002    -4.5442582051473835E-028
  -3.7200000000000004E-002    -9.0448625840443534E-029
  -3.7150000000000002E-002     7.3688796575809162E-028
  -3.7100000000000001E-002     1.8455756621380078E-027
  -3.7050000000000000E-002     2.6765119023269381E-027
  -3.6999999999999998E-002     2.4212231080593376E-027
  -3.6950000000000004E-002     4.4352291827032320E-028
  -3.6900000000000002E-002    -3.1427830803857950E-027
  -3.6850000000000001E-002    -7.1048218663420527E-027
  -3.6799999999999999E-002    -9.3498877396356170E-027
  -3.6749999999999998E-002    -7.9537910830574460E-027
  -3.6700000000000003E-002    -2.5340415254214184E-027
  -3.6650000000000002E-002     4.9626989401113622E-027
  -3.6600000000000001E-002     1.0946855936616504E-026
  -3.6549999999999999E-002     1.2396442341582625E-026
  -3.6499999999999998E-002     9.3829036027590532E-027
  -3.6450000000000003E-002     5.9798133465169768E-027
  -3.6400000000000002E-002     8.3297527048485878E-027
  -3.6350000000000000E-002     2.0671334820666195E-026
  -3.6299999999999999E-002     4.1951609714840000E-026
  -3.6249999999999998E-002     6.5239049520173293E-026
  -3.6200000000000003E-002     7.9008653851618152E-026
  -3.6150000000000002E-002     6.6137835028550962E-026
  -3.6100000000000000E-002    -2.0466600412530510E-027
  -3.6049999999999999E-002    -1.7038657848365832E-025
  -3.6000000000000004E-002    -4.8518062589909660E-025
  -3.5950000000000003E-002    -9.4077256225965655E-025
  -3.5900000000000001E-002    -1.3909476313697038E-024
  -3.5850000000000000E-002    -1.4757321969938811E-024
  -3.5799999999999998E-002    -6.5936520687168365E-025
  -3.5750000000000004E-002     1.5290723302929235E-024
  -3.5700000000000003E-002     5.0546343846639757E-024
  -3.5650000000000001E-002     8.9104519735181959E-024
  -3.5600000000000000E-002     1.0967371402234469E-023
  -3.5549999999999998E-002     8.4965189032699712E-024
  -3.5500000000000004E-002    -5.2306031721272220E-025
  -3.5450000000000002E-002    -1.5682706931968258E-023
  -3.5400000000000001E-002    -3.2882160099826495E-023
  -3.5349999999999999E-002    -4.4572570367046859E-023
  -3.5299999999999998E-002    -4.2103128221569030E-023
  -3.5250000000000004E-002    -1.9723152150539328E-023
  -3.5200000000000002E-002     2.1404453422211151E-023
  -3.5150000000000001E-002     7.1423293189631549E-023
  -3.5099999999999999E-002     1.1385757565799096E-022
  -3.5049999999999998E-002     1.3129614910342406E-022
  -3.5000000000000003E-002     1.1219084690108933E-022
  -3.4950000000000002E-002     5.5084736674083885E-023
  -3.4900000000000000E-002    -3.2318310951629931E-023
  -3.4849999999999999E-002    -1.3844940961607055E-022
  -3.4799999999999998E-002    -2.5281754402177859E-022
  -3.4750000000000003E-002    -3.6436259528043740E-022
  -3.4700000000000002E-002    -4.5035443685925183E-022
  -3.4650000000000000E-002    -4.6115645080911560E-022
  -3.4599999999999999E-002    -3.1526794446584364E-022
  -3.4549999999999997E-002     7.7730277458169824E-023
  -3.4500000000000003E-002     7.5768592129457768E-022
  -3.4450000000000001E-002     1.6314123168429481E-021
  -3.4400000000000000E-002     2.4085291875536801E-021
  -3.4349999999999999E-002     2.6141951040297400E-021
  -3.4299999999999997E-002     1.7264999430827236E-021
  -3.4250000000000003E-002    -5.6172873258320609E-022
  -3.4200000000000001E-002    -4.0326190871666807E-021
  -3.4150000000000000E-002    -7.7324956160790470E-021
  -3.4099999999999998E-002    -1.0033176020227736E-020
  -3.4049999999999997E-002    -9.0776492281663275E-021
  -3.4000000000000002E-002    -3.5721829979650834E-021
  -3.3950000000000001E-002     6.3113936045879134E-021
  -3.3900000000000000E-002     1.8320606946198873E-020
  -3.3849999999999998E-002     2.8216953553133663E-020
  -3.3799999999999997E-002     3.0827113410123744E-020
  -3.3750000000000002E-002     2.1936626582960496E-020
  -3.3700000000000001E-002     4.7838195891406757E-022
  -3.3649999999999999E-002    -2.9852241473565791E-020
  -3.3599999999999998E-002    -6.0445311689491773E-020
  -3.3550000000000003E-002    -7.9604118922550083E-020
  -3.3500000000000002E-002    -7.6166555353963502E-020
  -3.3450000000000001E-002    -4.3935091012660143E-020
  -3.3399999999999999E-002     1.4632890042439851E-020
  -3.3349999999999998E-002     8.7057922062591797E-020
  -3.3300000000000003E-002     1.5277341973083537E-019
  -3.3250000000000002E-002     1.8825340267617411E-019
  -3.3200000000000000E-002     1.7404074191688516E-019
  -3.3149999999999999E-002     1.0158291583575857E-019
  -3.3099999999999997E-002    -2.2287260747140463E-020
  -3.3050000000000003E-002    -1.7468281424317820E-019
  -3.3000000000000002E-002    -3.2008703252180340E-019
  -3.2950000000000000E-002    -4.1702911669504756E-019
  -3.2899999999999999E-002    -4.2657230057957529E-019
  -3.2850000000000004E-002    -3.2125902012452151E-019
  -3.2800000000000003E-002    -9.3628225066176491E-020
  -3.2750000000000001E-002     2.3632151601047090E-019
  -3.2700000000000000E-002     6.1585049485789496E-019
  -3.2649999999999998E-002     9.5880684986833001E-019
  -3.2600000000000004E-002     1.1533793542115713E-018
  -3.2550000000000003E-002     1.0822114805993474E-018
  -3.2500000000000001E-002     6.5632705184360362E-019
  -3.2450000000000000E-002    -1.4126655473074393E-019
  -3.2399999999999998E-002    -1.2139668874113285E-018
  -3.2350000000000004E-002    -2.3301505413947407E-018
  -3.2300000000000002E-002    -3.1416916687251329E-018
  -3.2250000000000001E-002    -3.2553498813296559E-018
  -3.2199999999999999E-002    -2.3539205280930111E-018
  -3.2149999999999998E-002    -3.4191151104434181E-019
  -3.2100000000000004E-002     2.5304305147512195E-018
  -3.2050000000000002E-002     5.6211874193657850E-018
  -3.2000000000000001E-002     7.9765467936687441E-018
  -3.1949999999999999E-002     8.5528128467375344E-018
  -3.1899999999999998E-002     6.5487177320975458E-018
  -3.1850000000000003E-002     1.7639474426566726E-018
  -3.1800000000000002E-002    -5.1368461620768881E-018
  -3.1750000000000000E-002    -1.2577921646727838E-017
  -3.1699999999999999E-002    -1.8325281186299370E-017
  -3.1649999999999998E-002    -2.0036205459743618E-017
  -3.1600000000000003E-002    -1.5998597667672750E-017
  -3.1550000000000002E-002    -5.8599646289717885E-018
  -3.1500000000000000E-002     8.9002127130574444E-018
  -3.1449999999999999E-002     2.4972851278517467E-017
  -3.1399999999999997E-002     3.7806264263850188E-017
  -3.1350000000000003E-002     4.2719979061614391E-017
  -3.1300000000000001E-002     3.6305669387268102E-017
  -3.1250000000000000E-002     1.7737314926158042E-017
  -3.1199999999999999E-002    -1.0428782910842039E-017
  -3.1150000000000001E-002    -4.2300126094045934E-017
  -3.1100000000000003E-002    -6.9675767793060671E-017
  -3.1050000000000001E-002    -8.3921311256204146E-017
  -3.1000000000000000E-002    -7.8292228529638144E-017
  -3.0949999999999998E-002    -5.0126740036093230E-017
  -3.0900000000000000E-002    -2.2947626319910374E-018
  -3.0850000000000002E-002     5.6580291196723092E-017
  -3.0800000000000001E-002     1.1334330149405269E-016
  -3.0750000000000000E-002     1.5285153643408831E-016
  -3.0699999999999998E-002     1.6139530172579108E-016
  -3.0650000000000000E-002     1.3031343993166070E-016
  -3.0600000000000002E-002     5.9020388453871526E-017
  -3.0550000000000001E-002    -4.3296595709892335E-017
  -3.0499999999999999E-002    -1.5788250972601113E-016
  -3.0449999999999998E-002    -2.5882377685471202E-016
  -3.0400000000000000E-002    -3.1761126537434508E-016
  -3.0350000000000002E-002    -3.0938417111754922E-016
  -3.0300000000000001E-002    -2.1990869192495264E-016
  -3.0249999999999999E-002    -5.1879893950898404E-017
  -3.0200000000000001E-002     1.7119936912490705E-016
  -3.0150000000000000E-002     4.0533670820540119E-016
  -3.0100000000000002E-002     5.9187555209103013E-016
  -3.0050000000000000E-002     6.6906403288409197E-016
  -2.9999999999999999E-002     5.8800275026738163E-016
  -2.9950000000000001E-002     3.2978330814848252E-016
  -2.9899999999999999E-002    -8.0856250771717559E-017
  -2.9850000000000002E-002    -5.7052364134235509E-016
  -2.9800000000000000E-002    -1.0249360754259150E-015
  -2.9749999999999999E-002    -1.3108160558977760E-015
  -2.9700000000000001E-002    -1.3092169283283124E-015
  -2.9650000000000003E-002    -9.5319783141865766E-016
  -2.9600000000000001E-002    -2.5950116879392492E-016
  -2.9550000000000000E-002     6.5685335232683478E-016
  -2.9499999999999998E-002     1.5934738951394260E-015
  -2.9450000000000000E-002     2.2993994746060874E-015
  -2.9400000000000003E-002     2.5360970137652505E-015
  -2.9350000000000001E-002     2.1469902274587380E-015
  -2.9300000000000000E-002     1.1166707829035058E-015
  -2.9249999999999998E-002    -3.9932158861733831E-016
  -2.9200000000000000E-002    -2.0876696918150273E-015
  -2.9150000000000002E-002    -3.5363756844279434E-015
  -2.9100000000000001E-002    -4.3298445993877699E-015
  -2.9049999999999999E-002    -4.1584356753893563E-015
  -2.8999999999999998E-002    -2.9143528832804205E-015
  -2.8950000000000000E-002    -7.4656569043898355E-016
  -2.8900000000000002E-002     1.9440048811844352E-015
  -2.8850000000000001E-002     4.5734558963384571E-015
  -2.8799999999999999E-002     6.4962084299842103E-015
  -2.8749999999999998E-002     7.1530051593471276E-015
  -2.8700000000000000E-002     6.2122807801443575E-015
  -2.8650000000000002E-002     3.6719393110947729E-015
  -2.8600000000000000E-002    -1.0355823707133887E-016
  -2.8549999999999999E-002    -4.4227353486267381E-015
  -2.8500000000000001E-002    -8.3801260697573739E-015
  -2.8450000000000000E-002    -1.1025685682401039E-014
  -2.8400000000000002E-002    -1.1562798824760631E-014
  -2.8350000000000000E-002    -9.5404570882492788E-015
  -2.8299999999999999E-002    -5.0026935512656234E-015
  -2.8250000000000001E-002     1.4397928503050832E-015
  -2.8200000000000003E-002     8.6440010432535659E-015
  -2.8150000000000001E-002     1.5089878119076791E-014
  -2.8100000000000000E-002     1.9150784731662087E-014
  -2.8049999999999999E-002     1.9446572478991110E-014
  -2.8000000000000001E-002     1.5217607642549540E-014
  -2.7950000000000003E-002     6.6344426257687987E-015
  -2.7900000000000001E-002    -5.0507068793268620E-015
  -2.7850000000000000E-002    -1.7589131772081880E-014
  -2.7799999999999998E-002    -2.8092995303371526E-014
  -2.7750000000000000E-002    -3.3634477900373121E-014
  -2.7700000000000002E-002    -3.1980892294228757E-014
  -2.7650000000000001E-002    -2.2296578430270071E-014
  -2.7600000000000000E-002    -5.6138469261592075E-015
  -2.7549999999999998E-002     1.5101198403840041E-014
  -2.7500000000000000E-002     3.5381964988745987E-014
  -2.7450000000000002E-002     5.0164396965289080E-014
  -2.7400000000000001E-002     5.4992980828457981E-014
  -2.7349999999999999E-002     4.7250834801465983E-014
  -2.7299999999999998E-002     2.7086021551130936E-014
  -2.7250000000000000E-002    -2.2557980214899220E-015
  -2.7200000000000002E-002    -3.4856540877001591E-014
  -2.7150000000000001E-002    -6.3285987505054094E-014
  -2.7099999999999999E-002    -8.0273493967871434E-014
  -2.7049999999999998E-002    -8.0509371707537697E-014
  -2.7000000000000000E-002    -6.2127079430114845E-014
  -2.6950000000000002E-002    -2.7466936288749501E-014
  -2.6900000000000000E-002     1.7118722546542497E-014
  -2.6849999999999999E-002     6.2430152034521377E-014
  -2.6800000000000001E-002     9.8325483620055887E-014
  -2.6749999999999999E-002     1.1595155266606977E-013
  -2.6700000000000002E-002     1.0980008240924662E-013
  -2.6650000000000000E-002     7.9124996282751229E-014
  -2.6599999999999999E-002     2.8398823279482944E-014
  -2.6550000000000001E-002    -3.3304940608775309E-014
  -2.6500000000000003E-002    -9.3896441699163595E-014
  -2.6450000000000001E-002    -1.4052944909889324E-013
  -2.6400000000000000E-002    -1.6212844131732598E-013
  -2.6349999999999998E-002    -1.5173424758929482E-013
  -2.6300000000000000E-002    -1.0824608659118471E-013
  -2.6250000000000002E-002    -3.7216638837996038E-014
  -2.6200000000000001E-002     4.9528121578564720E-014
  -2.6150000000000000E-002     1.3551845681978197E-013
  -2.6099999999999998E-002     2.0240509594892247E-013
  -2.6050000000000000E-002     2.3351968852738722E-013
  -2.6000000000000002E-002     2.1766139601668541E-013
  -2.5950000000000001E-002     1.5235109970668489E-013
  -2.5899999999999999E-002     4.5721490033460075E-014
  -2.5849999999999998E-002    -8.3675471038036214E-014
  -2.5800000000000000E-002    -2.0952300787812916E-013
  -2.5750000000000002E-002    -3.0269918090733280E-013
  -2.5700000000000001E-002    -3.3774704955552387E-013
  -2.5649999999999999E-002    -2.9949546419480330E-013
  -2.5599999999999998E-002    -1.8816141189097584E-013
  -2.5550000000000000E-002    -2.1369077827817908E-014
  -2.5500000000000002E-002     1.6790976107710839E-013
  -2.5450000000000000E-002     3.3754151513492796E-013
  -2.5399999999999999E-002     4.4547733445966001E-013
  -2.5349999999999998E-002     4.6003157386180726E-013
  -2.5300000000000000E-002     3.6864681216396255E-013
  -2.5250000000000002E-002     1.8273738989531310E-013
  -2.5200000000000000E-002    -6.2973956518227798E-014
  -2.5149999999999999E-002    -3.1688800618707988E-013
  -2.5100000000000001E-002    -5.2149992812476696E-013
  -2.5049999999999999E-002    -6.2643808151356427E-013
  -2.5000000000000001E-002    -6.0046787088214562E-013
  -2.4950000000000000E-002    -4.3952831502378872E-013
  -2.4899999999999999E-002    -1.6880386788590308E-013
  -2.4850000000000001E-002     1.6171851037319080E-013
  -2.4800000000000003E-002     4.8719774775633489E-013
  -2.4750000000000001E-002     7.4112544213559233E-013
  -2.4700000000000000E-002     8.6883656905661017E-013
  -2.4649999999999998E-002     8.3851036573941986E-013
  -2.4600000000000000E-002     6.4753990720776249E-013
  -2.4550000000000002E-002     3.2324235250756883E-013
  -2.4500000000000001E-002    -8.1952934991019584E-014
  -2.4450000000000000E-002    -4.9973464901373433E-013
  -2.4399999999999998E-002    -8.5783077925169606E-013
  -2.4350000000000000E-002    -1.0926265713411528E-012
  -2.4299999999999999E-002    -1.1604984908867461E-012
  -2.4250000000000001E-002    -1.0460825224691954E-012
  -2.4199999999999999E-002    -7.6601678435255895E-013
  -2.4150000000000001E-002    -3.6718659423801801E-013
  -2.4100000000000000E-002     8.0805949704344748E-014
  -2.4049999999999998E-002     4.9826375970915289E-013
  -2.4000000000000000E-002     8.1128388473527964E-013
  -2.3949999999999999E-002     9.6798191759140610E-013
  -2.3900000000000001E-002     9.5139743572182088E-013
  -2.3850000000000000E-002     7.8545344418727584E-013
  -2.3800000000000002E-002     5.3136786858311487E-013
  -2.3750000000000000E-002     2.7391104063575303E-013
  -2.3699999999999999E-002     9.9516588563008688E-014
  -2.3650000000000001E-002     7.0821327515295747E-014
  -2.3599999999999999E-002     2.0396217910966301E-013
  -2.3550000000000001E-002     4.5522676146950786E-013
  -2.3500000000000000E-002     7.2210204327439345E-013
  -2.3449999999999999E-002     8.6061927546807478E-013
  -2.3400000000000001E-002     7.1682172270316739E-013
  -2.3349999999999999E-002     1.6627251480479185E-013
  -2.3300000000000001E-002    -8.4711632462877446E-013
  -2.3250000000000000E-002    -2.2821994629618206E-012
  -2.3199999999999998E-002    -3.9890777704967000E-012
  -2.3150000000000000E-002    -5.7185255478272681E-012
  -2.3099999999999999E-002    -7.1510887892107409E-012
  -2.3050000000000001E-002    -7.9399578416543910E-012
  -2.3000000000000000E-002    -7.7585582332009043E-012
  -2.2950000000000002E-002    -6.3429148591384782E-012
  -2.2900000000000000E-002    -3.5204106083582835E-012
  -2.2849999999999999E-002     7.7997942803421455E-013
  -2.2800000000000001E-002     6.5364117500822647E-012
  -2.2749999999999999E-002     1.3658072820970596E-011
  -2.2700000000000001E-002     2.2017473156986202E-011
  -2.2650000000000000E-002     3.1483246063999756E-011
  -2.2599999999999999E-002     4.1946283921553831E-011
  -2.2550000000000001E-002     5.3334300456929309E-011
  -2.2499999999999999E-002     6.5612998400543941E-011
  -2.2450000000000001E-002     7.8774982311571947E-011
  -2.2400000000000000E-002     9.2819880929182016E-011
  -2.2349999999999998E-002     1.0773081168268455E-010
  -2.2300000000000000E-002     1.2345258941905855E-010
  -2.2249999999999999E-002     1.3987658608565162E-010
  -2.2200000000000001E-002     1.5683626054318501E-010
  -2.2150000000000000E-002     1.7411505902036512E-010
  -2.2100000000000002E-002     1.9146720109055789E-010
  -2.2050000000000000E-002     2.0864857299624777E-010
  -2.1999999999999999E-002     2.2545352806259720E-010
  -2.1950000000000001E-002     2.4175070058440800E-010
  -2.1899999999999999E-002     2.5751067943952020E-010
  -2.1850000000000001E-002     2.7281810913660806E-010
  -2.1800000000000000E-002     2.8786391375756143E-010
  -2.1749999999999999E-002     3.0291593355172375E-010
  -2.1700000000000001E-002     3.1827160369845922E-010
  -2.1649999999999999E-002     3.3420081244104776E-010
  -2.1600000000000001E-002     3.5089064440110934E-010
  -2.1550000000000000E-002     3.6840409265740551E-010
  -2.1499999999999998E-002     3.8666351653023939E-010
  -2.1450000000000000E-002     4.0546432917038936E-010
  -2.1399999999999999E-002     4.2451819710286302E-010
  -2.1350000000000001E-002     4.4351788616735318E-010
  -2.1299999999999999E-002     4.6220994831234391E-010
  -2.1250000000000002E-002     4.8045906822571724E-010
  -2.1200000000000000E-002     4.9828896320538656E-010
  -2.1149999999999999E-002     5.1588961903676216E-010
  -2.1100000000000001E-002     5.3358767458653511E-010
  -2.1049999999999999E-002     5.5178557172776185E-010
  -2.1000000000000001E-002     5.7088240428948810E-010
  -2.0950000000000000E-002     5.9119401964654347E-010
  -2.0899999999999998E-002     6.1288878127932072E-010
  -2.0850000000000000E-002     6.3595459412609936E-010
  -2.0799999999999999E-002     6.6020416648020796E-010
  -2.0750000000000001E-002     6.8531799842543591E-010
  -2.0700000000000000E-002     7.1091643125114178E-010
  -2.0649999999999998E-002     7.3664383391624107E-010
  -2.0600000000000000E-002     7.6224738665665434E-010
  -2.0549999999999999E-002     7.8763410311015584E-010
  -2.0500000000000001E-002     8.1289258295738285E-010
  -2.0449999999999999E-002     8.3827626441293827E-010
  -2.0400000000000001E-002     8.6415156309152434E-010
  -2.0350000000000000E-002     8.9092283955170150E-010
  -2.0299999999999999E-002     9.1895208442805641E-010
  -2.0250000000000001E-002     9.4848919034015880E-010
  -2.0199999999999999E-002     9.7962925365886100E-010
  -2.0150000000000001E-002     1.0123052853466815E-009
  -2.0100000000000000E-002     1.0463170771012990E-009
  -2.0049999999999998E-002     1.0813868872356940E-009
  -2.0000000000000000E-002     1.1172305081923790E-009
  -1.9949999999999999E-002     1.1536254614663616E-009
  -1.9900000000000001E-002     1.1904637036336634E-009
  -1.9850000000000000E-002     1.2277759424320948E-009
  -1.9799999999999998E-002     1.2657258320866993E-009
  -1.9750000000000000E-002     1.3045756516394152E-009
  -1.9699999999999999E-002     1.3446313682741528E-009
  -1.9650000000000001E-002     1.3861786081988172E-009
  -1.9599999999999999E-002     1.4294234936439203E-009
  -1.9550000000000001E-002     1.4744486572536944E-009
  -1.9500000000000000E-002     1.5211949914653251E-009
  -1.9449999999999999E-002     1.5694723954378755E-009
  -1.9400000000000001E-002     1.6190002949913060E-009
  -1.9349999999999999E-002     1.6694713884248999E-009
  -1.9300000000000001E-002     1.7206277503879855E-009
  -1.9250000000000000E-002     1.7723344110298562E-009
  -1.9199999999999998E-002     1.8246347936038226E-009
  -1.9150000000000000E-002     1.8777739122128513E-009
  -1.9099999999999999E-002     1.9321793010869447E-009
  -1.9050000000000001E-002     1.9883995376091985E-009
  -1.9000000000000000E-002     2.0470101160528890E-009
  -1.8949999999999998E-002     2.1085044693745263E-009
  -1.8900000000000000E-002     2.1731933392131829E-009
  -1.8849999999999999E-002     2.2411389193613034E-009
  -1.8800000000000001E-002     2.3121356029607157E-009
  -1.8749999999999999E-002     2.3857497355166278E-009
  -1.8700000000000001E-002     2.4614093957583207E-009
  -1.8650000000000000E-002     2.5385237484418192E-009
  -1.8599999999999998E-002     2.6166110289058700E-009
  -1.8550000000000001E-002     2.6954042223000656E-009
  -1.8499999999999999E-002     2.7749142955144750E-009
  -1.8450000000000001E-002     2.8554351067702213E-009
  -1.8400000000000000E-002     2.9374903620481372E-009
  -1.8349999999999998E-002     3.0217366821966257E-009
  -1.8300000000000000E-002     3.1088389300314239E-009
  -1.8249999999999999E-002     3.1993489836007653E-009
  -1.8200000000000001E-002     3.2936118270830016E-009
  -1.8149999999999999E-002     3.3917175371386385E-009
  -1.8100000000000002E-002     3.4935114650394922E-009
  -1.8050000000000000E-002     3.5986552682257947E-009
  -1.7999999999999999E-002     3.7067314625531864E-009
  -1.7950000000000001E-002     3.8173581431866998E-009
  -1.7899999999999999E-002     3.9302913129638108E-009
  -1.7850000000000001E-002     4.0454934089655452E-009
  -1.7800000000000000E-002     4.1631488958292727E-009
  -1.7749999999999998E-002     4.2836241315541294E-009
  -1.7700000000000000E-002     4.4073884199374970E-009
  -1.7649999999999999E-002     4.5349089628736936E-009
  -1.7600000000000001E-002     4.6665552901494885E-009
  -1.7550000000000000E-002     4.8025271660906538E-009
  -1.7499999999999998E-002     4.9428405124536347E-009
  -1.7450000000000000E-002     5.0873500200988314E-009
  -1.7399999999999999E-002     5.2358147848368250E-009
  -1.7350000000000001E-002     5.3879797790230489E-009
  -1.7299999999999999E-002     5.5436607941467452E-009
  -1.7250000000000001E-002     5.7028088319588278E-009
  -1.7200000000000000E-002     5.8655478667933877E-009
  -1.7149999999999999E-002     6.0321746500440566E-009
  -1.7100000000000001E-002     6.2031287849390700E-009
  -1.7049999999999999E-002     6.3789309862416090E-009
  -1.7000000000000001E-002     6.5601078578446825E-009
  -1.6950000000000000E-002     6.7471153345145175E-009
  -1.6899999999999998E-002     6.9402690946966500E-009
  -1.6850000000000000E-002     7.1396913890898854E-009
  -1.6799999999999999E-002     7.3452900169714834E-009
  -1.6750000000000001E-002     7.5567791764120136E-009
  -1.6700000000000000E-002     7.7737420002641331E-009
  -1.6649999999999998E-002     7.9957253665169855E-009
  -1.6600000000000000E-002     8.2223591829277874E-009
  -1.6549999999999999E-002     8.4534529297452164E-009
  -1.6500000000000001E-002     8.6890806369897321E-009
  -1.6449999999999999E-002     8.9296011465662167E-009
  -1.6400000000000001E-002     9.1756292156698480E-009
  -1.6350000000000000E-002     9.4279550237113827E-009
  -1.6299999999999999E-002     9.6874147380002249E-009
  -1.6250000000000001E-002     9.9547643940794943E-009
  -1.6199999999999999E-002     1.0230567648887494E-008
  -1.6150000000000001E-002     1.0515120243069746E-008
  -1.6100000000000000E-002     1.0808436771124879E-008
  -1.6049999999999998E-002     1.1110284637357766E-008
  -1.6000000000000000E-002     1.1420274627100399E-008
  -1.5949999999999999E-002     1.1737982600269032E-008
  -1.5900000000000001E-002     1.2063072338016601E-008
  -1.5850000000000000E-002     1.2395400555779968E-008
  -1.5799999999999998E-002     1.2735076258347787E-008
  -1.5750000000000000E-002     1.3082468635225021E-008
  -1.5699999999999999E-002     1.3438154573551599E-008
  -1.5650000000000001E-002     1.3802817588053172E-008
  -1.5599999999999999E-002     1.4177129475092932E-008
  -1.5550000000000001E-002     1.4561646955390876E-008
  -1.5500000000000000E-002     1.4956731356254239E-008
  -1.5449999999999998E-002     1.5362528345614309E-008
  -1.5400000000000000E-002     1.5779005299802981E-008
  -1.5349999999999999E-002     1.6206031206414411E-008
  -1.5300000000000001E-002     1.6643506426540151E-008
  -1.5250000000000000E-002     1.7091447171714745E-008
  -1.5199999999999998E-002     1.7550053007490050E-008
  -1.5150000000000000E-002     1.8019698668794016E-008
  -1.5099999999999999E-002     1.8500885642649497E-008
  -1.5050000000000001E-002     1.8994164401003890E-008
  -1.4999999999999999E-002     1.9500043435865439E-008
  -1.4949999999999998E-002     2.0018923050169173E-008
  -1.4900000000000000E-002     2.0551048665156814E-008
  -1.4849999999999999E-002     2.1096514004347176E-008
  -1.4800000000000001E-002     2.1655312226288595E-008
  -1.4749999999999999E-002     2.2227394443145527E-008
  -1.4700000000000001E-002     2.2812737686711348E-008
  -1.4650000000000000E-002     2.3411421272655276E-008
  -1.4599999999999998E-002     2.4023655880644164E-008
  -1.4550000000000000E-002     2.4649810761221586E-008
  -1.4499999999999999E-002     2.5290400642788216E-008
  -1.4450000000000001E-002     2.5946077309363962E-008
  -1.4400000000000000E-002     2.6617600251692213E-008
  -1.4349999999999998E-002     2.7305791464498114E-008
  -1.4300000000000000E-002     2.8011475789326777E-008
  -1.4249999999999999E-002     2.8735403592026762E-008
  -1.4200000000000001E-002     2.9478172406621154E-008
  -1.4149999999999999E-002     3.0240186222739262E-008
  -1.4099999999999998E-002     3.1021653542847094E-008
  -1.4050000000000000E-002     3.1822598862834099E-008
  -1.3999999999999999E-002     3.2642931421077308E-008
  -1.3950000000000001E-002     3.3482488625445825E-008
  -1.3899999999999999E-002     3.4341158909494514E-008
  -1.3850000000000001E-002     3.5218963879033287E-008
  -1.3800000000000000E-002     3.6116139779069980E-008
  -1.3749999999999998E-002     3.7033176130467202E-008
  -1.3700000000000000E-002     3.7970801436394600E-008
  -1.3649999999999999E-002     3.8929885421210504E-008
  -1.3600000000000001E-002     3.9911362898345987E-008
  -1.3550000000000000E-002     4.0916129633432942E-008
  -1.3499999999999998E-002     4.1944934329474900E-008
  -1.3450000000000000E-002     4.2998298568305633E-008
  -1.3399999999999999E-002     4.4076511928873540E-008
  -1.3350000000000001E-002     4.5179661421124240E-008
  -1.3299999999999999E-002     4.6307717835145369E-008
  -1.3249999999999998E-002     4.7460684328851750E-008
  -1.3200000000000000E-002     4.8638680478368839E-008
  -1.3149999999999998E-002     4.9842039610295854E-008
  -1.3100000000000001E-002     5.1071306927070116E-008
  -1.3049999999999999E-002     5.2327231708743920E-008
  -1.3000000000000001E-002     5.3610660191106489E-008
  -1.2950000000000000E-002     5.4922491549900885E-008
  -1.2899999999999998E-002     5.6263598690427439E-008
  -1.2850000000000000E-002     5.7634758248533147E-008
  -1.2799999999999999E-002     5.9036696843110930E-008