  -4.0000000000000001E-002     0.0000000000000000     
  -3.9949999999999999E-002     0.0000000000000000     
  -3.9899999999999998E-002     0.0000000000000000     
  -3.9850000000000003E-002     0.0000000000000000     
  -3.9800000000000002E-002     0.0000000000000000     
  -3.9750000000000001E-002     0.0000000000000000     
  -3.9699999999999999E-002     0.0000000000000000     
  -3.9649999999999998E-002     0.0000000000000000     
  -3.9600000000000003E-002     0.0000000000000000     
  -3.9550000000000002E-002     0.0000000000000000     
  -3.9500000000000000E-002     0.0000000000000000     
  -3.9449999999999999E-002     0.0000000000000000     
  -3.9399999999999998E-002     0.0000000000000000     
  -3.9350000000000003E-002     0.0000000000000000     
  -3.9300000000000002E-002     0.0000000000000000     
  -3.9250000000000000E-002     0.0000000000000000     
  -3.9199999999999999E-002     0.0000000000000000     
  -3.9150000000000004E-002     0.0000000000000000     
  -3.9100000000000003E-002     0.0000000000000000     
  -3.9050000000000001E-002     0.0000000000000000     
  -3.9000000000000000E-002     0.0000000000000000     
  -3.8949999999999999E-002     0.0000000000000000     
  -3.8900000000000004E-002     0.0000000000000000     
  -3.8850000000000003E-002     0.0000000000000000     
  -3.8800000000000001E-002     0.0000000000000000     
  -3.8750000000000000E-002     0.0000000000000000     
  -3.8699999999999998E-002     0.0000000000000000     
  -3.8650000000000004E-002     0.0000000000000000     
  -3.8600000000000002E-002     0.0000000000000000     
  -3.8550000000000001E-002     0.0000000000000000     
  -3.8500000000000000E-002    -6.1591881993001274E-040
  -3.8449999999999998E-002    -3.1664796807028766E-039
  -3.8400000000000004E-002    -9.3346974343487587E-039
  -3.8350000000000002E-002    -1.4769889314607486E-038
  -3.8300000000000001E-002     2.9982292994417528E-039
  -3.8249999999999999E-002     9.0151861694625452E-038
  -3.8199999999999998E-002     3.7225941325904361E-037
  -3.8150000000000003E-002     9.6277940053437857E-037
  -3.8100000000000002E-002     1.6366031743620754E-036
  -3.8050000000000000E-002     1.0655208422682765E-036
  -3.7999999999999999E-002    -4.0133907815591970E-036
  -3.7949999999999998E-002    -1.8539605637212210E-035
  -3.7900000000000003E-002    -4.4825610507217854E-035
  -3.7850000000000002E-002    -7.0915162932021679E-035
  -3.7800000000000000E-002    -5.2233334578967033E-035
  -3.7749999999999999E-002     1.0054408649031465E-034
  -3.7699999999999997E-002     4.9471535782123255E-034
  -3.7650000000000003E-002     1.1435657115391830E-033
  -3.7600000000000001E-002     1.7460884338124410E-033
  -3.7550000000000000E-002     1.4320161698475495E-033
  -3.7499999999999999E-002    -1.2785378122881604E-033
  -3.7449999999999997E-002    -7.8771432667598212E-033
  -3.7400000000000003E-002    -1.8233173858177513E-032
  -3.7350000000000001E-002    -2.8016785431921097E-032
  -3.7300000000000000E-002    -2.6366572734798074E-032
  -3.7249999999999998E-002     3.5808287926365349E-033
  -3.7200000000000004E-002     7.7816973126453792E-032
  -3.7150000000000002E-002     1.9589161977858365E-031
  -3.7100000000000001E-002     3.1876905355850242E-031
  -3.7050000000000000E-002     3.5022958631089861E-031
  -3.6999999999999998E-002     1.4119453032153945E-031
  -3.6950000000000004E-002    -4.5866331693351538E-031
  -3.6900000000000002E-002    -1.4854780533542116E-030
  -3.6850000000000001E-002    -2.6949440747357590E-030
  -3.6799999999999999E-002    -3.4129076574323282E-030
  -3.6749999999999998E-002    -2.5375411052378768E-030
  -3.6700000000000003E-002     1.1320616172394791E-030
  -3.6650000000000002E-002     8.1206896946203006E-030
  -3.6600000000000001E-002     1.7155045505256262E-029
  -3.6549999999999999E-002     2.4188656467693264E-029
  -3.6499999999999998E-002     2.2492183346673038E-029
  -3.6450000000000003E-002     4.8410697000542601E-030
  -3.6400000000000002E-002    -3.1812315708577657E-029
  -3.6350000000000000E-002    -8.0433957086592640E-029
  -3.6299999999999999E-002    -1.2022271102610892E-028
  -3.6249999999999998E-002    -1.1996232848156240E-028
  -3.6200000000000003E-002    -5.1755853719933599E-029
  -3.6150000000000002E-002     8.7156422091586322E-029
  -3.6100000000000000E-002     2.5536296431899731E-028
  -3.6049999999999999E-002     3.6837580181767625E-028
  -3.6000000000000004E-002     3.3404335540168736E-028
  -3.5950000000000003E-002     1.1838848952041366E-028
  -3.5900000000000001E-002    -1.9131619304318815E-028
  -3.5850000000000000E-002    -3.8303913208716773E-028
  -3.5799999999999998E-002    -2.2522280007485334E-028
  -3.5750000000000004E-002     3.2715194030258726E-028
  -3.5700000000000003E-002     9.2890736557250002E-028
  -3.5650000000000001E-002     8.2676490263127715E-028
  -3.5600000000000000E-002    -8.0539181570534675E-028
  -3.5549999999999998E-002    -4.1809888373946410E-027
  -3.5500000000000004E-002    -8.1620356743573323E-027
  -3.5450000000000002E-002    -1.0026273724003500E-026
  -3.5400000000000001E-002    -6.2926523914127457E-027
  -3.5349999999999999E-002     5.2912820296554728E-027
  -3.5299999999999998E-002     2.3313773312886840E-026
  -3.5250000000000004E-002     4.1297295340149393E-026
  -3.5200000000000002E-002     4.8901543963407071E-026
  -3.5150000000000001E-002     3.6249935804637972E-026
  -3.5099999999999999E-002    -1.0270482714185175E-028
  -3.5049999999999998E-002    -5.2930488766081957E-026
  -3.5000000000000003E-002    -1.0539723259508691E-025
  -3.4950000000000002E-002    -1.3844938868600133E-025
  -3.4900000000000000E-002    -1.4091965245330614E-025
  -3.4849999999999999E-002    -1.1475668185023986E-025
  -3.4799999999999998E-002    -6.8411854441364770E-026
  -3.4750000000000003E-002     1.0709380205807542E-027
  -3.4700000000000002E-002     1.2455544519697046E-025
  -3.4650000000000000E-002     3.5423581346850308E-025
  -3.4599999999999999E-002     7.1700658763992083E-025
  -3.4549999999999997E-002     1.1351065393986398E-024
  -3.4500000000000003E-002     1.3588168811886162E-024
  -3.4450000000000001E-002     9.8473019138979337E-025
  -3.4400000000000000E-002    -3.7680741400008239E-025
  -3.4349999999999999E-002    -2.7898030721723927E-024
  -3.4299999999999997E-002    -5.6557825338507839E-024
  -3.4250000000000003E-002    -7.5782544872826820E-024
  -3.4200000000000001E-002    -6.6706000508535177E-024
  -3.4150000000000000E-002    -1.4061097868234213E-024
  -3.4099999999999998E-002     8.1912563356527795E-024
  -3.4049999999999997E-002     1.9562643323266823E-023
  -3.4000000000000002E-002     2.7572479034093984E-023
  -3.3950000000000001E-002     2.5968920237471631E-023
  -3.3900000000000000E-002     1.0287912423166559E-023
  -3.3849999999999998E-002    -1.8753156197213455E-023
  -3.3799999999999997E-002    -5.3080059567841384E-023
  -3.3750000000000002E-002    -7.8100428391588718E-023
  -3.3700000000000001E-002    -7.7426383049585948E-023
  -3.3649999999999999E-002    -4.0526896205484907E-023
  -3.3599999999999998E-002     2.9660209493925889E-023
  -3.3550000000000003E-002     1.1323437281955116E-022
  -3.3500000000000002E-002     1.7724767905215210E-022
  -3.3450000000000001E-002     1.8740997817669729E-022
  -3.3399999999999999E-002     1.2387020553953084E-022
  -3.3349999999999998E-002    -5.9483801701559931E-024
  -3.3300000000000003E-002    -1.6483552109651419E-022
  -3.3250000000000002E-002    -2.9725464006471590E-022
  -3.3200000000000000E-002    -3.5157783697298651E-022
  -3.3149999999999999E-002    -3.0309130578857632E-022
  -3.3099999999999997E-002    -1.6515851420152513E-022
  -3.3050000000000003E-002     1.9586701927153983E-023
  -3.3000000000000002E-002     2.0521190395610615E-022
  -3.2950000000000000E-002     3.7045594812850804E-022
  -3.2899999999999999E-002     5.2751432650747474E-022
  -3.2850000000000004E-002     6.9728386179205600E-022
  -3.2800000000000003E-002     8.5688772870894712E-022
  -3.2750000000000001E-002     8.9057267351665759E-022
  -3.2700000000000000E-002     5.9020643843590324E-022
  -3.2649999999999998E-002    -2.5864915483067912E-022
  -3.2600000000000004E-002    -1.7102120287073294E-021
  -3.2550000000000003E-002    -3.4765295649836993E-021
  -3.2500000000000001E-002    -4.8442333864774540E-021
  -3.2450000000000000E-002    -4.8060281161874162E-021
  -3.2399999999999998E-002    -2.4536930832576945E-021
  -3.2350000000000004E-002     2.4528176092051406E-021
  -3.2300000000000002E-002     8.9718261610455046E-021
  -3.2250000000000001E-002     1.4835873383913133E-020
  -3.2199999999999999E-002     1.6935195975112947E-020
  -3.2149999999999998E-002     1.2465430443470946E-020
  -3.2100000000000004E-002     4.4209017253922372E-022
  -3.2050000000000002E-002    -1.7028969734286458E-020
  -3.2000000000000001E-002    -3.4455933795097813E-020
  -3.1949999999999999E-002    -4.4164938477735933E-020
  -3.1899999999999998E-002    -3.8984584603186968E-020
  -3.1850000000000003E-002    -1.5668462789024078E-020
  -3.1800000000000002E-002     2.2291396134215348E-020
  -3.1750000000000000E-002     6.3958623641333420E-020
  -3.1699999999999999E-002     9.3337953244335025E-020
  -3.1649999999999998E-002     9.4705386094421966E-020
  -3.1600000000000003E-002     5.9351477812254620E-020
  -3.1550000000000002E-002    -8.8501905985855203E-021
  -3.1500000000000000E-002    -9.1785720147861180E-020
  -3.1449999999999999E-002    -1.6103381932289640E-019
  -3.1399999999999997E-002    -1.8700170646803431E-019
  -3.1350000000000003E-002    -1.5051490047927422E-019
  -3.1300000000000001E-002    -5.2469648022719868E-020
  -3.1250000000000000E-002     8.2868619099268226E-020
  -3.1199999999999999E-002     2.1340745946220773E-019
  -3.1150000000000001E-002     2.9271618727486551E-019
  -3.1100000000000003E-002     2.8701078287675072E-019
  -3.1050000000000001E-002     1.8904672449882289E-019
  -3.1000000000000000E-002     2.2832401276066321E-020
  -3.0949999999999998E-002    -1.6360234355779802E-019
  -3.0900000000000000E-002    -3.1513182311060792E-019
  -3.0850000000000002E-002    -3.8933527620923725E-019
  -3.0800000000000001E-002    -3.7051198668386767E-019
  -3.0750000000000000E-002    -2.7146016497466825E-019
  -3.0699999999999998E-002    -1.2232521172053809E-019
  -3.0650000000000000E-002     4.7304158295311287E-020
  -3.0600000000000002E-002     2.2237686740670052E-019
  -3.0550000000000001E-002     4.0261669549089877E-019
  -3.0499999999999999E-002     5.8612832759299052E-019
  -3.0449999999999998E-002     7.4403935726803213E-019
  -3.0400000000000000E-002     8.0291452401256006E-019
  -3.0350000000000002E-002     6.5344893586997900E-019
  -3.0300000000000001E-002     1.9500119694130554E-019
  -3.0249999999999999E-002    -5.9277094941917085E-019
  -3.0200000000000001E-002    -1.5805398275956520E-018
  -3.0150000000000000E-002    -2.4639327240172177E-018
  -3.0100000000000002E-002    -2.8182247607387027E-018
  -3.0050000000000000E-002    -2.2419350560159277E-018
  -2.9999999999999999E-002    -5.5577650353183858E-019
  -2.9950000000000001E-002     2.0178329734846041E-018
  -2.9899999999999999E-002     4.7885158195298266E-018
  -2.9850000000000002E-002     6.7187755159465417E-018
  -2.9800000000000000E-002     6.7437208468092623E-018
  -2.9749999999999999E-002     4.2135867762534592E-018
  -2.9700000000000001E-002    -6.9737467025413298E-019
  -2.9650000000000003E-002    -6.8052948496236839E-018
  -2.9600000000000001E-002    -1.2101428174618771E-017
  -2.9550000000000000E-002    -1.4333984335995044E-017
  -2.9499999999999998E-002    -1.1848981042453912E-017
  -2.9450000000000000E-002    -4.4047114142936545E-018
  -2.9400000000000003E-002     6.3861406784988540E-018
  -2.9350000000000001E-002     1.7258524498323398E-017
  -2.9300000000000000E-002     2.4205226741294985E-017
  -2.9249999999999998E-002     2.3877733534115290E-017
  -2.9200000000000000E-002     1.5010498152616694E-017
  -2.9150000000000002E-002    -7.0242262251375709E-019
  -2.9100000000000001E-002    -1.8733749300376012E-017
  -2.9049999999999999E-002    -3.2979007143056946E-017
  -2.8999999999999998E-002    -3.7828214677047338E-017
  -2.8950000000000000E-002    -3.0353937523560412E-017
  -2.8900000000000002E-002    -1.1759863245087315E-017
  -2.8850000000000001E-002     1.2589078139650861E-017
  -2.8799999999999999E-002     3.4746860801530161E-017
  -2.8749999999999998E-002     4.6932235793408846E-017
  -2.8700000000000000E-002     4.4461163918390877E-017
  -2.8650000000000002E-002     2.7698202002428858E-017
  -2.8600000000000000E-002     2.1457606033111884E-018
  -2.8549999999999999E-002    -2.3511295585723232E-017
  -2.8500000000000001E-002    -4.0731095320643089E-017
  -2.8450000000000000E-002    -4.4481163051961610E-017
  -2.8400000000000002E-002    -3.5183314424980261E-017
  -2.8350000000000000E-002    -1.8287822205779012E-017
  -2.8299999999999999E-002    -1.5369685691413360E-018
  -2.8250000000000001E-002     8.9225723752549207E-018
  -2.8200000000000003E-002     1.1735588021310354E-017
  -2.8150000000000001E-002     1.1115731506572721E-017
  -2.8100000000000000E-002     1.4466620703293393E-017
  -2.8049999999999999E-002     2.7626370421369392E-017
  -2.8000000000000001E-002     4.9917016798171382E-017
  -2.7950000000000003E-002     7.1748222874765883E-017
  -2.7900000000000001E-002     7.6819902928418539E-017
  -2.7850000000000000E-002     4.9069035770990472E-017
  -2.7799999999999998E-002    -1.7909026376834345E-017
  -2.7750000000000000E-002    -1.1310999134141101E-016
  -2.7700000000000002E-002    -2.0649473950764426E-016
  -2.7650000000000001E-002    -2.5618003967350373E-016
  -2.7600000000000000E-002    -2.2366415865260389E-016
  -2.7549999999999998E-002    -9.2337910800848479E-017
  -2.7500000000000000E-002     1.1821464840536225E-016
  -2.7450000000000002E-002     3.4963465080262039E-016
  -2.7400000000000001E-002     5.1810430003774571E-016
  -2.7349999999999999E-002     5.4182622710732324E-016
  -2.7299999999999998E-002     3.7446777070842150E-016
  -2.7250000000000000E-002     3.2045194322962692E-017
  -2.7200000000000002E-002    -3.9919917898450459E-016
  -2.7150000000000001E-002    -7.8107422685998799E-016
  -2.7099999999999999E-002    -9.6574412945615045E-016
  -2.7049999999999998E-002    -8.4982770653970627E-016
  -2.7000000000000000E-002    -4.2115879424549886E-016
  -2.6950000000000002E-002     2.2127060757696564E-016
  -2.6900000000000000E-002     8.8623054547879253E-016
  -2.6849999999999999E-002     1.3466926876916046E-015
  -2.6800000000000001E-002     1.4175986796948868E-015
  -2.6749999999999999E-002     1.0282319815863912E-015
  -2.6700000000000002E-002     2.6105231258992516E-016
  -2.6650000000000000E-002    -6.6166663422826859E-016
  -2.6599999999999999E-002    -1.4440750192880977E-015
  -2.6550000000000001E-002    -1.8162149015604571E-015
  -2.6500000000000003E-002    -1.6322407714663178E-015
  -2.6450000000000001E-002    -9.3010271578052518E-016
  -2.6400000000000000E-002     7.2947044854632925E-017
  -2.6349999999999998E-002     1.0517401409367447E-015
  -2.6300000000000000E-002     1.6881491724197797E-015
  -2.6250000000000002E-002     1.7873384187858112E-015
  -2.6200000000000001E-002     1.3496525869997455E-015
  -2.6150000000000000E-002     5.6745839529404657E-016
  -2.6099999999999998E-002    -2.5486352312989766E-016
  -2.6050000000000000E-002    -8.2761496162182539E-016
  -2.6000000000000002E-002    -9.9717412797574233E-016
  -2.5950000000000001E-002    -8.0869724091796984E-016
  -2.5899999999999999E-002    -4.7848451952775159E-016
  -2.5849999999999998E-002    -2.8226893209148872E-016
  -2.5800000000000000E-002    -4.0486962395183566E-016
  -2.5750000000000002E-002    -8.1996760451053097E-016
  -2.5700000000000001E-002    -1.2636494310443967E-015
  -2.5649999999999999E-002    -1.3304013083048336E-015
  -2.5599999999999998E-002    -6.6674174811425073E-016
  -2.5550000000000000E-002     8.1307670428430672E-016
  -2.5500000000000002E-002     2.7895438717166718E-015
  -2.5450000000000000E-002     4.5621931296027513E-015
  -2.5399999999999999E-002     5.2619127247690798E-015
  -2.5349999999999998E-002     4.1976240760548930E-015
  -2.5300000000000000E-002     1.2127268408653663E-015
  -2.5250000000000002E-002    -3.1029484055494045E-015
  -2.5200000000000000E-002    -7.4683045069217443E-015
  -2.5149999999999999E-002    -1.0265986745153472E-014
  -2.5100000000000001E-002    -1.0110175863340019E-014
  -2.5049999999999999E-002    -6.4359417859809642E-015
  -2.5000000000000001E-002     1.2375822077335406E-016
  -2.4950000000000000E-002     7.7608633470609053E-015
  -2.4899999999999999E-002     1.3972280307608559E-014
  -2.4850000000000001E-002     1.6381542173238104E-014
  -2.4800000000000003E-002     1.3634455407128312E-014
  -2.4750000000000001E-002     6.0343317617707277E-015
  -2.4700000000000000E-002    -4.3606034482550492E-015
  -2.4649999999999998E-002    -1.4281388858445347E-014
  -2.4600000000000000E-002    -2.0302120812554755E-014
  -2.4550000000000002E-002    -2.0060061980459720E-014
  -2.4500000000000001E-002    -1.3198358103272386E-014
  -2.4450000000000000E-002    -1.6500485560980750E-015
  -2.4399999999999998E-002     1.0900273178466531E-014
  -2.4350000000000000E-002     2.0239212435678646E-014
  -2.4299999999999999E-002     2.3118643417648735E-014
  -2.4250000000000001E-002     1.8472086765089016E-014
  -2.4199999999999999E-002     7.8729095639449787E-015
  -2.4150000000000001E-002    -4.9828471516894259E-015
  -2.4100000000000000E-002    -1.5617353810983851E-014
  -2.4049999999999998E-002    -2.0450143835234387E-014
  -2.4000000000000000E-002    -1.8167431234740470E-014
  -2.3949999999999999E-002    -1.0222090423224155E-014
  -2.3900000000000001E-002    -2.2635225843266099E-016
  -2.3850000000000000E-002     7.5600232324719228E-015
  -2.3800000000000002E-002     1.0056583857678682E-014
  -2.3750000000000000E-002     6.7456617231651006E-015
  -2.3699999999999999E-002    -9.0243134697497767E-018
  -2.3650000000000001E-002    -5.9204960465615184E-015
  -2.3599999999999999E-002    -6.6927468647899148E-015
  -2.3550000000000001E-002    -1.2928124824334262E-016
  -2.3500000000000000E-002     1.2481245185745451E-014
  -2.3449999999999999E-002     2.6396234591911168E-014
  -2.3400000000000001E-002     3.5019531216950331E-014
  -2.3349999999999999E-002     3.2560696105538662E-014
  -2.3300000000000001E-002     1.6729747704591063E-014
  -2.3250000000000000E-002    -9.6883019595173218E-015
  -2.3199999999999998E-002    -3.9190914992378569E-014
  -2.3150000000000000E-002    -6.1934435923596263E-014
  -2.3099999999999999E-002    -6.9376194176808765E-014
  -2.3050000000000001E-002    -5.7812256514719667E-014
  -2.3000000000000000E-002    -3.0329077656867768E-014
  -2.2950000000000002E-002     3.8191425021311388E-015
  -2.2900000000000000E-002     3.2438734625713034E-014
  -2.2849999999999999E-002     4.5186826792359312E-014
  -2.2800000000000001E-002     3.8117341158404745E-014
  -2.2749999999999999E-002     1.6071506508243702E-014
  -2.2700000000000001E-002    -8.3353539227098154E-015
  -2.2650000000000000E-002    -1.9138110931355669E-014
  -2.2599999999999999E-002    -3.4877221729233649E-015
  -2.2550000000000001E-002     4.2183810736930190E-014
  -2.2499999999999999E-002     1.0878568801604538E-013
  -2.2450000000000001E-002     1.7564254542649992E-013
  -2.2400000000000000E-002     2.1613827547068530E-013
  -2.2349999999999998E-002     2.0631476288663235E-013
  -2.2300000000000000E-002     1.3355575389197244E-013
  -2.2249999999999999E-002     2.2279860007374052E-015
  -2.2200000000000001E-002    -1.6593783935578158E-013
  -2.2150000000000000E-002    -3.3714172454332835E-013
  -2.2100000000000002E-002    -4.7484412959824127E-013
  -2.2050000000000000E-002    -5.4996034855554909E-013
  -2.1999999999999999E-002    -5.4835654988078504E-013
  -2.1950000000000001E-002    -4.7303745799180449E-013
  -2.1899999999999999E-002    -3.4039732996593762E-013
  -2.1850000000000001E-002    -1.7218481753436987E-013
  -2.1800000000000000E-002     1.3473232232139793E-014
  -2.1749999999999999E-002     2.0822932033202394E-013
  -2.1700000000000001E-002     4.1417011199608263E-013
  -2.1649999999999999E-002     6.3848818654732401E-013
  -2.1600000000000001E-002     8.8418214809743370E-013
  -2.1550000000000000E-002     1.1405925934341989E-012
  -2.1499999999999998E-002     1.3779352884569024E-012
  -2.1450000000000000E-002     1.5486965296627768E-012
  -2.1399999999999999E-002     1.5962681935585254E-012
  -2.1350000000000001E-002     1.4684654731660981E-012
  -2.1299999999999999E-002     1.1316745698559778E-012
  -2.1250000000000002E-002     5.8109328971480818E-013
  -2.1200000000000000E-002    -1.5598419770058260E-013
  -2.1149999999999999E-002    -1.0242176714627093E-012
  -2.1100000000000001E-002    -1.9492108802499764E-012
  -2.1049999999999999E-002    -2.8473323116429531E-012
  -2.1000000000000001E-002    -3.6323859262297935E-012
  -2.0950000000000000E-002    -4.2171288985963953E-012
  -2.0899999999999998E-002    -4.5106939427876094E-012
  -2.0850000000000000E-002    -4.4158047105683884E-012
  -2.0799999999999999E-002    -3.8309830723161100E-012
  -2.0750000000000001E-002    -2.6619850548978132E-012
  -2.0700000000000000E-002    -8.4355761343598024E-013
  -2.0649999999999998E-002     1.6315889000995053E-012
  -2.0600000000000000E-002     4.6834240539332238E-012
  -2.0549999999999999E-002     8.1233343213481720E-012
  -2.0500000000000001E-002     1.1648241488834402E-011
  -2.0449999999999999E-002     1.4853449585159301E-011
  -2.0400000000000001E-002     1.7262267981133132E-011
  -2.0350000000000000E-002     1.8365571040787048E-011
  -2.0299999999999999E-002     1.7661815047878184E-011
  -2.0250000000000001E-002     1.4688642521729968E-011
  -2.0199999999999999E-002     9.0406565277524552E-012
  -2.0150000000000001E-002     3.7343840964377116E-013
  -2.0100000000000000E-002    -1.1601371320097094E-011
  -2.0049999999999998E-002    -2.7122187829733830E-011
  -2.0000000000000000E-002    -4.6377503497819935E-011
  -1.9949999999999999E-002    -6.9495929626581793E-011
  -1.9900000000000001E-002    -9.6527473645261039E-011
  -1.9850000000000000E-002    -1.2742174557007032E-010
  -1.9799999999999998E-002    -1.6201166819601500E-010
  -1.9750000000000000E-002    -2.0001016588867935E-010
  -1.9699999999999999E-002    -2.4102413520495093E-010
  -1.9650000000000001E-002    -2.8458473775173544E-010
  -1.9599999999999999E-002    -3.3018823993444831E-010
  -1.9550000000000001E-002    -3.7733935802852379E-010
  -1.9500000000000000E-002    -4.2558865385250970E-010
  -1.9449999999999999E-002    -4.7455897154496889E-010
  -1.9400000000000001E-002    -5.2395905010213853E-010
  -1.9349999999999999E-002    -5.7358706606262489E-010
  -1.9300000000000001E-002    -6.2332745772741413E-010
  -1.9250000000000000E-002    -6.7314510173714152E-010
  -1.9199999999999998E-002    -7.2307822572010198E-010
  -1.9150000000000000E-002    -7.7322920219111012E-010
  -1.9099999999999999E-002    -8.2375088888996726E-010
  -1.9050000000000001E-002    -8.7482687274606498E-010
  -1.9000000000000000E-002    -9.2664520160207020E-010
  -1.8949999999999998E-002    -9.7937108239059659E-010
  -1.8900000000000000E-002    -1.0331224433851576E-009
  -1.8849999999999999E-002    -1.0879576767955696E-009
  -1.8800000000000001E-002    -1.1438783710485777E-009
  -1.8749999999999999E-002    -1.2008491803447258E-009
  -1.8700000000000001E-002    -1.2588298137174091E-009
  -1.8650000000000000E-002    -1.3178100204482842E-009
  -1.8599999999999998E-002    -1.3778393582971128E-009
  -1.8550000000000001E-002    -1.4390405500854176E-009
  -1.8499999999999999E-002    -1.5016035663404250E-009
  -1.8450000000000001E-002    -1.5657611238766578E-009
  -1.8400000000000000E-002    -1.6317506412911092E-009
  -1.8349999999999998E-002    -1.6997744622107951E-009
  -1.8300000000000000E-002    -1.7699666704292258E-009
  -1.8249999999999999E-002    -1.8423756764293361E-009
  -1.8200000000000001E-002    -1.9169652565866539E-009
  -1.8149999999999999E-002    -1.9936341039054947E-009
  -1.8100000000000002E-002    -2.0722459567651431E-009
  -1.8050000000000000E-002    -2.1526645128261051E-009
  -1.7999999999999999E-002    -2.2347845623043635E-009
  -1.7950000000000001E-002    -2.3185536204764556E-009
  -1.7899999999999999E-002    -2.4039808841700685E-009
  -1.7850000000000001E-002    -2.4911334794572199E-009
  -1.7800000000000000E-002    -2.5801257100506937E-009
  -1.7749999999999998E-002    -2.6711028624688809E-009
  -1.7700000000000000E-002    -2.7642270922066149E-009
  -1.7649999999999999E-002    -2.8596665133708713E-009
  -1.7600000000000001E-002    -2.9575923559240982E-009
  -1.7550000000000000E-002    -3.0581792262051377E-009
  -1.7499999999999998E-002    -3.1616098588974386E-009
  -1.7450000000000000E-002    -3.2680807726070984E-009
  -1.7399999999999999E-002    -3.3778038051404966E-009
  -1.7350000000000001E-002    -3.4910039719132313E-009
  -1.7299999999999999E-002    -3.6079076833979775E-009
  -1.7250000000000001E-002    -3.7287270380880612E-009
  -1.7200000000000000E-002    -3.8536374621972889E-009
  -1.7149999999999999E-002    -3.9827550803110960E-009
  -1.7100000000000001E-002    -4.1161149493084221E-009
  -1.7049999999999999E-002    -4.2536548411312834E-009
  -1.7000000000000001E-002    -4.3952159047595493E-009
  -1.6950000000000000E-002    -4.5405511265289668E-009
  -1.6899999999999998E-002    -4.6893594374201424E-009
  -1.6850000000000000E-002    -4.8413328966633275E-009
  -1.6799999999999999E-002    -4.9962233934434155E-009
  -1.6750000000000001E-002    -5.1539090760643744E-009
  -1.6700000000000000E-002    -5.3144535124917436E-009
  -1.6649999999999998E-002    -5.4781446948167954E-009
  -1.6600000000000000E-002    -5.6454949577318318E-009
  -1.6549999999999999E-002    -5.8172042626688731E-009
  -1.6500000000000001E-002    -5.9940833668357889E-009
  -1.6449999999999999E-002    -6.1769520887083941E-009
  -1.6400000000000001E-002    -6.3665320290018098E-009
  -1.6350000000000000E-002    -6.5633538382172928E-009
  -1.6299999999999999E-002    -6.7676983016157662E-009
  -1.6250000000000001E-002    -6.9795819713167722E-009
  -1.6199999999999999E-002    -7.1987879322673618E-009
  -1.6150000000000001E-002    -7.4249328115381409E-009
  -1.6100000000000000E-002    -7.6575550383738303E-009
  -1.6049999999999998E-002    -7.8962080658771654E-009
  -1.6000000000000000E-002    -8.1405364943583910E-009
  -1.5949999999999999E-002    -8.3903321926519439E-009
  -1.5900000000000001E-002    -8.6455644422698461E-009
  -1.5850000000000000E-002    -8.9063858283564274E-009
  -1.5799999999999998E-002    -9.1731137228815895E-009
  -1.5750000000000000E-002    -9.4462069049876977E-009
  -1.5699999999999999E-002    -9.7262267644303271E-009
  -1.5650000000000001E-002    -1.0013793952195249E-008
  -1.5599999999999999E-002    -1.0309538244003384E-008
  -1.5550000000000001E-002    -1.0614052091143354E-008
  -1.5500000000000000E-002    -1.0927850998146911E-008
  -1.5449999999999998E-002    -1.1251340581925712E-008
  -1.5400000000000000E-002    -1.1584810911014143E-008
  -1.5349999999999999E-002    -1.1928449033622263E-008
  -1.5300000000000001E-002    -1.2282361962338078E-008
  -1.5250000000000000E-002    -1.2646614074941023E-008
  -1.5199999999999998E-002    -1.3021257205657185E-008
  -1.5150000000000000E-002    -1.3406351894600915E-008
  -1.5099999999999999E-002    -1.3801967351357710E-008
  -1.5050000000000001E-002    -1.4208178762111559E-008
  -1.4999999999999999E-002    -1.4625056327100783E-008
  -1.4949999999999998E-002    -1.5052657721579188E-008
  -1.4900000000000000E-002    -1.5491046640175366E-008
  -1.4849999999999999E-002    -1.5940321402355654E-008
  -1.4800000000000001E-002    -1.6400666694601363E-008
  -1.4749999999999999E-002    -1.6872405707989518E-008
  -1.4700000000000001E-002    -1.7356034079029806E-008
  -1.4650000000000000E-002    -1.7852251841709528E-008
  -1.4599999999999998E-002    -1.8361920334800066E-008
  -1.4550000000000000E-002    -1.8886008601025347E-008
  -1.4499999999999999E-002    -1.9425483477224949E-008
  -1.4450000000000001E-002    -1.9981196863009119E-008
  -1.4400000000000000E-002    -2.0553766158560417E-008
  -1.4349999999999998E-002    -2.1143501539942943E-008
  -1.4300000000000000E-002    -2.1750392887484927E-008
  -1.4249999999999999E-002    -2.2374150734294795E-008
  -1.4200000000000001E-002    -2.3014313965752219E-008
  -1.4149999999999999E-002    -2.3670410404160905E-008
  -1.4099999999999998E-002    -2.4342103206026871E-008
  -1.4050000000000000E-002    -2.5029327615709381E-008
  -1.3999999999999999E-002    -2.5732378498446550E-008
  -1.3950000000000001E-002    -2.6451930601047371E-008
  -1.3899999999999999E-002    -2.7188975637967830E-008
  -1.3850000000000001E-002    -2.7944730345862825E-008
  -1.3800000000000000E-002    -2.8720491570065763E-008
  -1.3749999999999998E-002    -2.9517504023777625E-008
  -1.3700000000000000E-002    -3.0336843321379992E-008
  -1.3649999999999999E-002    -3.1179358229336797E-008
  -1.3600000000000001E-002    -3.2045635156165652E-008
  -1.3550000000000000E-002    -3.2936029392287365E-008
  -1.3499999999999998E-002    -3.3850716037718753E-008
  -1.3450000000000000E-002    -3.4789748429033102E-008
  -1.3399999999999999E-002    -3.5753129212463161E-008
  -1.3350000000000001E-002    -3.6740876872368336E-008
  -1.3299999999999999E-002    -3.7753068226309961E-008
  -1.3249999999999998E-002    -3.8789910898697427E-008
  -1.3200000000000000E-002    -3.9851771141044606E-008
  -1.3149999999999998E-002    -4.0939228070662797E-008
  -1.3100000000000001E-002    -4.2053062796534940E-008
  -1.3049999999999999E-002    -4.3194242822814072E-008
  -1.3000000000000001E-002    -4.4363878633176524E-008
  -1.2950000000000000E-002    -4.5563141705405622E-008
  -1.2899999999999998E-002    -4.6793177170225056E-008
  -1.2850000000000000E-002    -4.8055053660728113E-008
  -1.2799999999999999E-002    -4.9349687574555972E-008