  -4.0000000000000001E-002     0.0000000000000000     
  -3.9949999999999999E-002     0.0000000000000000     
  -3.9899999999999998E-002     0.0000000000000000     
  -3.9850000000000003E-002     0.0000000000000000     
  -3.9800000000000002E-002     0.0000000000000000     
  -3.9750000000000001E-002     0.0000000000000000     
  -3.9699999999999999E-002     0.0000000000000000     
  -3.9649999999999998E-002     0.0000000000000000     
  -3.9600000000000003E-002     0.0000000000000000     
  -3.9550000000000002E-002     0.0000000000000000     
  -3.9500000000000000E-002     0.0000000000000000     
  -3.9449999999999999E-002     0.0000000000000000     
  -3.9399999999999998E-002     0.0000000000000000     
  -3.9350000000000003E-002     0.0000000000000000     
  -3.9300000000000002E-002     0.0000000000000000     
  -3.9250000000000000E-002     0.0000000000000000     
  -3.9199999999999999E-002     0.0000000000000000     
  -3.9150000000000004E-002     0.0000000000000000     
  -3.9100000000000003E-002     0.0000000000000000     
  -3.9050000000000001E-002     0.0000000000000000     
  -3.9000000000000000E-002     0.0000000000000000     
  -3.8949999999999999E-002     0.0000000000000000     
  -3.8900000000000004E-002     0.0000000000000000     
  -3.8850000000000003E-002     0.0000000000000000     
  -3.8800000000000001E-002     0.0000000000000000     
  -3.8750000000000000E-002     0.0000000000000000     
  -3.8699999999999998E-002     0.0000000000000000     
  -3.8650000000000004E-002     0.0000000000000000     
  -3.8600000000000002E-002     0.0000000000000000     
  -3.8550000000000001E-002     0.0000000000000000     
  -3.8500000000000000E-002     0.0000000000000000     
  -3.8449999999999998E-002     0.0000000000000000     
  -3.8400000000000004E-002     0.0000000000000000     
  -3.8350000000000002E-002     0.0000000000000000     
  -3.8300000000000001E-002     0.0000000000000000     
  -3.8249999999999999E-002     0.0000000000000000     
  -3.8199999999999998E-002     0.0000000000000000     
  -3.8150000000000003E-002     0.0000000000000000     
  -3.8100000000000002E-002     0.0000000000000000     
  -3.8050000000000000E-002     0.0000000000000000     
  -3.7999999999999999E-002     0.0000000000000000     
  -3.7949999999999998E-002     0.0000000000000000     
  -3.7900000000000003E-002     0.0000000000000000     
  -3.7850000000000002E-002     0.0000000000000000     
  -3.7800000000000000E-002     0.0000000000000000     
  -3.7749999999999999E-002     0.0000000000000000     
  -3.7699999999999997E-002     0.0000000000000000     
  -3.7650000000000003E-002     0.0000000000000000     
  -3.7600000000000001E-002     0.0000000000000000     
  -3.7550000000000000E-002     0.0000000000000000     
  -3.7499999999999999E-002     0.0000000000000000     
  -3.7449999999999997E-002     0.0000000000000000     
  -3.7400000000000003E-002     0.0000000000000000     
  -3.7350000000000001E-002     0.0000000000000000     
  -3.7300000000000000E-002     0.0000000000000000     
  -3.7249999999999998E-002     0.0000000000000000     
  -3.7200000000000004E-002     0.0000000000000000     
  -3.7150000000000002E-002     0.0000000000000000     
  -3.7100000000000001E-002     0.0000000000000000     
  -3.7050000000000000E-002     0.0000000000000000     
  -3.6999999999999998E-002     0.0000000000000000     
  -3.6950000000000004E-002     0.0000000000000000     
  -3.6900000000000002E-002     0.0000000000000000     
  -3.6850000000000001E-002     0.0000000000000000     
  -3.6799999999999999E-002     0.0000000000000000     
  -3.6749999999999998E-002     0.0000000000000000     
  -3.6700000000000003E-002     0.0000000000000000     
  -3.6650000000000002E-002     0.0000000000000000     
  -3.6600000000000001E-002     0.0000000000000000     
  -3.6549999999999999E-002     0.0000000000000000     
  -3.6499999999999998E-002     0.0000000000000000     
  -3.6450000000000003E-002     0.0000000000000000     
  -3.6400000000000002E-002     0.0000000000000000     
  -3.6350000000000000E-002     0.0000000000000000     
  -3.6299999999999999E-002     0.0000000000000000     
  -3.6249999999999998E-002     0.0000000000000000     
  -3.6200000000000003E-002     0.0000000000000000     
  -3.6150000000000002E-002     0.0000000000000000     
  -3.6100000000000000E-002     0.0000000000000000     
  -3.6049999999999999E-002     0.0000000000000000     
  -3.6000000000000004E-002     0.0000000000000000     
  -3.5950000000000003E-002     0.0000000000000000     
  -3.5900000000000001E-002     0.0000000000000000     
  -3.5850000000000000E-002     0.0000000000000000     
  -3.5799999999999998E-002     0.0000000000000000     
  -3.5750000000000004E-002     0.0000000000000000     
  -3.5700000000000003E-002     0.0000000000000000     
  -3.5650000000000001E-002     0.0000000000000000     
  -3.5600000000000000E-002     0.0000000000000000     
  -3.5549999999999998E-002     0.0000000000000000     
  -3.5500000000000004E-002     0.0000000000000000     
  -3.5450000000000002E-002     0.0000000000000000     
  -3.5400000000000001E-002     0.0000000000000000     
  -3.5349999999999999E-002     0.0000000000000000     
  -3.5299999999999998E-002     0.0000000000000000     
  -3.5250000000000004E-002     0.0000000000000000     
  -3.5200000000000002E-002     0.0000000000000000     
  -3.5150000000000001E-002     0.0000000000000000     
  -3.5099999999999999E-002     0.0000000000000000     
  -3.5049999999999998E-002     0.0000000000000000     
  -3.5000000000000003E-002     0.0000000000000000     
  -3.4950000000000002E-002     0.0000000000000000     
  -3.4900000000000000E-002     0.0000000000000000     
  -3.4849999999999999E-002     0.0000000000000000     
  -3.4799999999999998E-002     0.0000000000000000     
  -3.4750000000000003E-002     0.0000000000000000     
  -3.4700000000000002E-002     0.0000000000000000     
  -3.4650000000000000E-002     0.0000000000000000     
  -3.4599999999999999E-002     0.0000000000000000     
  -3.4549999999999997E-002     0.0000000000000000     
  -3.4500000000000003E-002     0.0000000000000000     
  -3.4450000000000001E-002     0.0000000000000000     
  -3.4400000000000000E-002     0.0000000000000000     
  -3.4349999999999999E-002     0.0000000000000000     
  -3.4299999999999997E-002     0.0000000000000000     
  -3.4250000000000003E-002     0.0000000000000000     
  -3.4200000000000001E-002     0.0000000000000000     
  -3.4150000000000000E-002     0.0000000000000000     
  -3.4099999999999998E-002     0.0000000000000000     
  -3.4049999999999997E-002     0.0000000000000000     
  -3.4000000000000002E-002     0.0000000000000000     
  -3.3950000000000001E-002     0.0000000000000000     
  -3.3900000000000000E-002     0.0000000000000000     
  -3.3849999999999998E-002     0.0000000000000000     
  -3.3799999999999997E-002     0.0000000000000000     
  -3.3750000000000002E-002     0.0000000000000000     
  -3.3700000000000001E-002     0.0000000000000000     
  -3.3649999999999999E-002     0.0000000000000000     
  -3.3599999999999998E-002     0.0000000000000000     
  -3.3550000000000003E-002     0.0000000000000000     
  -3.3500000000000002E-002     0.0000000000000000     
  -3.3450000000000001E-002     0.0000000000000000     
  -3.3399999999999999E-002     0.0000000000000000     
  -3.3349999999999998E-002     0.0000000000000000     
  -3.3300000000000003E-002     0.0000000000000000     
  -3.3250000000000002E-002     0.0000000000000000     
  -3.3200000000000000E-002     0.0000000000000000     
  -3.3149999999999999E-002     0.0000000000000000     
  -3.3099999999999997E-002     0.0000000000000000     
  -3.3050000000000003E-002     0.0000000000000000     
  -3.3000000000000002E-002     0.0000000000000000     
  -3.2950000000000000E-002     0.0000000000000000     
  -3.2899999999999999E-002     0.0000000000000000     
  -3.2850000000000004E-002     0.0000000000000000     
  -3.2800000000000003E-002     0.0000000000000000     
  -3.2750000000000001E-002     0.0000000000000000     
  -3.2700000000000000E-002     0.0000000000000000     
  -3.2649999999999998E-002     0.0000000000000000     
  -3.2600000000000004E-002     0.0000000000000000     
  -3.2550000000000003E-002     0.0000000000000000     
  -3.2500000000000001E-002     0.0000000000000000     
  -3.2450000000000000E-002     0.0000000000000000     
  -3.2399999999999998E-002     0.0000000000000000     
  -3.2350000000000004E-002     0.0000000000000000     
  -3.2300000000000002E-002     0.0000000000000000     
  -3.2250000000000001E-002     0.0000000000000000     
  -3.2199999999999999E-002     0.0000000000000000     
  -3.2149999999999998E-002     0.0000000000000000     
  -3.2100000000000004E-002     0.0000000000000000     
  -3.2050000000000002E-002     0.0000000000000000     
  -3.2000000000000001E-002     0.0000000000000000     
  -3.1949999999999999E-002     0.0000000000000000     
  -3.1899999999999998E-002     0.0000000000000000     
  -3.1850000000000003E-002     0.0000000000000000     
  -3.1800000000000002E-002     0.0000000000000000     
  -3.1750000000000000E-002     0.0000000000000000     
  -3.1699999999999999E-002     0.0000000000000000     
  -3.1649999999999998E-002     0.0000000000000000     
  -3.1600000000000003E-002     0.0000000000000000     
  -3.1550000000000002E-002     0.0000000000000000     
  -3.1500000000000000E-002     0.0000000000000000     
  -3.1449999999999999E-002     0.0000000000000000     
  -3.1399999999999997E-002     0.0000000000000000     
  -3.1350000000000003E-002     0.0000000000000000     
  -3.1300000000000001E-002     0.0000000000000000     
  -3.1250000000000000E-002     0.0000000000000000     
  -3.1199999999999999E-002     0.0000000000000000     
  -3.1150000000000001E-002     0.0000000000000000     
  -3.1100000000000003E-002     0.0000000000000000     
  -3.1050000000000001E-002     1.1939533121591787E-039
  -3.1000000000000000E-002     2.7637775574843603E-039
  -3.0949999999999998E-002     1.3577845091525092E-039
  -3.0900000000000000E-002    -4.9568043763154823E-039
  -3.0850000000000002E-002    -1.4963148282161772E-038
  -3.0800000000000001E-002    -2.1653875267412622E-038
  -3.0750000000000000E-002    -1.4954413155668394E-038
  -3.0699999999999998E-002     1.7099656416237979E-038
  -3.0650000000000000E-002     6.8547879205730671E-038
  -3.0600000000000002E-002     1.2556851563670495E-037
  -3.0550000000000001E-002     1.2285401769201349E-037
  -3.0499999999999999E-002     2.8465997111581134E-038
  -3.0449999999999998E-002    -1.7552118433846004E-037
  -3.0400000000000000E-002    -3.9177163428955830E-037
  -3.0350000000000002E-002    -5.0638027980135611E-037
  -3.0300000000000001E-002    -3.7574235585587068E-037
  -3.0249999999999999E-002     5.7723089445848178E-038
  -3.0200000000000001E-002     7.0525334550497849E-037
  -3.0150000000000000E-002     1.3022270413196141E-036
  -3.0100000000000002E-002     1.4877834867459957E-036
  -3.0050000000000000E-002     9.7330539816137601E-037
  -2.9999999999999999E-002    -2.5489721037073058E-037
  -2.9950000000000001E-002    -1.8186222584775576E-036
  -2.9899999999999999E-002    -3.0326433457577219E-036
  -2.9850000000000002E-002    -3.2220881768102890E-036
  -2.9800000000000000E-002    -2.1454563933562860E-036
  -2.9749999999999999E-002    -2.5746597133713416E-037
  -2.9700000000000001E-002     1.4652284915428883E-036
  -2.9650000000000003E-002     2.2059577878737938E-036
  -2.9600000000000001E-002     2.1849656349021406E-036
  -2.9550000000000000E-002     3.0434498594002373E-036
  -2.9499999999999998E-002     7.0151426336736081E-036
  -2.9450000000000000E-002     1.4722922077620385E-035
  -2.9400000000000003E-002     2.2538295259544956E-035
  -2.9350000000000001E-002     2.1561619115973733E-035
  -2.9300000000000000E-002     5.2214914633964755E-037
  -2.9249999999999998E-002    -4.6547603472853063E-035
  -2.9200000000000000E-002    -1.1020140878610655E-034
  -2.9150000000000002E-002    -1.5906493369499315E-034
  -2.9100000000000001E-002    -1.4469154774287563E-034
  -2.9049999999999999E-002    -2.2764451255625322E-035
  -2.8999999999999998E-002     2.1271901327917853E-034
  -2.8950000000000000E-002     4.9709457106015370E-034
  -2.8900000000000002E-002     6.8781790509436360E-034
  -2.8850000000000001E-002     6.0354547724923215E-034
  -2.8799999999999999E-002     1.1296317556345827E-034
  -2.8749999999999998E-002    -7.5356991973631400E-034
  -2.8700000000000000E-002    -1.7265939241777757E-033
  -2.8650000000000002E-002    -2.3213268090045623E-033
  -2.8600000000000000E-002    -2.0023362971498451E-033
  -2.8549999999999999E-002    -4.6255828924740309E-034
  -2.8500000000000001E-002     2.0923766085934863E-033
  -2.8450000000000000E-002     4.8181919711847153E-033
  -2.8400000000000002E-002     6.4077339502997150E-033
  -2.8350000000000000E-002     5.5955174193485073E-033
  -2.8299999999999999E-002     1.8364682716463514E-033
  -2.8250000000000001E-002    -4.1573675378463329E-033
  -2.8200000000000003E-002    -1.0371527853153023E-032
  -2.8150000000000001E-002    -1.4118336897022520E-032
  -2.8100000000000000E-002    -1.3186736540923129E-032
  -2.8049999999999999E-002    -7.0023500025198849E-033
  -2.8000000000000001E-002     2.8652194382608923E-033
  -2.7950000000000003E-002     1.3284467661350586E-032
  -2.7900000000000001E-002     2.1077363619066796E-032
  -2.7850000000000000E-002     2.4625381245459850E-032
  -2.7799999999999998E-002     2.4396851491894190E-032
  -2.7750000000000000E-002     2.1654246201223255E-032
  -2.7700000000000002E-002     1.5806858201854158E-032
  -2.7650000000000001E-002     2.3186036324277667E-033
  -2.7600000000000000E-002    -2.6232177042692985E-032
  -2.7549999999999998E-002    -7.4369647721193871E-032
  -2.7500000000000000E-002    -1.3458513768590476E-031
  -2.7450000000000002E-002    -1.7998862456295739E-031
  -2.7400000000000001E-002    -1.6617870629918400E-031
  -2.7349999999999999E-002    -4.8036306330803683E-032
  -2.7299999999999998E-002     1.8974904853470962E-031
  -2.7250000000000000E-002     4.9992327917962905E-031
  -2.7200000000000002E-002     7.5790652773777573E-031
  -2.7150000000000001E-002     7.8576417706015812E-031
  -2.7099999999999999E-002     4.2321469474832835E-031
  -2.7049999999999998E-002    -3.7032060003526109E-031
  -2.7000000000000000E-002    -1.4257452554861578E-030
  -2.6950000000000002E-002    -2.3443883595226356E-030
  -2.6900000000000000E-002    -2.5941424640003156E-030
  -2.6849999999999999E-002    -1.7235056513471448E-030
  -2.6800000000000001E-002     3.6925745356368112E-031
  -2.6749999999999999E-002     3.2315753710515648E-030
  -2.6700000000000002E-002     5.8503461205731979E-030
  -2.6650000000000000E-002     6.9242813830832155E-030
  -2.6599999999999999E-002     5.3786684572251555E-030
  -2.6550000000000001E-002     9.4853684660891436E-031
  -2.6500000000000003E-002    -5.4355354249403894E-030
  -2.6450000000000001E-002    -1.1705982644762449E-029
  -2.6400000000000000E-002    -1.5255569253125549E-029
  -2.6349999999999998E-002    -1.3924993346022516E-029
  -2.6300000000000000E-002    -7.0053968100375999E-030
  -2.6250000000000002E-002     4.2043939304975934E-030
  -2.6200000000000001E-002     1.6609041954272763E-029
  -2.6150000000000000E-002     2.6287627932040963E-029
  -2.6099999999999998E-002     2.9834898406118227E-029
  -2.6050000000000000E-002     2.5464244281051629E-029
  -2.6000000000000002E-002     1.3369317688205171E-029
  -2.5950000000000001E-002    -4.7282539194949004E-030
  -2.5899999999999999E-002    -2.6374236633254601E-029
  -2.5849999999999998E-002    -4.8745161406948186E-029
  -2.5800000000000000E-002    -6.8043392290879562E-029
  -2.5750000000000002E-002    -7.8198859274678245E-029
  -2.5700000000000001E-002    -7.0161961708219031E-029
  -2.5649999999999999E-002    -3.3591563565055964E-029
  -2.5599999999999998E-002     3.7899780360539434E-029
  -2.5550000000000000E-002     1.3876787339848277E-028
  -2.5500000000000002E-002     2.4433690126588142E-028
  -2.5450000000000000E-002     3.0982808364517389E-028
  -2.5399999999999999E-002     2.8057708201466373E-028
  -2.5349999999999998E-002     1.1450202043435959E-028
  -2.5300000000000000E-002    -1.8877168580944931E-028
  -2.5250000000000002E-002    -5.6453300970374496E-028
  -2.5200000000000000E-002    -8.8085576191632650E-028
  -2.5149999999999999E-002    -9.6919563330692508E-028
  -2.5100000000000001E-002    -6.8720039044659047E-028
  -2.5049999999999999E-002     3.5537085790624493E-030
  -2.5000000000000001E-002     9.7673233797902484E-028
  -2.4950000000000000E-002     1.9330789083785303E-027
  -2.4899999999999999E-002     2.4681780226540761E-027
  -2.4850000000000001E-002     2.2112081233165468E-027
  -2.4800000000000003E-002     9.9479897534721838E-028
  -2.4750000000000001E-002    -1.0104840538314014E-027
  -2.4700000000000000E-002    -3.2664463843891319E-027
  -2.4649999999999998E-002    -4.9832696300352868E-027
  -2.4600000000000000E-002    -5.3677829287786878E-027
  -2.4550000000000002E-002    -3.9299675113711918E-027
  -2.4500000000000001E-002    -7.3378776935558632E-028
  -2.4450000000000000E-002     3.5181115347440092E-027
  -2.4399999999999998E-002     7.6237113116865304E-027
  -2.4350000000000000E-002     1.0217983813359217E-026
  -2.4299999999999999E-002     1.0197793276768203E-026
  -2.4250000000000001E-002     7.0869902604344176E-027
  -2.4199999999999999E-002     1.2175686054941832E-027
  -2.4150000000000001E-002    -6.3179273747330291E-027
  -2.4100000000000000E-002    -1.3892769645202299E-026
  -2.4049999999999998E-002    -1.9643558796644639E-026
  -2.4000000000000000E-002    -2.1746875643457370E-026
  -2.3949999999999999E-002    -1.8665419616758624E-026
  -2.3900000000000001E-002    -9.4475804776753828E-027
  -2.3850000000000000E-002     5.8119395576001337E-027
  -2.3800000000000002E-002     2.5348331829424749E-026
  -2.3750000000000000E-002     4.5160117848091316E-026
  -2.3699999999999999E-002     5.8953724314899136E-026
  -2.3650000000000001E-002     5.9127225548553958E-026
  -2.3599999999999999E-002     3.9082855702668490E-026
  -2.3550000000000001E-002    -3.4248747046479369E-027
  -2.3500000000000000E-002    -6.2962007593007120E-026
  -2.3449999999999999E-002    -1.2476140507374466E-025
  -2.3400000000000001E-002    -1.6641080530092383E-025
  -2.3349999999999999E-002    -1.6371232157126305E-025
  -2.3300000000000001E-002    -9.9915777474804645E-026
  -2.3250000000000000E-002     2.4388600991856604E-026
  -2.3199999999999998E-002     1.8480965962789062E-025
  -2.3150000000000000E-002     3.3419704960758408E-025
  -2.3099999999999999E-002     4.1337155378839661E-025
  -2.3050000000000001E-002     3.7025344504908201E-025
  -2.3000000000000000E-002     1.8212876955721417E-025
  -2.2950000000000002E-002    -1.2703868153301894E-025
  -2.2900000000000000E-002    -4.8248536774557006E-025
  -2.2849999999999999E-002    -7.7268205421888619E-025
  -2.2800000000000001E-002    -8.8042301583622638E-025
  -2.2749999999999999E-002    -7.2297796850487462E-025
  -2.2700000000000001E-002    -2.8830460127496205E-025
  -2.2650000000000000E-002     3.4643209037317001E-025
  -2.2599999999999999E-002     1.0233519795284097E-024
  -2.2550000000000001E-002     1.5401927327434983E-024
  -2.2499999999999999E-002     1.7057283951182078E-024
  -2.2450000000000001E-002     1.3985000980739565E-024
  -2.2400000000000000E-002     6.1142509463333052E-025
  -2.2349999999999998E-002    -5.3086748780266419E-025
  -2.2300000000000000E-002    -1.7868503411104112E-024
  -2.2249999999999999E-002    -2.8413155590905678E-024
  -2.2200000000000001E-002    -3.3677193209146070E-024
  -2.2150000000000000E-002    -3.0993229741190182E-024
  -2.2100000000000002E-002    -1.9006241281465997E-024
  -2.2050000000000000E-002     1.6840547602407105E-025
  -2.1999999999999999E-002     2.8059150543851188E-024
  -2.1950000000000001E-002     5.4577183403691546E-024
  -2.1899999999999999E-002     7.3680296712045257E-024
  -2.1850000000000001E-002     7.7150219491011019E-024
  -2.1800000000000000E-002     5.8364865845652755E-024
  -2.1749999999999999E-002     1.5139448155653002E-024
  -2.1700000000000001E-002    -4.7631001410392505E-024
  -2.1649999999999999E-002    -1.1667799444275531E-023
  -2.1600000000000001E-002    -1.7158619858128079E-023
  -2.1550000000000000E-002    -1.8920163876079107E-023
  -2.1499999999999998E-002    -1.5084015269197564E-023
  -2.1450000000000000E-002    -5.0594931518600942E-024
  -2.1399999999999999E-002     9.8069997569234743E-024
  -2.1350000000000001E-002     2.6059028878143036E-023
  -2.1299999999999999E-002     3.8673686456386361E-023
  -2.1250000000000002E-002     4.2345649311301564E-023
  -2.1200000000000000E-002     3.3257448081123724E-023
  -2.1149999999999999E-002     1.0824141190647440E-023
  -2.1100000000000001E-002    -2.1227487964032006E-023
  -2.1049999999999999E-002    -5.5001206120776466E-023
  -2.1000000000000001E-002    -8.0039096400906127E-023
  -2.0950000000000000E-002    -8.6169511659321983E-023
  -2.0899999999999998E-002    -6.6888600435874867E-023
  -2.0850000000000000E-002    -2.2250092140318274E-023
  -2.0799999999999999E-002     3.9776439450569739E-023
  -2.0750000000000001E-002     1.0418178184554811E-022
  -2.0700000000000000E-002     1.5211658025891828E-022
  -2.0649999999999998E-002     1.6579069210232177E-022
  -2.0600000000000000E-002     1.3386373495021953E-022
  -2.0549999999999999E-002     5.5850899845445997E-023
  -2.0500000000000001E-002    -5.5793403399184161E-023
  -2.0449999999999999E-002    -1.7674899455828637E-022
  -2.0400000000000001E-002    -2.7517501031132794E-022
  -2.0350000000000000E-002    -3.1869056192628317E-022
  -2.0299999999999999E-002    -2.8272954119169307E-022
  -2.0250000000000001E-002    -1.5858982391604503E-022
  -2.0199999999999999E-002     4.0694553861752249E-023
  -2.0150000000000001E-002     2.7848449619624104E-022
  -2.0100000000000000E-002     4.9815988916502575E-022
  -2.0049999999999998E-002     6.3297876181488934E-022
  -2.0000000000000000E-002     6.2164232510954889E-022
  -1.9949999999999999E-002     4.2726632352893221E-022
  -1.9900000000000001E-002     5.5492591626791974E-023
  -1.9850000000000000E-002    -4.3405217425955437E-022
  -1.9799999999999998E-002    -9.2897505949823057E-022
  -1.9750000000000000E-002    -1.2822103052814252E-021
  -1.9699999999999999E-002    -1.3470433774866691E-021
  -1.9650000000000001E-002    -1.0232763326873297E-021
  -1.9599999999999999E-002    -3.0279847293167089E-022
  -1.9550000000000001E-002     7.0096079047679082E-022
  -1.9500000000000000E-002     1.7546236760442591E-021
  -1.9449999999999999E-002     2.5462102177546412E-021
  -1.9400000000000001E-002     2.7636895990202435E-021
  -1.9349999999999999E-002     2.1946022556927684E-021
  -1.9300000000000001E-002     8.1904138632240695E-022
  -1.9250000000000000E-002    -1.1365284890403326E-021
  -1.9199999999999998E-002    -3.2118121805529906E-021
  -1.9150000000000000E-002    -4.8028459710385696E-021
  -1.9099999999999999E-002    -5.3178089119594922E-021
  -1.9050000000000001E-002    -4.3625014108762789E-021
  -1.9000000000000000E-002    -1.9027848138136257E-021
  -1.8949999999999998E-002     1.6512890137763801E-021
  -1.8900000000000000E-002     5.4801753404664904E-021
  -1.8849999999999999E-002     8.5189550897928244E-021
  -1.8800000000000001E-002     9.7238450767926534E-021
  -1.8749999999999999E-002     8.3794076027490152E-021
  -1.8700000000000001E-002     4.3639781722008136E-021
  -1.8650000000000000E-002    -1.7086752440773937E-021
  -1.8599999999999998E-002    -8.5297833911583525E-021
  -1.8550000000000001E-002    -1.4334410313726074E-020
  -1.8499999999999999E-002    -1.7304326901771321E-020
  -1.8450000000000001E-002    -1.6053521647794209E-020
  -1.8400000000000000E-002    -1.0082998655552889E-020
  -1.8349999999999998E-002    -8.2883133783806376E-023
  -1.8300000000000000E-002     1.2021596820749050E-020
  -1.8249999999999999E-002     2.3339013835034931E-020
  -1.8200000000000001E-002     3.0588785663991406E-020
  -1.8149999999999999E-002     3.0902717304275505E-020
  -1.8100000000000002E-002     2.2692620982239202E-020
  -1.8050000000000000E-002     6.3706450466112456E-021
  -1.7999999999999999E-002    -1.5307097001132385E-020
  -1.7950000000000001E-002    -3.7462399469768303E-020
  -1.7899999999999999E-002    -5.3965845877301354E-020
  -1.7850000000000001E-002    -5.8878200308559175E-020
  -1.7800000000000000E-002    -4.8195100581214145E-020
  -1.7749999999999998E-002    -2.1462308023755643E-020
  -1.7700000000000000E-002     1.7251963594477527E-020
  -1.7649999999999999E-002     5.9484274808548064E-020
  -1.7600000000000001E-002     9.3841339956492730E-020
  -1.7550000000000000E-002     1.0868768625991922E-019
  -1.7499999999999998E-002     9.5529267667256720E-020
  -1.7450000000000000E-002     5.2220429621251939E-020
  -1.7399999999999999E-002    -1.5027787332656149E-020
  -1.7350000000000001E-002    -9.1716865727374555E-020
  -1.7299999999999999E-002    -1.5763004711070318E-019
  -1.7250000000000001E-002    -1.9163575776281817E-019
  -1.7200000000000000E-002    -1.7771474027677093E-019
  -1.7149999999999999E-002    -1.1062912809295148E-019
  -1.7100000000000001E-002     5.3214469916803037E-022
  -1.7049999999999999E-002     1.3236743025336673E-019
  -1.7000000000000001E-002     2.5134744409505745E-019
  -1.6950000000000000E-002     3.2164239667905902E-019
  -1.6899999999999998E-002     3.1490941015478929E-019
  -1.6850000000000000E-002     2.1953670441918379E-019
  -1.6799999999999999E-002     4.6637990958935767E-020
  -1.6750000000000001E-002    -1.6936400866034622E-019
  -1.6700000000000000E-002    -3.7650474237784400E-019
  -1.6649999999999998E-002    -5.1671141573389648E-019
  -1.6600000000000000E-002    -5.4059775133677861E-019
  -1.6549999999999999E-002    -4.2212910703314003E-019
  -1.6500000000000001E-002    -1.6926323548409106E-019
  -1.6449999999999999E-002     1.7278049928474125E-019
  -1.6400000000000001E-002     5.2752518972200779E-019
  -1.6350000000000000E-002     8.0233061194163321E-019
  -1.6299999999999999E-002     9.1009697039528243E-019
  -1.6250000000000001E-002     7.9308557918611824E-019
  -1.6199999999999999E-002     4.4313037186488339E-019
  -1.6150000000000001E-002    -8.7540135197170793E-020
  -1.6100000000000000E-002    -6.8932253118164094E-019
  -1.6049999999999998E-002    -1.2138717313116607E-018
  -1.6000000000000000E-002    -1.5064565621775533E-018
  -1.5949999999999999E-002    -1.4461844164046355E-018
  -1.5900000000000001E-002    -9.8493084836673716E-019
  -1.5850000000000000E-002    -1.7419662108628590E-019
  -1.5799999999999998E-002     8.2991453081227098E-019
  -1.5750000000000000E-002     1.7894768168489989E-018
  -1.5699999999999999E-002     2.4346416926778169E-018
  -1.5650000000000001E-002     2.5321842867548888E-018
  -1.5599999999999999E-002     1.9570853622214034E-018
  -1.5550000000000001E-002     7.4740671181163391E-019
  -1.5500000000000000E-002    -8.7647065812341026E-019
  -1.5449999999999998E-002    -2.5405619230527126E-018
  -1.5400000000000000E-002    -3.7946556299092869E-018
  -1.5349999999999999E-002    -4.2249755037417274E-018
  -1.5300000000000001E-002    -3.5760288208046276E-018
  -1.5250000000000000E-002    -1.8482852441526759E-018
  -1.5199999999999998E-002     6.6024801135033199E-019
  -1.5150000000000000E-002     3.3894207243856588E-018
  -1.5099999999999999E-002     5.6312204603515533E-018
  -1.5050000000000001E-002     6.7025156835732194E-018
  -1.4999999999999999E-002     6.1362551221850377E-018
  -1.4949999999999998E-002     3.8403953576085095E-018
  -1.4900000000000000E-002     1.7619288845070406E-019
  -1.4849999999999999E-002    -4.0762202066447729E-018
  -1.4800000000000001E-002    -7.8699433806452445E-018
  -1.4749999999999999E-002    -1.0134628522759005E-017
  -1.4700000000000001E-002    -1.0057037389594430E-017
  -1.4650000000000000E-002    -7.3290121130283314E-018
  -1.4599999999999998E-002    -2.2941404482996165E-018
  -1.4550000000000000E-002     4.0566504765371178E-018
  -1.4499999999999999E-002     1.0256897885888719E-017
  -1.4450000000000001E-002     1.4679593728375447E-017
  -1.4400000000000000E-002     1.5932793707756304E-017
  -1.4349999999999998E-002     1.3246452262145930E-017
  -1.4300000000000000E-002     6.7529913787690869E-018
  -1.4249999999999999E-002    -2.4217092959285178E-018
  -1.4200000000000001E-002    -1.2304725200187035E-017
  -1.4149999999999999E-002    -2.0456457861954898E-017
  -1.4099999999999998E-002    -2.4524031179820478E-017
  -1.4050000000000000E-002    -2.2855209803334317E-017
  -1.3999999999999999E-002    -1.5027756769494154E-017
  -1.3950000000000001E-002    -2.1464690683778545E-018
  -1.3899999999999999E-002     1.3205976400272363E-017
  -1.3850000000000001E-002     2.7409245273123649E-017
  -1.3800000000000000E-002     3.6587744274837252E-017
  -1.3749999999999998E-002     3.7587351378625909E-017
  -1.3700000000000000E-002     2.8920239213408367E-017
  -1.3649999999999999E-002     1.1419503235035914E-017
  -1.3600000000000001E-002    -1.1621618393564968E-017
  -1.3550000000000000E-002    -3.4949320439142145E-017
  -1.3499999999999998E-002    -5.2455789296120282E-017
  -1.3450000000000000E-002    -5.8687235524314555E-017
  -1.3399999999999999E-002    -5.0402419912769510E-017
  -1.3350000000000001E-002    -2.7761104180060913E-017
  -1.3299999999999999E-002     5.2391604495473044E-018
  -1.3249999999999998E-002     4.1305678583861001E-017
  -1.3200000000000000E-002     7.1359360652205822E-017
  -1.3149999999999998E-002     8.6725528480239385E-017
  -1.3100000000000001E-002     8.1496355138935103E-017
  -1.3049999999999999E-002     5.4443984216790988E-017
  -1.3000000000000001E-002     9.9130322651403620E-018
  -1.2950000000000000E-002    -4.2664318191826427E-017
  -1.2899999999999998E-002    -9.0652470730237252E-017
  -1.2850000000000000E-002    -1.2114400247476631E-016
  -1.2799999999999999E-002    -1.2427367257191027E-016