  -4.0000000000000001E-002     0.0000000000000000     
  -3.9949999999999999E-002     0.0000000000000000     
  -3.9899999999999998E-002     0.0000000000000000     
  -3.9850000000000003E-002     0.0000000000000000     
  -3.9800000000000002E-002     0.0000000000000000     
  -3.9750000000000001E-002     0.0000000000000000     
  -3.9699999999999999E-002     0.0000000000000000     
  -3.9649999999999998E-002     0.0000000000000000     
  -3.9600000000000003E-002     0.0000000000000000     
  -3.9550000000000002E-002     0.0000000000000000     
  -3.9500000000000000E-002     0.0000000000000000     
  -3.9449999999999999E-002     0.0000000000000000     
  -3.9399999999999998E-002     0.0000000000000000     
  -3.9350000000000003E-002     0.0000000000000000     
  -3.9300000000000002E-002     0.0000000000000000     
  -3.9250000000000000E-002     0.0000000000000000     
  -3.9199999999999999E-002     0.0000000000000000     
  -3.9150000000000004E-002     0.0000000000000000     
  -3.9100000000000003E-002     0.0000000000000000     
  -3.9050000000000001E-002     0.0000000000000000     
  -3.9000000000000000E-002     0.0000000000000000     
  -3.8949999999999999E-002     0.0000000000000000     
  -3.8900000000000004E-002     0.0000000000000000     
  -3.8850000000000003E-002     0.0000000000000000     
  -3.8800000000000001E-002     0.0000000000000000     
  -3.8750000000000000E-002     0.0000000000000000     
  -3.8699999999999998E-002     0.0000000000000000     
  -3.8650000000000004E-002     0.0000000000000000     
  -3.8600000000000002E-002     0.0000000000000000     
  -3.8550000000000001E-002     0.0000000000000000     
  -3.8500000000000000E-002     0.0000000000000000     
  -3.8449999999999998E-002     0.0000000000000000     
  -3.8400000000000004E-002     0.0000000000000000     
  -3.8350000000000002E-002     0.0000000000000000     
  -3.8300000000000001E-002     0.0000000000000000     
  -3.8249999999999999E-002     0.0000000000000000     
  -3.8199999999999998E-002     0.0000000000000000     
  -3.8150000000000003E-002     0.0000000000000000     
  -3.8100000000000002E-002     0.0000000000000000     
  -3.8050000000000000E-002     0.0000000000000000     
  -3.7999999999999999E-002     0.0000000000000000     
  -3.7949999999999998E-002     0.0000000000000000     
  -3.7900000000000003E-002     0.0000000000000000     
  -3.7850000000000002E-002     0.0000000000000000     
  -3.7800000000000000E-002     0.0000000000000000     
  -3.7749999999999999E-002     0.0000000000000000     
  -3.7699999999999997E-002     0.0000000000000000     
  -3.7650000000000003E-002     0.0000000000000000     
  -3.7600000000000001E-002     0.0000000000000000     
  -3.7550000000000000E-002     0.0000000000000000     
  -3.7499999999999999E-002     0.0000000000000000     
  -3.7449999999999997E-002     0.0000000000000000     
  -3.7400000000000003E-002     0.0000000000000000     
  -3.7350000000000001E-002     0.0000000000000000     
  -3.7300000000000000E-002     0.0000000000000000     
  -3.7249999999999998E-002     0.0000000000000000     
  -3.7200000000000004E-002     0.0000000000000000     
  -3.7150000000000002E-002     0.0000000000000000     
  -3.7100000000000001E-002     0.0000000000000000     
  -3.7050000000000000E-002     0.0000000000000000     
  -3.6999999999999998E-002     0.0000000000000000     
  -3.6950000000000004E-002     0.0000000000000000     
  -3.6900000000000002E-002     0.0000000000000000     
  -3.6850000000000001E-002     0.0000000000000000     
  -3.6799999999999999E-002     0.0000000000000000     
  -3.6749999999999998E-002     0.0000000000000000     
  -3.6700000000000003E-002     0.0000000000000000     
  -3.6650000000000002E-002     0.0000000000000000     
  -3.6600000000000001E-002     0.0000000000000000     
  -3.6549999999999999E-002     0.0000000000000000     
  -3.6499999999999998E-002     0.0000000000000000     
  -3.6450000000000003E-002     0.0000000000000000     
  -3.6400000000000002E-002     0.0000000000000000     
  -3.6350000000000000E-002     0.0000000000000000     
  -3.6299999999999999E-002     0.0000000000000000     
  -3.6249999999999998E-002     0.0000000000000000     
  -3.6200000000000003E-002     0.0000000000000000     
  -3.6150000000000002E-002     0.0000000000000000     
  -3.6100000000000000E-002     0.0000000000000000     
  -3.6049999999999999E-002     0.0000000000000000     
  -3.6000000000000004E-002     0.0000000000000000     
  -3.5950000000000003E-002     0.0000000000000000     
  -3.5900000000000001E-002     0.0000000000000000     
  -3.5850000000000000E-002     0.0000000000000000     
  -3.5799999999999998E-002     0.0000000000000000     
  -3.5750000000000004E-002     0.0000000000000000     
  -3.5700000000000003E-002     0.0000000000000000     
  -3.5650000000000001E-002     0.0000000000000000     
  -3.5600000000000000E-002     0.0000000000000000     
  -3.5549999999999998E-002     0.0000000000000000     
  -3.5500000000000004E-002     0.0000000000000000     
  -3.5450000000000002E-002     0.0000000000000000     
  -3.5400000000000001E-002     0.0000000000000000     
  -3.5349999999999999E-002     0.0000000000000000     
  -3.5299999999999998E-002     0.0000000000000000     
  -3.5250000000000004E-002     0.0000000000000000     
  -3.5200000000000002E-002     0.0000000000000000     
  -3.5150000000000001E-002     0.0000000000000000     
  -3.5099999999999999E-002     0.0000000000000000     
  -3.5049999999999998E-002     0.0000000000000000     
  -3.5000000000000003E-002     0.0000000000000000     
  -3.4950000000000002E-002     0.0000000000000000     
  -3.4900000000000000E-002     0.0000000000000000     
  -3.4849999999999999E-002     0.0000000000000000     
  -3.4799999999999998E-002     0.0000000000000000     
  -3.4750000000000003E-002     0.0000000000000000     
  -3.4700000000000002E-002     0.0000000000000000     
  -3.4650000000000000E-002     0.0000000000000000     
  -3.4599999999999999E-002     0.0000000000000000     
  -3.4549999999999997E-002     0.0000000000000000     
  -3.4500000000000003E-002     0.0000000000000000     
  -3.4450000000000001E-002     0.0000000000000000     
  -3.4400000000000000E-002     0.0000000000000000     
  -3.4349999999999999E-002     0.0000000000000000     
  -3.4299999999999997E-002     0.0000000000000000     
  -3.4250000000000003E-002     0.0000000000000000     
  -3.4200000000000001E-002     0.0000000000000000     
  -3.4150000000000000E-002     0.0000000000000000     
  -3.4099999999999998E-002     0.0000000000000000     
  -3.4049999999999997E-002     0.0000000000000000     
  -3.4000000000000002E-002     0.0000000000000000     
  -3.3950000000000001E-002     0.0000000000000000     
  -3.3900000000000000E-002     0.0000000000000000     
  -3.3849999999999998E-002     0.0000000000000000     
  -3.3799999999999997E-002     0.0000000000000000     
  -3.3750000000000002E-002     0.0000000000000000     
  -3.3700000000000001E-002     0.0000000000000000     
  -3.3649999999999999E-002     0.0000000000000000     
  -3.3599999999999998E-002     0.0000000000000000     
  -3.3550000000000003E-002     0.0000000000000000     
  -3.3500000000000002E-002     0.0000000000000000     
  -3.3450000000000001E-002     0.0000000000000000     
  -3.3399999999999999E-002     0.0000000000000000     
  -3.3349999999999998E-002     0.0000000000000000     
  -3.3300000000000003E-002     0.0000000000000000     
  -3.3250000000000002E-002     0.0000000000000000     
  -3.3200000000000000E-002     0.0000000000000000     
  -3.3149999999999999E-002     0.0000000000000000     
  -3.3099999999999997E-002     0.0000000000000000     
  -3.3050000000000003E-002     0.0000000000000000     
  -3.3000000000000002E-002     0.0000000000000000     
  -3.2950000000000000E-002     0.0000000000000000     
  -3.2899999999999999E-002     0.0000000000000000     
  -3.2850000000000004E-002     0.0000000000000000     
  -3.2800000000000003E-002     0.0000000000000000     
  -3.2750000000000001E-002     0.0000000000000000     
  -3.2700000000000000E-002     0.0000000000000000     
  -3.2649999999999998E-002     0.0000000000000000     
  -3.2600000000000004E-002     0.0000000000000000     
  -3.2550000000000003E-002     0.0000000000000000     
  -3.2500000000000001E-002     0.0000000000000000     
  -3.2450000000000000E-002     0.0000000000000000     
  -3.2399999999999998E-002     0.0000000000000000     
  -3.2350000000000004E-002     0.0000000000000000     
  -3.2300000000000002E-002     0.0000000000000000     
  -3.2250000000000001E-002     0.0000000000000000     
  -3.2199999999999999E-002     0.0000000000000000     
  -3.2149999999999998E-002     0.0000000000000000     
  -3.2100000000000004E-002     0.0000000000000000     
  -3.2050000000000002E-002     0.0000000000000000     
  -3.2000000000000001E-002     0.0000000000000000     
  -3.1949999999999999E-002     0.0000000000000000     
  -3.1899999999999998E-002     0.0000000000000000     
  -3.1850000000000003E-002     0.0000000000000000     
  -3.1800000000000002E-002     0.0000000000000000     
  -3.1750000000000000E-002     0.0000000000000000     
  -3.1699999999999999E-002     0.0000000000000000     
  -3.1649999999999998E-002     0.0000000000000000     
  -3.1600000000000003E-002     0.0000000000000000     
  -3.1550000000000002E-002     0.0000000000000000     
  -3.1500000000000000E-002     0.0000000000000000     
  -3.1449999999999999E-002     0.0000000000000000     
  -3.1399999999999997E-002     0.0000000000000000     
  -3.1350000000000003E-002     0.0000000000000000     
  -3.1300000000000001E-002     0.0000000000000000     
  -3.1250000000000000E-002     0.0000000000000000     
  -3.1199999999999999E-002     0.0000000000000000     
  -3.1150000000000001E-002     0.0000000000000000     
  -3.1100000000000003E-002     0.0000000000000000     
  -3.1050000000000001E-002     0.0000000000000000     
  -3.1000000000000000E-002     0.0000000000000000     
  -3.0949999999999998E-002     0.0000000000000000     
  -3.0900000000000000E-002     0.0000000000000000     
  -3.0850000000000002E-002     0.0000000000000000     
  -3.0800000000000001E-002     0.0000000000000000     
  -3.0750000000000000E-002     0.0000000000000000     
  -3.0699999999999998E-002     0.0000000000000000     
  -3.0650000000000000E-002     0.0000000000000000     
  -3.0600000000000002E-002     0.0000000000000000     
  -3.0550000000000001E-002     0.0000000000000000     
  -3.0499999999999999E-002     0.0000000000000000     
  -3.0449999999999998E-002     0.0000000000000000     
  -3.0400000000000000E-002     0.0000000000000000     
  -3.0350000000000002E-002     0.0000000000000000     
  -3.0300000000000001E-002     0.0000000000000000     
  -3.0249999999999999E-002     0.0000000000000000     
  -3.0200000000000001E-002     0.0000000000000000     
  -3.0150000000000000E-002     0.0000000000000000     
  -3.0100000000000002E-002     0.0000000000000000     
  -3.0050000000000000E-002     0.0000000000000000     
  -2.9999999999999999E-002     0.0000000000000000     
  -2.9950000000000001E-002     0.0000000000000000     
  -2.9899999999999999E-002     0.0000000000000000     
  -2.9850000000000002E-002     0.0000000000000000     
  -2.9800000000000000E-002     0.0000000000000000     
  -2.9749999999999999E-002     0.0000000000000000     
  -2.9700000000000001E-002     0.0000000000000000     
  -2.9650000000000003E-002     0.0000000000000000     
  -2.9600000000000001E-002     0.0000000000000000     
  -2.9550000000000000E-002     0.0000000000000000     
  -2.9499999999999998E-002     0.0000000000000000     
  -2.9450000000000000E-002     0.0000000000000000     
  -2.9400000000000003E-002     0.0000000000000000     
  -2.9350000000000001E-002     0.0000000000000000     
  -2.9300000000000000E-002     0.0000000000000000     
  -2.9249999999999998E-002     0.0000000000000000     
  -2.9200000000000000E-002     0.0000000000000000     
  -2.9150000000000002E-002     0.0000000000000000     
  -2.9100000000000001E-002     0.0000000000000000     
  -2.9049999999999999E-002     0.0000000000000000     
  -2.8999999999999998E-002     0.0000000000000000     
  -2.8950000000000000E-002     0.0000000000000000     
  -2.8900000000000002E-002     0.0000000000000000     
  -2.8850000000000001E-002     0.0000000000000000     
  -2.8799999999999999E-002     0.0000000000000000     
  -2.8749999999999998E-002     0.0000000000000000     
  -2.8700000000000000E-002     0.0000000000000000     
  -2.8650000000000002E-002     0.0000000000000000     
  -2.8600000000000000E-002     0.0000000000000000     
  -2.8549999999999999E-002     0.0000000000000000     
  -2.8500000000000001E-002     0.0000000000000000     
  -2.8450000000000000E-002     0.0000000000000000     
  -2.8400000000000002E-002     0.0000000000000000     
  -2.8350000000000000E-002     0.0000000000000000     
  -2.8299999999999999E-002     0.0000000000000000     
  -2.8250000000000001E-002     0.0000000000000000     
  -2.8200000000000003E-002     0.0000000000000000     
  -2.8150000000000001E-002     0.0000000000000000     
  -2.8100000000000000E-002     0.0000000000000000     
  -2.8049999999999999E-002     0.0000000000000000     
  -2.8000000000000001E-002     0.0000000000000000     
  -2.7950000000000003E-002     0.0000000000000000     
  -2.7900000000000001E-002     0.0000000000000000     
  -2.7850000000000000E-002     0.0000000000000000     
  -2.7799999999999998E-002     0.0000000000000000     
  -2.7750000000000000E-002    -7.1423485680522372E-040
  -2.7700000000000002E-002    -1.4995713709501366E-039
  -2.7650000000000001E-002    -9.7995884912511298E-040
  -2.7600000000000000E-002     7.4005091043372443E-040
  -2.7549999999999998E-002     3.9319812649972980E-039
  -2.7500000000000000E-002     7.0254744922108836E-039
  -2.7450000000000002E-002     7.4125052616559016E-039
  -2.7400000000000001E-002     3.3262119878155640E-039
  -2.7349999999999999E-002    -7.2366969371966777E-039
  -2.7299999999999998E-002    -2.0412024951962605E-038
  -2.7250000000000000E-002    -3.0142630109489723E-038
  -2.7200000000000002E-002    -2.7884129580780349E-038
  -2.7150000000000001E-002    -1.1019989068697313E-038
  -2.7099999999999999E-002     1.9039811355570760E-038
  -2.7049999999999998E-002     5.6641441930113101E-038
  -2.7000000000000000E-002     6.7598329809103976E-038
  -2.6950000000000002E-002     5.0232761186888014E-038
  -2.6900000000000000E-002     5.8702873640831604E-039
  -2.6849999999999999E-002    -3.7691532347705898E-038
  -2.6800000000000001E-002    -5.8709013225048921E-038
  -2.6749999999999999E-002    -6.0145544226401444E-038
  -2.6700000000000002E-002    -4.1410773867186083E-038
  -2.6650000000000000E-002    -2.0219056956014820E-038
  -2.6599999999999999E-002    -7.6672930132909779E-039
  -2.6550000000000001E-002    -2.1901945968219750E-040
  -2.6500000000000003E-002     2.5548782588149059E-038
  -2.6450000000000001E-002     9.6430680818859114E-038
  -2.6400000000000000E-002     2.2136539727938605E-037
  -2.6349999999999998E-002     3.4992227772267339E-037
  -2.6300000000000000E-002     3.9273706522389079E-037
  -2.6250000000000002E-002     2.3106526816427936E-037
  -2.6200000000000001E-002    -2.1029415295788346E-037
  -2.6150000000000000E-002    -8.7996995113885662E-037
  -2.6099999999999998E-002    -1.5446917279959790E-036
  -2.6050000000000000E-002    -1.8162154966102562E-036
  -2.6000000000000002E-002    -1.2877776775500502E-036
  -2.5950000000000001E-002     2.3907516914861760E-037
  -2.5899999999999999E-002     2.5232677599101694E-036
  -2.5849999999999998E-002     4.7781454879871704E-036
  -2.5800000000000000E-002     5.8184423611651019E-036
  -2.5750000000000002E-002     4.4975285505189993E-036
  -2.5700000000000001E-002     3.3204918800165289E-037
  -2.5649999999999999E-002    -5.9397398899534047E-036
  -2.5599999999999998E-002    -1.2196180391039885E-035
  -2.5550000000000000E-002    -1.5419967372484236E-035
  -2.5500000000000002E-002    -1.2843027185114148E-035
  -2.5450000000000000E-002    -3.4090685018353433E-036
  -2.5399999999999999E-002     1.1081015874132286E-035
  -2.5349999999999998E-002     2.5838207381933362E-035
  -2.5300000000000000E-002     3.4378583743363882E-035
  -2.5250000000000002E-002     3.1044743207634330E-035
  -2.5200000000000000E-002     1.3862451552953255E-035
  -2.5149999999999999E-002    -1.3596996564677617E-035
  -2.5100000000000001E-002    -4.2532697859577171E-035
  -2.5049999999999999E-002    -6.1766799686168901E-035
  -2.5000000000000001E-002    -6.2250286336307195E-035
  -2.4950000000000000E-002    -4.1261501185023270E-035
  -2.4899999999999999E-002    -4.0939538089804403E-036
  -2.4850000000000001E-002     3.8002115142464250E-035
  -2.4800000000000003E-002     7.2920768634034931E-035
  -2.4750000000000001E-002     9.3146343113827011E-035
  -2.4700000000000000E-002     9.8056693786229918E-035
  -2.4649999999999998E-002     9.0928178005493127E-035
  -2.4600000000000000E-002     7.1802040649799488E-035
  -2.4550000000000002E-002     3.1147020958748580E-035
  -2.4500000000000001E-002    -4.8977799367279192E-035
  -2.4450000000000000E-002    -1.8197552589027943E-034
  -2.4399999999999998E-002    -3.5462225479455447E-034
  -2.4350000000000000E-002    -5.0734855777575081E-034
  -2.4299999999999999E-002    -5.3408733915510280E-034
  -2.4250000000000001E-002    -3.1586912743879327E-034
  -2.4199999999999999E-002     2.1196319082877138E-034
  -2.4150000000000001E-002     9.8122053855570349E-034
  -2.4100000000000000E-002     1.7434230596196918E-033
  -2.4049999999999998E-002     2.1003393432058233E-033
  -2.4000000000000000E-002     1.6379318674954776E-033
  -2.3949999999999999E-002     1.4192191940576637E-034
  -2.3900000000000001E-002    -2.1841086898493019E-033
  -2.3850000000000000E-002    -4.6163871080107590E-033
  -2.3800000000000002E-002    -6.0335945353678355E-033
  -2.3750000000000000E-002    -5.3006840345152786E-033
  -2.3699999999999999E-002    -1.8266403140175144E-033
  -2.3650000000000001E-002     3.9181967953848233E-033
  -2.3599999999999999E-002     1.0203737723703463E-032
  -2.3550000000000001E-002     1.4382338775266361E-032
  -2.3500000000000000E-002     1.3800971234957779E-032
  -2.3449999999999999E-002     7.0374246999241149E-033
  -2.3400000000000001E-002    -5.0297121298788375E-033
  -2.3349999999999999E-002    -1.8884995914359973E-032
  -2.3300000000000001E-002    -2.9159647688360272E-032
  -2.3250000000000000E-002    -3.0491410880032255E-032
  -2.3199999999999998E-002    -1.9886796722220217E-032
  -2.3150000000000000E-002     1.3820035778482176E-033
  -2.3099999999999999E-002     2.7333858744729725E-032
  -2.3050000000000001E-002     4.8817403216630405E-032
  -2.3000000000000000E-002     5.6733542456123671E-032
  -2.2950000000000002E-002     4.5782178612292945E-032
  -2.2900000000000000E-002     1.7111527317511296E-032
  -2.2849999999999999E-002    -2.1489762197932558E-032
  -2.2800000000000001E-002    -5.8215336818282490E-032
  -2.2749999999999999E-002    -8.1679348970629239E-032
  -2.2700000000000001E-002    -8.5123795648944034E-032
  -2.2650000000000000E-002    -6.8266999991122064E-032
  -2.2599999999999999E-002    -3.5798719304986300E-032
  -2.2550000000000001E-002     6.5221860117645216E-033
  -2.2499999999999999E-002     5.5446464931583172E-032
  -2.2450000000000001E-002     1.1037324609723868E-031
  -2.2400000000000000E-002     1.6860539815538994E-031
  -2.2349999999999998E-002     2.1764493526885515E-031
  -2.2300000000000000E-002     2.2990966741469917E-031
  -2.2249999999999999E-002     1.6653614029831072E-031
  -2.2200000000000001E-002    -5.7905745329256323E-033
  -2.2150000000000000E-002    -2.8782419975301222E-031
  -2.2100000000000002E-002    -6.2185409670650493E-031
  -2.2050000000000000E-002    -8.8387844332216113E-031
  -2.1999999999999999E-002    -9.0904627062851386E-031
  -2.1950000000000001E-002    -5.5408602008938299E-031
  -2.1899999999999999E-002     2.1846573771039313E-031
  -2.1850000000000001E-002     1.2683374370301498E-030
  -2.1800000000000000E-002     2.2606396859281178E-030
  -2.1749999999999999E-002     2.7365133950557584E-030
  -2.1700000000000001E-002     2.2727191560706391E-030
  -2.1649999999999999E-002     6.8816065571242289E-031
  -2.1600000000000001E-002    -1.7829521456886709E-030
  -2.1550000000000000E-002    -4.4436875069929256E-030
  -2.1499999999999998E-002    -6.2767293269793908E-030
  -2.1450000000000000E-002    -6.2727419201973135E-030
  -2.1399999999999999E-002    -3.8548475207425904E-030
  -2.1350000000000001E-002     7.5942068967865142E-031
  -2.1299999999999999E-002     6.4314946685492505E-030
  -2.1250000000000002E-002     1.1322317678013625E-029
  -2.1200000000000000E-002     1.3446302932388586E-029
  -2.1149999999999999E-002     1.1398325193168116E-029
  -2.1100000000000001E-002     4.9889800511793409E-030
  -2.1049999999999999E-002    -4.4823325919529467E-030
  -2.1000000000000001E-002    -1.4473921082005172E-029
  -2.0950000000000000E-002    -2.1926662869846095E-029
  -2.0899999999999998E-002    -2.4222759240961076E-029
  -2.0850000000000000E-002    -2.0021645711884881E-029
  -2.0799999999999999E-002    -9.6605818049770164E-030
  -2.0750000000000001E-002     4.9972595132606985E-030
  -2.0700000000000000E-002     2.1125599930308404E-029
  -2.0649999999999998E-002     3.5579905349095522E-029
  -2.0600000000000000E-002     4.5299159604115809E-029
  -2.0549999999999999E-002     4.7363913966047172E-029
  -2.0500000000000001E-002     3.8951385046211382E-029
  -2.0449999999999999E-002     1.7683911013854027E-029
  -2.0400000000000001E-002    -1.7185851810240875E-029
  -2.0350000000000000E-002    -6.2765930492745095E-029
  -2.0299999999999999E-002    -1.1044571498700153E-028
  -2.0250000000000001E-002    -1.4516843196744094E-028
  -2.0199999999999999E-002    -1.4760967733853657E-028
  -2.0150000000000001E-002    -1.0006632080943892E-028
  -2.0100000000000000E-002     4.7636819204477366E-030
  -2.0049999999999998E-002     1.5492306133697848E-028
  -2.0000000000000000E-002     3.1453015119959038E-028
  -1.9949999999999999E-002     4.2751740030588790E-028
  -1.9900000000000001E-002     4.3183365933452656E-028
  -1.9850000000000000E-002     2.8218082123738493E-028
  -1.9799999999999998E-002    -2.5228764479594815E-029
  -1.9750000000000000E-002    -4.3565497350795602E-028
  -1.9699999999999999E-002    -8.3631745838332261E-028
  -1.9650000000000001E-002    -1.0799186336643850E-027
  -1.9599999999999999E-002    -1.0288994371467874E-027
  -1.9550000000000001E-002    -6.0909413653966599E-028
  -1.9500000000000000E-002     1.4525803222308243E-028
  -1.9449999999999999E-002     1.0742538842194179E-027
  -1.9400000000000001E-002     1.9157024395045156E-027
  -1.9349999999999999E-002     2.3695753788521115E-027
  -1.9300000000000001E-002     2.1891591992247719E-027
  -1.9250000000000000E-002     1.2726778067323043E-027
  -1.9199999999999998E-002    -2.7481270835070442E-028
  -1.9150000000000000E-002    -2.1332917077171560E-027
  -1.9099999999999999E-002    -3.8226382787022705E-027
  -1.9050000000000001E-002    -4.8112757202274059E-027
  -1.9000000000000000E-002    -4.6535872259524637E-027
  -1.8949999999999998E-002    -3.1232028644878932E-027
  -1.8900000000000000E-002    -3.1069722425655782E-028
  -1.8849999999999999E-002     3.3372649625782078E-027
  -1.8800000000000001E-002     7.0497672520331102E-027
  -1.8749999999999999E-002     9.8383512523652366E-027
  -1.8700000000000001E-002     1.0676429814772499E-026
  -1.8650000000000000E-002     8.7418322449120607E-027
  -1.8599999999999998E-002     3.6975559574943000E-027
  -1.8550000000000001E-002    -4.0402910460150760E-027
  -1.8499999999999999E-002    -1.3130522149435036E-026
  -1.8450000000000001E-002    -2.1336708498394770E-026
  -1.8400000000000000E-002    -2.5855934015185557E-026
  -1.8349999999999998E-002    -2.3983507461589111E-026
  -1.8300000000000000E-002    -1.4038030497374523E-026
  -1.8249999999999999E-002     3.6719788966069715E-027
  -1.8200000000000001E-002     2.6180078230150843E-026
  -1.8149999999999999E-002     4.7867854112085482E-026
  -1.8100000000000002E-002     6.1414756650573214E-026
  -1.8050000000000000E-002     5.9703402476551441E-026
  -1.7999999999999999E-002     3.8329622428342978E-026
  -1.7950000000000001E-002    -1.9882813201964167E-027
  -1.7899999999999999E-002    -5.4007228422090174E-026
  -1.7850000000000001E-002    -1.0438735592516913E-025
  -1.7800000000000000E-002    -1.3635498507190995E-025
  -1.7749999999999998E-002    -1.3431414826287604E-025
  -1.7700000000000000E-002    -8.9346795683845322E-026
  -1.7649999999999999E-002    -3.9509640328533774E-027
  -1.7600000000000001E-002     1.0577886840485049E-025
  -1.7550000000000000E-002     2.1187727521967320E-025
  -1.7499999999999998E-002     2.8047882556188354E-025
  -1.7450000000000000E-002     2.8104546706003212E-025
  -1.7399999999999999E-002     1.9660908273846905E-025
  -1.7350000000000001E-002     3.2038626212381982E-026
  -1.7299999999999999E-002    -1.8259019382614266E-025
  -1.7250000000000001E-002    -3.9546365829387205E-025
  -1.7200000000000000E-002    -5.4357925679617337E-025
  -1.7149999999999999E-002    -5.6861817021487357E-025
  -1.7100000000000001E-002    -4.3462283999335014E-025
  -1.7049999999999999E-002    -1.4293172630458590E-025
  -1.7000000000000001E-002     2.6015993767607166E-025
  -1.6950000000000000E-002     6.8640278127823490E-025
  -1.6899999999999998E-002     1.0205477380664455E-024
  -1.6850000000000000E-002     1.1458307706756728E-024
  -1.6799999999999999E-002     9.7569630689939790E-025
  -1.6750000000000001E-002     4.8498148733475920E-025
  -1.6700000000000000E-002    -2.6775362466654058E-025
  -1.6649999999999998E-002    -1.1350239391703324E-024
  -1.6600000000000000E-002    -1.8984966615996358E-024
  -1.6549999999999999E-002    -2.3120143088193618E-024
  -1.6500000000000001E-002    -2.1647285929079974E-024
  -1.6449999999999999E-002    -1.3520680834586959E-024
  -1.6400000000000001E-002     6.4100731953969870E-026
  -1.6350000000000000E-002     1.8275552269512729E-024
  -1.6299999999999999E-002     3.5103883537749598E-024
  -1.6250000000000001E-002     4.5944351824851950E-024
  -1.6199999999999999E-002     4.6034165351615683E-024
  -1.6150000000000001E-002     3.2588947252636903E-024
  -1.6100000000000000E-002     6.1754832584283840E-025
  -1.6049999999999998E-002    -2.8588996856336696E-024
  -1.6000000000000000E-002    -6.3413446014722369E-024
  -1.5949999999999999E-002    -8.7946685373678502E-024
  -1.5900000000000001E-002    -9.2430693967123582E-024
  -1.5850000000000000E-002    -7.0811917442948606E-024
  -1.5799999999999998E-002    -2.3442871159065346E-024
  -1.5750000000000000E-002     4.1563022606822047E-024
  -1.5699999999999999E-002     1.0904247165976186E-023
  -1.5650000000000001E-002     1.5978373936953679E-023
  -1.5599999999999999E-002     1.7537677242852880E-023
  -1.5550000000000001E-002     1.4381590205761137E-023
  -1.5500000000000000E-002     6.4320784405528071E-024
  -1.5449999999999998E-002    -5.0201596584558422E-024
  -1.5400000000000000E-002    -1.7420949127227903E-023
  -1.5349999999999999E-002    -2.7441484505249036E-023
  -1.5300000000000001E-002    -3.1777461533254490E-023
  -1.5250000000000000E-002    -2.8085008725154554E-023
  -1.5199999999999998E-002    -1.5814582699978613E-023
  -1.5150000000000000E-002     3.3049549861560908E-024
  -1.5099999999999999E-002     2.5322518497729826E-023
  -1.5050000000000001E-002     4.4736335449395000E-023
  -1.4999999999999999E-002     5.5704664773289908E-023
  -1.4949999999999998E-002     5.3566578470130790E-023
  -1.4900000000000000E-002     3.6325485494122417E-023
  -1.4849999999999999E-002     5.6984933429312946E-024
  -1.4800000000000001E-002    -3.2624706498240808E-023
  -1.4749999999999999E-002    -6.9733323891849500E-023
  -1.4700000000000001E-002    -9.5258982375734355E-023
  -1.4650000000000000E-002    -9.9889638515888437E-023
  -1.4599999999999998E-002    -7.8118844008393405E-023
  -1.4550000000000000E-002    -3.0538946903556410E-023
  -1.4499999999999999E-002     3.5046933653741795E-023
  -1.4450000000000001E-002     1.0426187462262048E-022
  -1.4400000000000000E-002     1.5875502904504291E-022
  -1.4349999999999998E-002     1.8047458180179777E-022
  -1.4300000000000000E-002     1.5677853914461645E-022
  -1.4249999999999999E-002     8.5112398286041912E-023
  -1.4200000000000001E-002    -2.4184395403914348E-023
  -1.4149999999999999E-002    -1.4815977217765794E-022
  -1.4099999999999998E-002    -2.5519555963766318E-022
  -1.4050000000000000E-002    -3.1224003545375964E-022
  -1.3999999999999999E-002    -2.9389507369928538E-022
  -1.3950000000000001E-002    -1.9108295306280843E-022
  -1.3899999999999999E-002    -1.6690661690863075E-023
  -1.3850000000000001E-002     1.9401937115395024E-022
  -1.3800000000000000E-002     3.8931101318677960E-022
  -1.3749999999999998E-002     5.1260831231470083E-022
  -1.3700000000000000E-002     5.1750656605520250E-022
  -1.3649999999999999E-002     3.8243171468514382E-022
  -1.3600000000000001E-002     1.2072797531911799E-022
  -1.3550000000000000E-002    -2.1739296359583806E-022
  -1.3499999999999998E-002    -5.5281894865427630E-022
  -1.3450000000000000E-002    -7.9466329091125723E-022
  -1.3399999999999999E-002    -8.6313941301160917E-022
  -1.3350000000000001E-002    -7.1273372794530951E-022
  -1.3299999999999999E-002    -3.4945108219146430E-022
  -1.3249999999999998E-002     1.6327931633211462E-022
  -1.3200000000000000E-002     7.1308874688751144E-022
  -1.3149999999999998E-002     1.1611827544146189E-021
  -1.3100000000000001E-002     1.3748363496301273E-021
  -1.3049999999999999E-002     1.2627793449181699E-021
  -1.3000000000000001E-002     8.0478903165528974E-022
  -1.2950000000000000E-002     6.7201086103452704E-023
  -1.2899999999999998E-002    -8.0149625815107879E-022
  -1.2850000000000000E-002    -1.5966346639648137E-021
  -1.2799999999999999E-002    -2.1014530950808210E-021