  -4.0000000000000001E-002     0.0000000000000000     
  -3.9949999999999999E-002     0.0000000000000000     
  -3.9899999999999998E-002     0.0000000000000000     
  -3.9850000000000003E-002     0.0000000000000000     
  -3.9800000000000002E-002     0.0000000000000000     
  -3.9750000000000001E-002     0.0000000000000000     
  -3.9699999999999999E-002     0.0000000000000000     
  -3.9649999999999998E-002     0.0000000000000000     
  -3.9600000000000003E-002     0.0000000000000000     
  -3.9550000000000002E-002     0.0000000000000000     
  -3.9500000000000000E-002     0.0000000000000000     
  -3.9449999999999999E-002     0.0000000000000000     
  -3.9399999999999998E-002     0.0000000000000000     
  -3.9350000000000003E-002     0.0000000000000000     
  -3.9300000000000002E-002     0.0000000000000000     
  -3.9250000000000000E-002     0.0000000000000000     
  -3.9199999999999999E-002     0.0000000000000000     
  -3.9150000000000004E-002     0.0000000000000000     
  -3.9100000000000003E-002     0.0000000000000000     
  -3.9050000000000001E-002     0.0000000000000000     
  -3.9000000000000000E-002     0.0000000000000000     
  -3.8949999999999999E-002     0.0000000000000000     
  -3.8900000000000004E-002     0.0000000000000000     
  -3.8850000000000003E-002     0.0000000000000000     
  -3.8800000000000001E-002     0.0000000000000000     
  -3.8750000000000000E-002     0.0000000000000000     
  -3.8699999999999998E-002    -3.2293317365592579E-039
  -3.8650000000000004E-002    -1.9363771689939951E-038
  -3.8600000000000002E-002    -7.1230434792174187E-038
  -3.8550000000000001E-002    -1.6346203815382430E-037
  -3.8500000000000000E-002    -1.6769126956107398E-037
  -3.8449999999999998E-002     5.3110818329388919E-037
  -3.8400000000000004E-002     3.6223387110641737E-036
  -3.8350000000000002E-002     1.1801970972909254E-035
  -3.8300000000000001E-002     2.5295600917198349E-035
  -3.8249999999999999E-002     3.0200459392588442E-035
  -3.8199999999999998E-002    -2.3394663182302520E-035
  -3.8150000000000003E-002    -2.3831177584633998E-034
  -3.8100000000000002E-002    -7.2774264099627268E-034
  -3.8050000000000000E-002    -1.4144453908915614E-033
  -3.7999999999999999E-002    -1.5969204408266245E-033
  -3.7949999999999998E-002     5.6605532972283263E-034
  -3.7900000000000003E-002     7.9758890207759781E-033
  -3.7850000000000002E-002     2.2604258100992992E-032
  -3.7800000000000000E-002     4.0286515156212924E-032
  -3.7749999999999999E-002     4.2954285277128861E-032
  -3.7699999999999997E-002    -6.1673621328347468E-033
  -3.7650000000000003E-002    -1.5243039787237032E-031
  -3.7600000000000001E-002    -4.1033726722225388E-031
  -3.7550000000000000E-002    -6.9151737458338817E-031
  -3.7499999999999999E-002    -7.2872006491035606E-031
  -3.7449999999999997E-002    -7.1308264595678341E-032
  -3.7400000000000003E-002     1.7400035503431308E-030
  -3.7350000000000001E-002     4.7443774337146519E-030
  -3.7300000000000000E-002     7.9464322994517406E-030
  -3.7249999999999998E-002     8.8300498881985630E-030
  -3.7200000000000004E-002     3.5593027621308797E-030
  -3.7150000000000002E-002    -1.1525152281385054E-029
  -3.7100000000000001E-002    -3.6865570970932685E-029
  -3.7050000000000000E-002    -6.5727343831484575E-029
  -3.6999999999999998E-002    -8.1198622944744527E-029
  -3.6950000000000004E-002    -5.7215881756595994E-029
  -3.6900000000000002E-002     3.2973452859669032E-029
  -3.6850000000000001E-002     1.9904541198339653E-028
  -3.6799999999999999E-002     4.0914791658754293E-028
  -3.6749999999999998E-002     5.6904285221441454E-028
  -3.6700000000000003E-002     5.2386092120033554E-028
  -3.6650000000000002E-002     1.0523791235076585E-028
  -3.6600000000000001E-002    -7.6431429208908309E-028
  -3.6549999999999999E-002    -1.9316147066676727E-027
  -3.6499999999999998E-002    -2.9115730470505865E-027
  -3.6450000000000003E-002    -2.9414246253973567E-027
  -3.6400000000000002E-002    -1.2908634103902342E-027
  -3.6350000000000000E-002     2.1938594048481339E-027
  -3.6299999999999999E-002     6.5533035767182005E-027
  -3.6249999999999998E-002     9.6320850817618666E-027
  -3.6200000000000003E-002     8.8819177236639115E-027
  -3.6150000000000002E-002     3.0640496373354729E-027
  -3.6100000000000000E-002    -5.9223635800900763E-027
  -3.6049999999999999E-002    -1.2598659950212206E-026
  -3.6000000000000004E-002    -1.0329389317456460E-026
  -3.5950000000000003E-002     3.3293606788292498E-027
  -3.5900000000000001E-002     2.0907904341834196E-026
  -3.5850000000000000E-002     2.3855470971255461E-026
  -3.5799999999999998E-002    -9.3353503822039983E-027
  -3.5750000000000004E-002    -8.5512926079637917E-026
  -3.5700000000000003E-002    -1.7766612909952735E-025
  -3.5650000000000001E-002    -2.1924584998713034E-025
  -3.5600000000000000E-002    -1.2662234851954680E-025
  -3.5549999999999998E-002     1.4865192747240199E-025
  -3.5500000000000004E-002     5.5880779838238930E-025
  -3.5450000000000002E-002     9.3099682464296641E-025
  -3.5400000000000001E-002     1.0108184416869887E-024
  -3.5349999999999999E-002     5.8577960314112055E-025
  -3.5299999999999998E-002    -3.5993634735440059E-025
  -3.5250000000000004E-002    -1.5552983223226088E-024
  -3.5200000000000002E-002    -2.5085508542103502E-024
  -3.5150000000000001E-002    -2.7426181115548902E-024
  -3.5099999999999999E-002    -2.0860124855766104E-024
  -3.5049999999999998E-002    -8.1117271097080255E-025
  -3.5000000000000003E-002     5.5343802354185358E-025
  -3.4950000000000002E-002     1.7082643133728466E-024
  -3.4900000000000000E-002     3.0454617723890550E-024
  -3.4849999999999999E-002     5.5951318203771626E-024
  -3.4799999999999998E-002     1.0121067920930558E-023
  -3.4750000000000003E-002     1.5596901444485600E-023
  -3.4700000000000002E-002     1.8035370631490582E-023
  -3.4650000000000000E-002     1.1055321545163046E-023
  -3.4599999999999999E-002    -1.0889077108139603E-023
  -3.4549999999999997E-002    -4.7198391476014134E-023
  -3.4500000000000003E-002    -8.6341643303876322E-023
  -3.4450000000000001E-002    -1.0552508805227635E-022
  -3.4400000000000000E-002    -7.8012148868317753E-023
  -3.4349999999999999E-002     1.2122699910984007E-023
  -3.4299999999999997E-002     1.5317549215579839E-022
  -3.4250000000000003E-002     2.9659206172138451E-022
  -3.4200000000000001E-002     3.6517598190938047E-022
  -3.4150000000000000E-002     2.8253766416836278E-022
  -3.4099999999999998E-002     1.6410513166525753E-023
  -3.4049999999999997E-002    -3.8315515270247934E-022
  -3.4000000000000002E-002    -7.7478617496471404E-022
  -3.3950000000000001E-002    -9.6288558512646269E-022
  -3.3900000000000000E-002    -7.7797476415483204E-022
  -3.3849999999999998E-002    -1.7207867766047593E-022
  -3.3799999999999997E-002     7.1704024656049147E-022
  -3.3750000000000002E-002     1.5767477243864712E-021
  -3.3700000000000001E-002     2.0217596906327215E-021
  -3.3649999999999999E-002     1.7589866197377377E-021
  -3.3599999999999998E-002     7.4474659066033031E-022
  -3.3550000000000003E-002    -7.4908695823693493E-022
  -3.3500000000000002E-002    -2.2129045791104874E-021
  -3.3450000000000001E-002    -3.1059533589960960E-021
  -3.3399999999999999E-002    -3.1010503594905856E-021
  -3.3349999999999998E-002    -2.2369862257851348E-021
  -3.3300000000000003E-002    -8.7754654191959581E-022
  -3.3250000000000002E-002     5.2484720970798926E-022
  -3.3200000000000000E-002     1.7364711732286681E-021
  -3.3149999999999999E-002     2.9148795398309233E-021
  -3.3099999999999997E-002     4.4715494724377919E-021
  -3.3050000000000003E-002     6.6097014122287038E-021
  -3.3000000000000002E-002     8.7542008375142722E-021
  -3.2950000000000000E-002     9.2697287408169904E-021
  -3.2899999999999999E-002     5.8539081348575107E-021
  -3.2850000000000004E-002    -3.2759168157491544E-021
  -3.2800000000000003E-002    -1.7747749951193278E-020
  -3.2750000000000001E-002    -3.3754244724578072E-020
  -3.2700000000000000E-002    -4.4102249128759011E-020
  -3.2649999999999998E-002    -4.0245100308003626E-020
  -3.2600000000000004E-002    -1.6118470633361155E-020
  -3.2550000000000003E-002     2.7470367022743249E-020
  -3.2500000000000001E-002     7.9968495955785092E-020
  -3.2450000000000000E-002     1.2182606929493207E-019
  -3.2399999999999998E-002     1.2994364318365261E-019
  -3.2350000000000004E-002     8.6955280358382470E-020
  -3.2300000000000002E-002    -8.6850894817464565E-021
  -3.2250000000000001E-002    -1.3625437824165318E-019
  -3.2199999999999999E-002    -2.5412144791992107E-019
  -3.2149999999999998E-002    -3.1078954222233901E-019
  -3.2100000000000004E-002    -2.6365751841140449E-019
  -3.2050000000000002E-002    -9.9532040282019545E-020
  -3.2000000000000001E-002     1.5147680651120545E-019
  -3.1949999999999999E-002     4.1635144237780785E-019
  -3.1899999999999998E-002     5.9731123637232173E-019
  -3.1850000000000003E-002     6.0446041630662479E-019
  -3.1800000000000002E-002     3.9287349809364856E-019
  -3.1750000000000000E-002    -9.9681346545022149E-021
  -3.1699999999999999E-002    -4.9940378426451153E-019
  -3.1649999999999998E-002    -9.1781070839686599E-019
  -3.1600000000000003E-002    -1.1035908796851278E-018
  -3.1550000000000002E-002    -9.5005559663885998E-019
  -3.1500000000000000E-002    -4.5298950355745640E-019
  -3.1449999999999999E-002     2.7303158349250900E-019
  -3.1399999999999997E-002     1.0199478209701930E-018
  -3.1350000000000003E-002     1.5485024634768912E-018
  -3.1300000000000001E-002     1.6678497096408173E-018
  -3.1250000000000000E-002     1.3040841842814288E-018
  -3.1199999999999999E-002     5.3120370825905686E-019
  -3.1150000000000001E-002    -4.4899734410443445E-019
  -3.1100000000000003E-002    -1.3719543503474718E-018
  -3.1050000000000001E-002    -1.9956833775384507E-018
  -3.1000000000000000E-002    -2.1728447845279494E-018
  -3.0949999999999998E-002    -1.8814033940433037E-018
  -3.0900000000000000E-002    -1.2045718736905304E-018
  -3.0850000000000002E-002    -2.7526093848754725E-019
  -3.0800000000000001E-002     7.8117035980309747E-019
  -3.0750000000000000E-002     1.8698902898375436E-018
  -3.0699999999999998E-002     2.8976882479216669E-018
  -3.0650000000000000E-002     3.7074008058361219E-018
  -3.0600000000000002E-002     4.0231041017635276E-018
  -3.0550000000000001E-002     3.4663561555249030E-018
  -3.0499999999999999E-002     1.6835670435291460E-018
  -3.0449999999999998E-002    -1.4282769154920529E-018
  -3.0400000000000000E-002    -5.4781343327719631E-018
  -3.0350000000000002E-002    -9.4511070346282314E-018
  -3.0300000000000001E-002    -1.1824194682862333E-017
  -3.0249999999999999E-002    -1.0990213598960604E-017
  -3.0200000000000001E-002    -5.9235439275281754E-018
  -3.0150000000000000E-002     3.1246678128210044E-018
  -3.0100000000000002E-002     1.4211725144461902E-017
  -3.0050000000000000E-002     2.3864472044349297E-017
  -2.9999999999999999E-002     2.7954819601239599E-017
  -2.9950000000000001E-002     2.3155351632046842E-017
  -2.9899999999999999E-002     8.5408944084187842E-018
  -2.9850000000000002E-002    -1.3297994301844496E-017
  -2.9800000000000000E-002    -3.6244529183781641E-017
  -2.9749999999999999E-002    -5.2070875132102860E-017
  -2.9700000000000001E-002    -5.3089660428769373E-017
  -2.9650000000000003E-002    -3.5284837920915984E-017
  -2.9600000000000001E-002    -7.7134550408090074E-019
  -2.9550000000000000E-002     4.1572957589941447E-017
  -2.9499999999999998E-002     7.7984063509284020E-017
  -2.9450000000000000E-002     9.4009920434976560E-017
  -2.9400000000000003E-002     7.9859588281154085E-017
  -2.9350000000000001E-002     3.5023460927747947E-017
  -2.9300000000000000E-002    -2.9799514533892511E-017
  -2.9249999999999998E-002    -9.4729855615383972E-017
  -2.9200000000000000E-002    -1.3660411628529654E-016
  -2.9150000000000002E-002    -1.3709675461768684E-016
  -2.9100000000000001E-002    -9.0265297997220650E-017
  -2.9049999999999999E-002    -6.4984558444824909E-018
  -2.8999999999999998E-002     8.9184309209447397E-017
  -2.8950000000000000E-002     1.6459091916146000E-016
  -2.8900000000000002E-002     1.9141732161472526E-016
  -2.8850000000000001E-002     1.5605457239215109E-016
  -2.8799999999999999E-002     6.5925477508700637E-017
  -2.8749999999999998E-002    -5.1563000987396533E-017
  -2.8700000000000000E-002    -1.5772383714241155E-016
  -2.8650000000000002E-002    -2.1618575516491378E-016
  -2.8600000000000000E-002    -2.0639550822658840E-016
  -2.8549999999999999E-002    -1.3166621983092178E-016
  -2.8500000000000001E-002    -1.8234044428495088E-017
  -2.8450000000000000E-002     9.4738867143487176E-017
  -2.8400000000000002E-002     1.7047249262884123E-016
  -2.8350000000000000E-002     1.8893132478653212E-016
  -2.8299999999999999E-002     1.5399223273891910E-016
  -2.8250000000000001E-002     8.9962393551655272E-017
  -2.8200000000000003E-002     2.8616661977125902E-017
  -2.8150000000000001E-002    -7.5278979934833087E-018
  -2.8100000000000000E-002    -1.7607272542169351E-017
  -2.8049999999999999E-002    -2.3577749277044372E-017
  -2.8000000000000001E-002    -5.7969085844910853E-017
  -2.7950000000000003E-002    -1.4253633128559322E-016
  -2.7900000000000001E-002    -2.6763983556412526E-016
  -2.7850000000000000E-002    -3.8387468741419166E-016
  -2.7799999999999998E-002    -4.1385887775432539E-016
  -2.7750000000000000E-002    -2.8384391452392203E-016
  -2.7700000000000002E-002     3.5094337728943954E-017
  -2.7650000000000001E-002     4.9383818650134320E-016
  -2.7600000000000000E-002     9.5831718387226562E-016
  -2.7549999999999998E-002     1.2397745837559458E-015
  -2.7500000000000000E-002     1.1589824605369067E-015
  -2.7450000000000002E-002     6.2531393643208663E-016
  -2.7400000000000001E-002    -2.9951680509472362E-016
  -2.7349999999999999E-002    -1.3837481192478708E-015
  -2.7299999999999998E-002    -2.2722841292510460E-015
  -2.7250000000000000E-002    -2.5936484577987698E-015
  -2.7200000000000002E-002    -2.0976670106804909E-015
  -2.7150000000000001E-002    -7.7611668823074383E-016
  -2.7099999999999999E-002     1.0838886987857859E-015
  -2.7049999999999998E-002     2.9469857996467506E-015
  -2.7000000000000000E-002     4.1773335365371702E-015
  -2.6950000000000002E-002     4.2487674046751040E-015
  -2.6900000000000000E-002     2.9492149804815857E-015
  -2.6849999999999999E-002     5.0310755865066925E-016
  -2.6800000000000001E-002    -2.4447957246483990E-015
  -2.6749999999999999E-002    -4.9969432735158968E-015
  -2.6700000000000002E-002    -6.2803915747815352E-015
  -2.6650000000000000E-002    -5.7471668735395949E-015
  -2.6599999999999999E-002    -3.3926042160133368E-015
  -2.6550000000000001E-002     1.9431254474958018E-016
  -2.6500000000000003E-002     3.9815651504456589E-015
  -2.6450000000000001E-002     6.8083991799269950E-015
  -2.6400000000000000E-002     7.7635227186909767E-015
  -2.6349999999999998E-002     6.4969536111203798E-015
  -2.6300000000000000E-002     3.3513658906339647E-015
  -2.6250000000000002E-002    -7.4132080209076602E-016
  -2.6200000000000001E-002    -4.5681556509444768E-015
  -2.6150000000000000E-002    -7.0408291396099365E-015
  -2.6099999999999998E-002    -7.5513304878766092E-015
  -2.6050000000000000E-002    -6.1455563651507090E-015
  -2.6000000000000002E-002    -3.4509407012329059E-015
  -2.5950000000000001E-002    -3.9088965179794771E-016
  -2.5899999999999999E-002     2.1940468769548880E-015
  -2.5849999999999998E-002     3.8573019496765704E-015
  -2.5800000000000000E-002     4.6543699002465001E-015
  -2.5750000000000002E-002     4.9988991721833258E-015
  -2.5700000000000001E-002     5.3320421021418230E-015
  -2.5649999999999999E-002     5.7645639893508361E-015
  -2.5599999999999998E-002     5.8810919168971781E-015
  -2.5550000000000000E-002     4.8404727830641517E-015
  -2.5500000000000002E-002     1.7797668159013129E-015
  -2.5450000000000000E-002    -3.6207070144623007E-015
  -2.5399999999999999E-002    -1.0662361659130949E-014
  -2.5349999999999998E-002    -1.7506335469295955E-014
  -2.5300000000000000E-002    -2.1560465337511750E-014
  -2.5250000000000002E-002    -2.0333792467985610E-014
  -2.5200000000000000E-002    -1.2499189615329364E-014
  -2.5149999999999999E-002     1.2418310011340488E-015
  -2.5100000000000001E-002     1.7898595402191038E-014
  -2.5049999999999999E-002     3.2770897018090920E-014
  -2.5000000000000001E-002     4.0806676458315486E-014
  -2.4950000000000000E-002     3.8351843089485110E-014
  -2.4899999999999999E-002     2.4685795164790922E-014
  -2.4850000000000001E-002     2.7229250834031558E-015
  -2.4800000000000003E-002    -2.1510488915231565E-014
  -2.4750000000000001E-002    -4.0601271052429946E-014
  -2.4700000000000000E-002    -4.8192904841156200E-014
  -2.4649999999999998E-002    -4.1333065211817871E-014
  -2.4600000000000000E-002    -2.1849645682552959E-014
  -2.4550000000000002E-002     3.8549815098111261E-015
  -2.4500000000000001E-002     2.6678694176659090E-014
  -2.4450000000000000E-002     3.7843107310379048E-014
  -2.4399999999999998E-002     3.2077146140269816E-014
  -2.4350000000000000E-002     9.8303725154688050E-015
  -2.4299999999999999E-002    -2.2347848831113289E-014
  -2.4250000000000001E-002    -5.3525368977300213E-014
  -2.4199999999999999E-002    -7.1727195289736059E-014
  -2.4150000000000001E-002    -6.7824450594633962E-014
  -2.4100000000000000E-002    -3.8662677586334563E-014
  -2.4049999999999998E-002     1.1646031860740088E-014
  -2.4000000000000000E-002     7.2710185508050340E-014
  -2.3949999999999999E-002     1.3076561519070943E-013
  -2.3900000000000001E-002     1.7246713646551965E-013
  -2.3850000000000000E-002     1.8824732120604928E-013
  -2.3800000000000002E-002     1.7414354092504788E-013
  -2.3750000000000000E-002     1.3163778732629699E-013
  -2.3699999999999999E-002     6.5861684871991102E-014
  -2.3650000000000001E-002    -1.6828637474473785E-014
  -2.3599999999999999E-002    -1.1069040267951360E-013
  -2.3550000000000001E-002    -2.1094567061588232E-013
  -2.3500000000000000E-002    -3.1248558835832983E-013
  -2.3449999999999999E-002    -4.0761765906678616E-013
  -2.3400000000000001E-002    -4.8414466467493557E-013
  -2.3349999999999999E-002    -5.2512379803780143E-013
  -2.3300000000000001E-002    -5.1110145811646676E-013
  -2.3250000000000000E-002    -4.2463713299182362E-013
  -2.3199999999999998E-002    -2.5589447440643025E-013
  -2.3150000000000000E-002    -7.4277823650716070E-015
  -2.3099999999999999E-002     3.0366198955095341E-013
  -2.3050000000000001E-002     6.4723879211154169E-013
  -2.3000000000000000E-002     9.8506876473293009E-013
  -2.2950000000000002E-002     1.2776558108090894E-012
  -2.2900000000000000E-002     1.4906778187719510E-012
  -2.2849999999999999E-002     1.5988353667552366E-012
  -2.2800000000000001E-002     1.5859434579352902E-012
  -2.2749999999999999E-002     1.4416892042230975E-012
  -2.2700000000000001E-002     1.1570422259012910E-012
  -2.2650000000000000E-002     7.2119898120900833E-013
  -2.2599999999999999E-002     1.2270841693722570E-013
  -2.2550000000000001E-002    -6.4395481411192808E-013
  -2.2499999999999999E-002    -1.5672444628451082E-012
  -2.2450000000000001E-002    -2.6058462517655985E-012
  -2.2400000000000000E-002    -3.6788189240398199E-012
  -2.2349999999999998E-002    -4.6629405405222431E-012
  -2.2300000000000000E-002    -5.4001157001337183E-012
  -2.2249999999999999E-002    -5.7151226951355717E-012
  -2.2200000000000001E-002    -5.4410976818253134E-012
  -2.2150000000000000E-002    -4.4479894692977464E-012
  -2.2100000000000002E-002    -2.6684027610628745E-012
  -2.2050000000000000E-002    -1.1610999139396646E-013
  -2.1999999999999999E-002     3.1053162413067827E-012
  -2.1950000000000001E-002     6.8036359272268893E-012
  -2.1899999999999999E-002     1.0706412436785075E-011
  -2.1850000000000001E-002     1.4473308356555556E-011
  -2.1800000000000000E-002     1.7709036773093736E-011
  -2.1749999999999999E-002     1.9975338189758989E-011
  -2.1700000000000001E-002     2.0802309924685797E-011
  -2.1649999999999999E-002     1.9700951698545904E-011
  -2.1600000000000001E-002     1.6179170741544324E-011
  -2.1550000000000000E-002     9.7626125212085809E-012
  -2.1499999999999998E-002     1.9737987381935845E-014
  -2.1450000000000000E-002    -1.3411532989592447E-011
  -2.1399999999999999E-002    -3.0799614113248144E-011
  -2.1350000000000001E-002    -5.2301676501091385E-011
  -2.1299999999999999E-002    -7.7955506424305073E-011
  -2.1250000000000002E-002    -1.0768160580898734E-010
  -2.1200000000000000E-002    -1.4129367682883791E-010
  -2.1149999999999999E-002    -1.7851441986250359E-010
  -2.1100000000000001E-002    -2.1899332788379213E-010
  -2.1049999999999999E-002    -2.6232428725516560E-010
  -2.1000000000000001E-002    -3.0806288536004297E-010
  -2.0950000000000000E-002    -3.5574489142611306E-010
  -2.0899999999999998E-002    -4.0490785600382427E-010
  -2.0850000000000000E-002    -4.5511733039515356E-010
  -2.0799999999999999E-002    -5.0599644342467867E-010
  -2.0750000000000001E-002    -5.5725477186657386E-010
  -2.0700000000000000E-002    -6.0871100970601857E-010
  -2.0649999999999998E-002    -6.6030274054294614E-010
  -2.0600000000000000E-002    -7.1207949887985821E-010
  -2.0549999999999999E-002    -7.6417805035427312E-010
  -2.0500000000000001E-002    -8.1678406882114880E-010
  -2.0449999999999999E-002    -8.7008823311100645E-010
  -2.0400000000000001E-002    -9.2424602620938599E-010
  -2.0350000000000000E-002    -9.7935036482291284E-010
  -2.0299999999999999E-002    -1.0354226887719395E-009
  -2.0250000000000001E-002    -1.0924227794710480E-009
  -2.0199999999999999E-002    -1.1502744155239849E-009
  -2.0150000000000001E-002    -1.2088984840128886E-009
  -2.0100000000000000E-002    -1.2682446650961847E-009
  -2.0049999999999998E-002    -1.3283154856805656E-009
  -2.0000000000000000E-002    -1.3891778559770165E-009
  -1.9949999999999999E-002    -1.4509608419783341E-009
  -1.9900000000000001E-002    -1.5138441377238525E-009
  -1.9850000000000000E-002    -1.5780393477303002E-009
  -1.9799999999999998E-002    -1.6437697819608542E-009
  -1.9750000000000000E-002    -1.7112519654479136E-009
  -1.9699999999999999E-002    -1.7806798235160054E-009
  -1.9650000000000001E-002    -1.8522138961700671E-009
  -1.9599999999999999E-002    -1.9259729186813677E-009
  -1.9550000000000001E-002    -2.0020289818510217E-009
  -1.9500000000000000E-002    -2.0804078868180005E-009
  -1.9449999999999999E-002    -2.1610923027249943E-009
  -1.9400000000000001E-002    -2.2440296490854365E-009
  -1.9349999999999999E-002    -2.3291442820273392E-009
  -1.9300000000000001E-002    -2.4163529552306029E-009
  -1.9250000000000000E-002    -2.5055783533588362E-009
  -1.9199999999999998E-002    -2.5967634621837168E-009
  -1.9150000000000000E-002    -2.6898813278946013E-009
  -1.9099999999999999E-002    -2.7849408052495189E-009
  -1.9050000000000001E-002    -2.8819910640150802E-009
  -1.9000000000000000E-002    -2.9811224759987421E-009
  -1.8949999999999998E-002    -3.0824689315682923E-009
  -1.8900000000000000E-002    -3.1862090439231383E-009
  -1.8849999999999999E-002    -3.2925679951697745E-009
  -1.8800000000000001E-002    -3.4018161076833322E-009
  -1.8749999999999999E-002    -3.5142617933623007E-009
  -1.8700000000000001E-002    -3.6302369294719137E-009
  -1.8650000000000000E-002    -3.7500731405346978E-009
  -1.8599999999999998E-002    -3.8740687920708593E-009
  -1.8550000000000001E-002    -4.0024531271517260E-009
  -1.8499999999999999E-002    -4.1353520160704980E-009
  -1.8450000000000001E-002    -4.2727642475198509E-009
  -1.8400000000000000E-002    -4.4145514701882332E-009
  -1.8349999999999998E-002    -4.5604564083681287E-009
  -1.8300000000000000E-002    -4.7101394934277360E-009
  -1.8249999999999999E-002    -4.8632379492973076E-009
  -1.8200000000000001E-002    -5.0194368188494613E-009
  -1.8149999999999999E-002    -5.1785415133614690E-009
  -1.8100000000000002E-002    -5.3405346342692013E-009
  -1.8050000000000000E-002    -5.5056090027812203E-009
  -1.7999999999999999E-002    -5.6741688182165975E-009
  -1.7950000000000001E-002    -5.8467997456360805E-009
  -1.7899999999999999E-002    -6.0242074886772472E-009
  -1.7850000000000001E-002    -6.2071401408229421E-009
  -1.7800000000000000E-002    -6.3963067411170472E-009
  -1.7749999999999998E-002    -6.5923025127107775E-009
  -1.7700000000000000E-002    -6.7955511859685280E-009
  -1.7649999999999999E-002    -7.0062773053144509E-009
  -1.7600000000000001E-002    -7.2245004217882944E-009
  -1.7550000000000000E-002    -7.4500570030604017E-009
  -1.7499999999999998E-002    -7.6826459649625712E-009
  -1.7450000000000000E-002    -7.9218843274988759E-009
  -1.7399999999999999E-002    -8.1673753073896992E-009
  -1.7350000000000001E-002    -8.4187758600919472E-009
  -1.7299999999999999E-002    -8.6758578318902697E-009
  -1.7250000000000001E-002    -8.9385507844380929E-009
  -1.7200000000000000E-002    -9.2069691151711867E-009
  -1.7149999999999999E-002    -9.4814073791508579E-009
  -1.7100000000000001E-002    -9.7623209727463226E-009
  -1.7049999999999999E-002    -1.0050276691729796E-008
  -1.7000000000000001E-002    -1.0345905632393705E-008
  -1.6950000000000000E-002    -1.0649846810996212E-008
  -1.6899999999999998E-002    -1.0962706992978732E-008
  -1.6850000000000000E-002    -1.1285031882751418E-008
  -1.6799999999999999E-002    -1.1617288853311304E-008
  -1.6750000000000001E-002    -1.1959865902848881E-008
  -1.6700000000000000E-002    -1.2313069530943635E-008
  -1.6649999999999998E-002    -1.2677123165768568E-008
  -1.6600000000000000E-002    -1.3052166547352039E-008
  -1.6549999999999999E-002    -1.3438252636965036E-008
  -1.6500000000000001E-002    -1.3835343540850142E-008
  -1.6449999999999999E-002    -1.4243333364353215E-008
  -1.6400000000000001E-002    -1.4662069427492302E-008
  -1.6350000000000000E-002    -1.5091397333583766E-008
  -1.6299999999999999E-002    -1.5531220650458821E-008
  -1.6250000000000001E-002    -1.5981553881487359E-008
  -1.6199999999999999E-002    -1.6442579712562568E-008
  -1.6150000000000001E-002    -1.6914678949027029E-008
  -1.6100000000000000E-002    -1.7398451262641706E-008
  -1.6049999999999998E-002    -1.7894681735600995E-008
  -1.6000000000000000E-002    -1.8404296550819886E-008
  -1.5949999999999999E-002    -1.8928279364770426E-008
  -1.5900000000000001E-002    -1.9467585595048563E-008
  -1.5850000000000000E-002    -2.0023041197160163E-008
  -1.5799999999999998E-002    -2.0595272049228987E-008
  -1.5750000000000000E-002    -2.1184646926884438E-008
  -1.5699999999999999E-002    -2.1791275532064095E-008
  -1.5650000000000001E-002    -2.2415034305526157E-008
  -1.5599999999999999E-002    -2.3055642958905767E-008
  -1.5550000000000001E-002    -2.3712762719822951E-008
  -1.5500000000000000E-002    -2.4386096017874587E-008
  -1.5449999999999998E-002    -2.5075500082179499E-008
  -1.5400000000000000E-002    -2.5781057982324153E-008
  -1.5349999999999999E-002    -2.6503130512877024E-008
  -1.5300000000000001E-002    -2.7242359944491796E-008
  -1.5250000000000000E-002    -2.7999631553989323E-008
  -1.5199999999999998E-002    -2.8776022030475232E-008
  -1.5150000000000000E-002    -2.9572711557556797E-008
  -1.5099999999999999E-002    -3.0390896474146032E-008
  -1.5050000000000001E-002    -3.1231689494911671E-008
  -1.4999999999999999E-002    -3.2096037781586179E-008
  -1.4949999999999998E-002    -3.2984678345257800E-008
  -1.4900000000000000E-002    -3.3898108242174262E-008
  -1.4849999999999999E-002    -3.4836598151793261E-008
  -1.4800000000000001E-002    -3.5800242475731734E-008
  -1.4749999999999999E-002    -3.6789041252241875E-008
  -1.4700000000000001E-002    -3.7802986510437684E-008
  -1.4650000000000000E-002    -3.8842151591634372E-008
  -1.4599999999999998E-002    -3.9906758560259392E-008
  -1.4550000000000000E-002    -4.0997213672179365E-008
  -1.4499999999999999E-002    -4.2114101348101158E-008
  -1.4450000000000001E-002    -4.3258157086986488E-008
  -1.4400000000000000E-002    -4.4430226987362650E-008
  -1.4349999999999998E-002    -4.5631242963079185E-008
  -1.4300000000000000E-002    -4.6862177249033821E-008
  -1.4249999999999999E-002    -4.8124019709270083E-008
  -1.4200000000000001E-002    -4.9417781870477733E-008
  -1.4149999999999999E-002    -5.0744466177351008E-008
  -1.4099999999999998E-002    -5.2105046998466381E-008
  -1.4050000000000000E-002    -5.3500464896977859E-008
  -1.3999999999999999E-002    -5.4931587875139475E-008
  -1.3950000000000001E-002    -5.6399222739459431E-008
  -1.3899999999999999E-002    -5.7904099771447170E-008
  -1.3850000000000001E-002    -5.9446863542699008E-008
  -1.3800000000000000E-002    -6.1028094923592899E-008
  -1.3749999999999998E-002    -6.2648323452573568E-008
  -1.3700000000000000E-002    -6.4308051803868832E-008
  -1.3649999999999999E-002    -6.6007789451089957E-008
  -1.3600000000000001E-002    -6.7748089101144586E-008
  -1.3550000000000000E-002    -6.9529618573981717E-008
  -1.3499999999999998E-002    -7.1353196816298052E-008
  -1.3450000000000000E-002    -7.3219855336523404E-008
  -1.3399999999999999E-002    -7.5130851416813930E-008
  -1.3350000000000001E-002    -7.7087623405627367E-008
  -1.3299999999999999E-002    -7.9091764298001274E-008
  -1.3249999999999998E-002    -8.1144898065022885E-008
  -1.3200000000000000E-002    -8.3248593348728638E-008
  -1.3149999999999998E-002    -8.5404275613294318E-008
  -1.3100000000000001E-002    -8.7613133251578114E-008
  -1.3049999999999999E-002    -8.9876139173097779E-008
  -1.3000000000000001E-002    -9.2194062822587892E-008
  -1.2950000000000000E-002    -9.4567530491069435E-008
  -1.2899999999999998E-002    -9.6997139192908239E-008
  -1.2850000000000000E-002    -9.9483534640907846E-008
  -1.2799999999999999E-002    -1.0202747812984113E-007