  -4.0000000000000001E-002     0.0000000000000000     
  -3.9949999999999999E-002     0.0000000000000000     
  -3.9899999999999998E-002     0.0000000000000000     
  -3.9850000000000003E-002     0.0000000000000000     
  -3.9800000000000002E-002     0.0000000000000000     
  -3.9750000000000001E-002     0.0000000000000000     
  -3.9699999999999999E-002     0.0000000000000000     
  -3.9649999999999998E-002     0.0000000000000000     
  -3.9600000000000003E-002     0.0000000000000000     
  -3.9550000000000002E-002     0.0000000000000000     
  -3.9500000000000000E-002     0.0000000000000000     
  -3.9449999999999999E-002     0.0000000000000000     
  -3.9399999999999998E-002     0.0000000000000000     
  -3.9350000000000003E-002     0.0000000000000000     
  -3.9300000000000002E-002    -6.7753679974525240E-039
  -3.9250000000000000E-002    -1.6019361796168570E-037
  -3.9199999999999999E-002    -2.0658133053987888E-036
  -3.9150000000000004E-002    -1.7911725437928128E-035
  -3.9100000000000003E-002    -1.0921521949100104E-034
  -3.9050000000000001E-002    -4.6420929330582819E-034
  -3.9000000000000000E-002    -1.2160494991559036E-033
  -3.8949999999999999E-002    -3.5415956591711814E-034
  -3.8900000000000004E-002     1.4821234944553605E-032
  -3.8850000000000003E-002     8.7509741825626785E-032
  -3.8800000000000001E-002     3.0643740141811427E-031
  -3.8750000000000000E-002     7.2299487956881182E-031
  -3.8699999999999998E-002     9.3863827911220369E-031
  -3.8650000000000004E-002    -9.0110976908411540E-031
  -3.8600000000000002E-002    -9.3675744666389079E-030
  -3.8550000000000001E-002    -3.0940462776871037E-029
  -3.8500000000000000E-002    -6.5577227138418592E-029
  -3.8449999999999998E-002    -8.3999930112166232E-029
  -3.8400000000000004E-002     6.5765611758452111E-030
  -3.8350000000000002E-002     3.7599322051556841E-028
  -3.8300000000000001E-002     1.1857285072507608E-027
  -3.8249999999999999E-002     2.3043422952630004E-027
  -3.8199999999999998E-002     2.8122355867650031E-027
  -3.8150000000000003E-002     5.7050393893719808E-028
  -3.8100000000000002E-002    -7.4271497036319953E-027
  -3.8050000000000000E-002    -2.2925140608817015E-026
  -3.7999999999999999E-002    -4.2031666865123280E-026
  -3.7949999999999998E-002    -5.0047158942266000E-026
  -3.7900000000000003E-002    -2.0003971899299883E-026
  -3.7850000000000002E-002     7.8251998858703319E-026
  -3.7800000000000000E-002     2.5344593249484887E-025
  -3.7749999999999999E-002     4.5676676582610774E-025
  -3.7699999999999997E-002     5.5359922056467932E-025
  -3.7650000000000003E-002     3.3601383581756265E-025
  -3.7600000000000001E-002    -3.9301396684361671E-025
  -3.7550000000000000E-002    -1.6620571676649720E-024
  -3.7499999999999999E-002    -3.1533208671638528E-024
  -3.7449999999999997E-002    -4.1125497651592876E-024
  -3.7400000000000003E-002    -3.4702462558529010E-024
  -3.7350000000000001E-002    -2.3980176394428034E-025
  -3.7300000000000000E-002     5.8697420033134785E-024
  -3.7249999999999998E-002     1.3835676223100152E-023
  -3.7200000000000004E-002     2.0998933108749293E-023
  -3.7150000000000002E-002     2.3321518680665417E-023
  -3.7100000000000001E-002     1.6390786045843048E-023
  -3.7050000000000000E-002    -2.8446823580986639E-024
  -3.6999999999999998E-002    -3.3863983451905877E-023
  -3.6950000000000004E-002    -7.0501964513945965E-023
  -3.6900000000000002E-002    -1.0012473025614532E-022
  -3.6850000000000001E-002    -1.0555403700320091E-022
  -3.6799999999999999E-002    -7.0920057297182127E-023
  -3.6749999999999998E-002     9.1217650639964097E-024
  -3.6700000000000003E-002     1.2054317983852532E-022
  -3.6650000000000002E-002     2.2822176785932587E-022
  -3.6600000000000001E-002     2.8785012579159463E-022
  -3.6549999999999999E-002     2.7153329118212022E-022
  -3.6499999999999998E-002     1.9501482559440317E-022
  -3.6450000000000003E-002     1.2323726106647645E-022
  -3.6400000000000002E-002     1.3195531516274261E-022
  -3.6350000000000000E-002     2.2563434977639804E-022
  -3.6299999999999999E-002     2.5270251663054301E-022
  -3.6249999999999998E-002    -1.0384147599324537E-022
  -3.6200000000000003E-002    -1.1848527497801754E-021
  -3.6150000000000002E-002    -3.0556803413953556E-021
  -3.6100000000000000E-002    -5.1675187745905777E-021
  -3.6049999999999999E-002    -6.2171685607259586E-021
  -3.6000000000000004E-002    -4.4586725177929834E-021
  -3.5950000000000003E-002     1.4430179902049635E-021
  -3.5900000000000001E-002     1.1252236464953955E-020
  -3.5850000000000000E-002     2.2276652992568792E-020
  -3.5799999999999998E-002     2.9466877964733118E-020
  -3.5750000000000004E-002     2.6942162284144298E-020
  -3.5700000000000003E-002     1.0710770128753154E-020
  -3.5650000000000001E-002    -1.8447303144333708E-020
  -3.5600000000000000E-002    -5.3438220295855882E-020
  -3.5549999999999998E-002    -8.1894236431106098E-020
  -3.5500000000000004E-002    -8.9986270131765713E-020
  -3.5450000000000002E-002    -6.7790918735396036E-020
  -3.5400000000000001E-002    -1.3995604838504115E-020
  -3.5349999999999999E-002     6.2182111594080209E-020
  -3.5299999999999998E-002     1.4269580500247145E-019
  -3.5250000000000004E-002     2.0501801625911100E-019
  -3.5200000000000002E-002     2.2700103677006959E-019
  -3.5150000000000001E-002     1.9053167415688825E-019
  -3.5099999999999999E-002     8.4160961026370455E-020
  -3.5049999999999998E-002    -9.3081488369562387E-020
  -3.5000000000000003E-002    -3.2432365867958002E-019
  -3.4950000000000002E-002    -5.6458024965271696E-019
  -3.4900000000000000E-002    -7.3361806132011911E-019
  -3.4849999999999999E-002    -7.2258453956880191E-019
  -3.4799999999999998E-002    -4.2437419637447224E-019
  -3.4750000000000003E-002     2.1118255511804194E-019
  -3.4700000000000002E-002     1.1121618959042280E-018
  -3.4650000000000000E-002     2.0406993019152237E-018
  -3.4599999999999999E-002     2.6084792217570965E-018
  -3.4549999999999997E-002     2.3776269957188714E-018
  -3.4500000000000003E-002     1.0403315792997652E-018
  -3.4450000000000001E-002    -1.3740549034459789E-018
  -3.4400000000000000E-002    -4.3530784878464754E-018
  -3.4349999999999999E-002    -6.9127471156350144E-018
  -3.4299999999999997E-002    -7.8258773319604186E-018
  -3.4250000000000003E-002    -6.0472489753094268E-018
  -3.4200000000000001E-002    -1.2185179640571412E-018
  -3.4150000000000000E-002     5.9385904876985248E-018
  -3.4099999999999998E-002     1.3542985843937173E-017
  -3.4049999999999997E-002     1.8915792769791811E-017
  -3.4000000000000002E-002     1.9360480092420215E-017
  -3.3950000000000001E-002     1.3163586082025177E-017
  -3.3900000000000000E-002     4.8539281758260643E-019
  -3.3849999999999998E-002    -1.6216636111545094E-017
  -3.3799999999999997E-002    -3.2480703619450585E-017
  -3.3750000000000002E-002    -4.2880041808243520E-017
  -3.3700000000000001E-002    -4.2581305305335836E-017
  -3.3649999999999999E-002    -2.8991125320397427E-017
  -3.3599999999999998E-002    -2.9883583920255677E-018
  -3.3550000000000003E-002     3.0672856168380400E-017
  -3.3500000000000002E-002     6.3989509753650050E-017
  -3.3450000000000001E-002     8.7300844669247538E-017
  -3.3399999999999999E-002     9.1547573169098874E-017
  -3.3349999999999998E-002     7.0757061647497077E-017
  -3.3300000000000003E-002     2.4257010392284838E-017
  -3.3250000000000002E-002    -4.1877437412160050E-017
  -3.3200000000000000E-002    -1.1460931609339193E-016
  -3.3149999999999999E-002    -1.7536004295470228E-016
  -3.3099999999999997E-002    -2.0330190212243320E-016
  -3.3050000000000003E-002    -1.8041097135498228E-016
  -3.3000000000000002E-002    -9.7595260951245545E-017
  -3.2950000000000000E-002     3.9499544643788992E-017
  -3.2899999999999999E-002     2.0700889343115311E-016
  -3.2850000000000004E-002     3.6383926262534142E-016
  -3.2800000000000003E-002     4.5863055505736569E-016
  -3.2750000000000001E-002     4.4264622077010849E-016
  -3.2700000000000000E-002     2.8634872752985305E-016
  -3.2649999999999998E-002    -4.7804373871113873E-018
  -3.2600000000000004E-002    -3.8092445054894816E-016
  -3.2550000000000003E-002    -7.5044907747716382E-016
  -3.2500000000000001E-002    -9.9704866795607810E-016
  -3.2450000000000000E-002    -1.0099961416266830E-015
  -3.2399999999999998E-002    -7.2098911471732557E-016
  -3.2350000000000004E-002    -1.3709884423034284E-016
  -3.2300000000000002E-002     6.4199587582183779E-016
  -3.2250000000000001E-002     1.4318944475470722E-015
  -3.2199999999999999E-002     1.9997863697962340E-015
  -3.2149999999999998E-002     2.1240500156247327E-015
  -3.2100000000000004E-002     1.6635578249959304E-015
  -3.2050000000000002E-002     6.1741788320472975E-016
  -3.2000000000000001E-002    -8.4482038674234103E-016
  -3.1949999999999999E-002    -2.3971822750127480E-015
  -3.1899999999999998E-002    -3.6196339873893462E-015
  -3.1850000000000003E-002    -4.0994902444822570E-015
  -3.1800000000000002E-002    -3.5497278714334433E-015
  -3.1750000000000000E-002    -1.9136152409013290E-015
  -3.1699999999999999E-002     5.7609377373227762E-016
  -3.1649999999999998E-002     3.4076435068373995E-015
  -3.1600000000000003E-002     5.8794089131682831E-015
  -3.1550000000000002E-002     7.2565783727322351E-015
  -3.1500000000000000E-002     6.9641439461086009E-015
  -3.1449999999999999E-002     4.7700755155710631E-015
  -3.1399999999999997E-002     9.0776604252254138E-016
  -3.1350000000000003E-002    -3.9051049025528953E-015
  -3.1300000000000001E-002    -8.5732908423923540E-015
  -3.1250000000000000E-002    -1.1848338558271946E-014
  -3.1199999999999999E-002    -1.2630178554162666E-014
  -3.1150000000000001E-002    -1.0278940817779260E-014
  -3.1100000000000003E-002    -4.8571761780808604E-015
  -3.1050000000000001E-002     2.7709937240855262E-015
  -3.1000000000000000E-002     1.1030912125993041E-014
  -3.0949999999999998E-002     1.7923702889096608E-014
  -3.0900000000000000E-002     2.1464216510658403E-014
  -3.0850000000000002E-002     2.0183027391112806E-014
  -3.0800000000000001E-002     1.3577259090947635E-014
  -3.0750000000000000E-002     2.3918777799737382E-015
  -3.0699999999999998E-002    -1.1362184779074639E-014
  -3.0650000000000000E-002    -2.4696999400257026E-014
  -3.0600000000000002E-002    -3.4221353194907443E-014
  -3.0550000000000001E-002    -3.6906630327372648E-014
  -3.0499999999999999E-002    -3.0892532101723816E-014
  -3.0449999999999998E-002    -1.6145806270324896E-014
  -3.0400000000000000E-002     5.2127609311975608E-015
  -3.0350000000000002E-002     2.9052391230714058E-014
  -3.0300000000000001E-002     4.9899123450012135E-014
  -3.0249999999999999E-002     6.2058766069670249E-014
  -3.0200000000000001E-002     6.1001751938891848E-014
  -3.0150000000000000E-002     4.4709343954965494E-014
  -3.0100000000000002E-002     1.4628768802387135E-014
  -3.0050000000000000E-002    -2.4084513483045721E-014
  -2.9999999999999999E-002    -6.3235083820911742E-014
  -2.9950000000000001E-002    -9.3159065742702787E-014
  -2.9899999999999999E-002    -1.0494638695362640E-013
  -2.9850000000000002E-002    -9.2838475245914363E-014
  -2.9800000000000000E-002    -5.6194236363718942E-014
  -2.9749999999999999E-002    -4.3281102670962787E-016
  -2.9700000000000001E-002     6.3454066163684647E-014
  -2.9650000000000003E-002     1.2090030808825830E-013
  -2.9600000000000001E-002     1.5695750216174340E-013
  -2.9550000000000000E-002     1.6000140039870037E-013
  -2.9499999999999998E-002     1.2505316665176259E-013
  -2.9450000000000000E-002     5.5814816630570135E-014
  -2.9400000000000003E-002    -3.5239853845158019E-014
  -2.9350000000000001E-002    -1.2893985580969742E-013
  -2.9300000000000000E-002    -2.0334612448159837E-013
  -2.9249999999999998E-002    -2.3873395691097395E-013
  -2.9200000000000000E-002    -2.2250739457736253E-013
  -2.9150000000000002E-002    -1.5286251713011705E-013
  -2.9100000000000001E-002    -4.0237250462232205E-014
  -2.9049999999999999E-002     9.3957253213214430E-014
  -2.8999999999999998E-002     2.2123541024853994E-013
  -2.8950000000000000E-002     3.1187910251945019E-013
  -2.8900000000000002E-002     3.4156099679851395E-013
  -2.8850000000000001E-002     2.9733890542941356E-013
  -2.8799999999999999E-002     1.8164496800381393E-013
  -2.8749999999999998E-002     1.3218817708719691E-014
  -2.8700000000000000E-002    -1.7550031891998758E-013
  -2.8650000000000002E-002    -3.4428789325869898E-013
  -2.8600000000000000E-002    -4.5337904894586528E-013
  -2.8549999999999999E-002    -4.7245391752800272E-013
  -2.8500000000000001E-002    -3.8842863550293832E-013
  -2.8450000000000000E-002    -2.1016354146277287E-013
  -2.8400000000000002E-002     3.1323820750913596E-014
  -2.8350000000000000E-002     2.8768619966314674E-013
  -2.8299999999999999E-002     5.0255348847495878E-013
  -2.8250000000000001E-002     6.2364598991026635E-013
  -2.8200000000000003E-002     6.1517159692966491E-013
  -2.8150000000000001E-002     4.6764705794354734E-013
  -2.8100000000000000E-002     2.0259138288275258E-013
  -2.8049999999999999E-002    -1.2950126602152095E-013
  -2.8000000000000001E-002    -4.5807446059486455E-013
  -2.7950000000000003E-002    -7.0687761078501745E-013
  -2.7900000000000001E-002    -8.1096741006758650E-013
  -2.7850000000000000E-002    -7.3267993439671059E-013
  -2.7799999999999998E-002    -4.7285124417583894E-013
  -2.7750000000000000E-002    -7.4345612474249432E-014
  -2.7700000000000002E-002     3.8355467895724991E-013
  -2.7650000000000001E-002     7.9943478715891744E-013
  -2.7600000000000000E-002     1.0703027748946423E-012
  -2.7549999999999998E-002     1.1144601084100971E-012
  -2.7500000000000000E-002     8.9191199855504989E-013
  -2.7450000000000002E-002     4.1767634260598008E-013
  -2.7400000000000001E-002    -2.3552054595514224E-013
  -2.7349999999999999E-002    -9.4671187531713954E-013
  -2.7299999999999998E-002    -1.5674060355314869E-012
  -2.7250000000000000E-002    -1.9501431502569060E-012
  -2.7200000000000002E-002    -1.9794982625688285E-012
  -2.7150000000000001E-002    -1.5991380258289669E-012
  -2.7099999999999999E-002    -8.2884801644780077E-013
  -2.7049999999999998E-002     2.3286868943340523E-013
  -2.7000000000000000E-002     1.4222047401935885E-012
  -2.6950000000000002E-002     2.5376586265615041E-012
  -2.6900000000000000E-002     3.3767837870544524E-012
  -2.6849999999999999E-002     3.7747009259537011E-012
  -2.6800000000000001E-002     3.6362498575960641E-012
  -2.6749999999999999E-002     2.9547499727565098E-012
  -2.6700000000000002E-002     1.8131361643867605E-012
  -2.6650000000000000E-002     3.6716848194036913E-013
  -2.6599999999999999E-002    -1.1854483806948088E-012
  -2.6550000000000001E-002    -2.6428436676323622E-012
  -2.6500000000000003E-002    -3.8347793199759780E-012
  -2.6450000000000001E-002    -4.6480686531216500E-012
  -2.6400000000000000E-002    -5.0358129299548912E-012
  -2.6349999999999998E-002    -5.0088178360420300E-012
  -2.6300000000000000E-002    -4.6122633262502862E-012
  -2.6250000000000002E-002    -3.8947904204560183E-012
  -2.6200000000000001E-002    -2.8795415788103899E-012
  -2.6150000000000000E-002    -1.5467154564443245E-012
  -2.6099999999999998E-002     1.6529826708639411E-013
  -2.6050000000000000E-002     2.3375132888812104E-012
  -2.6000000000000002E-002     5.0292806697296447E-012
  -2.5950000000000001E-002     8.2260481523131446E-012
  -2.5899999999999999E-002     1.1786702023241400E-011
  -2.5849999999999998E-002     1.5402154008805107E-011
  -2.5800000000000000E-002     1.8575113485902356E-011
  -2.5750000000000002E-002     2.0627235689278538E-011
  -2.5700000000000001E-002     2.0734804943425063E-011
  -2.5649999999999999E-002     1.7989173267660397E-011
  -2.5599999999999998E-002     1.1474105807325084E-011
  -2.5550000000000000E-002     3.4983956260474316E-013
  -2.5500000000000002E-002    -1.6066926110143298E-011
  -2.5450000000000000E-002    -3.8237079959290167E-011
  -2.5399999999999999E-002    -6.6355086404723962E-011
  -2.5349999999999998E-002    -1.0033232673273881E-010
  -2.5300000000000000E-002    -1.3981035359010002E-010
  -2.5250000000000002E-002    -1.8420317195291467E-010
  -2.5200000000000000E-002    -2.3276428249327598E-010
  -2.5149999999999999E-002    -2.8467054114971585E-010
  -2.5100000000000001E-002    -3.3911106445755633E-010
  -2.5049999999999999E-002    -3.9536799180356247E-010
  -2.5000000000000001E-002    -4.5287506252471592E-010
  -2.4950000000000000E-002    -5.1124450812256720E-010
  -2.4899999999999999E-002    -5.7025723951945218E-010
  -2.4850000000000001E-002    -6.2982127674961210E-010
  -2.4800000000000003E-002    -6.8990983515668552E-010
  -2.4750000000000001E-002    -7.5049732444511403E-010
  -2.4700000000000000E-002    -8.1151286699725351E-010
  -2.4649999999999998E-002    -8.7282432911001709E-010
  -2.4600000000000000E-002    -9.3425875279677732E-010
  -2.4550000000000002E-002    -9.9565237468913943E-010
  -2.4500000000000001E-002    -1.0569126151203111E-009
  -2.4450000000000000E-002    -1.1180695662717088E-009
  -2.4399999999999998E-002    -1.1792973248949882E-009
  -2.4350000000000000E-002    -1.2408930456139436E-009
  -2.4299999999999999E-002    -1.3032162401851472E-009
  -2.4250000000000001E-002    -1.3666042492857015E-009
  -2.4199999999999999E-002    -1.4312901348875537E-009
  -2.4150000000000001E-002    -1.4973481105021618E-009
  -2.4100000000000000E-002    -1.5646867401758094E-009
  -2.4049999999999998E-002    -1.6330944953574469E-009
  -2.4000000000000000E-002    -1.7023261845135102E-009
  -2.3949999999999999E-002    -1.7722062929690662E-009
  -2.3900000000000001E-002    -1.8427198745105227E-009
  -2.3850000000000000E-002    -1.9140643896822806E-009
  -2.3800000000000002E-002    -1.9866492635406907E-009
  -2.3750000000000000E-002    -2.0610428007233912E-009
  -2.3699999999999999E-002    -2.1378798517216718E-009
  -2.3650000000000001E-002    -2.2177549569791483E-009
  -2.3599999999999999E-002    -2.3011224854073966E-009
  -2.3550000000000001E-002    -2.3882248107652872E-009
  -2.3500000000000000E-002    -2.4790575148582995E-009
  -2.3449999999999999E-002    -2.5733736208360631E-009
  -2.3400000000000001E-002    -2.6707211011259049E-009
  -2.3349999999999999E-002    -2.7705061403812330E-009
  -2.3300000000000001E-002    -2.8720732962163599E-009
  -2.3250000000000000E-002    -2.9747949829266929E-009
  -2.3199999999999998E-002    -3.0781625749506529E-009
  -2.3150000000000000E-002    -3.1818705140889927E-009
  -2.3099999999999999E-002    -3.2858839555414627E-009
  -2.3050000000000001E-002    -3.3904766321302309E-009
  -2.3000000000000000E-002    -3.4962313343968343E-009
  -2.2950000000000002E-002    -3.6039966622448445E-009
  -2.2900000000000000E-002    -3.7148015576335607E-009
  -2.2849999999999999E-002    -3.8297378200598406E-009
  -2.2800000000000001E-002    -3.9498229917520486E-009
  -2.2749999999999999E-002    -4.0758669731699843E-009
  -2.2700000000000001E-002    -4.2083601991331356E-009
  -2.2650000000000000E-002    -4.3474057336856990E-009
  -2.2599999999999999E-002    -4.4927027104015171E-009
  -2.2550000000000001E-002    -4.6435942500828858E-009
  -2.2499999999999999E-002    -4.7991715683117527E-009
  -2.2450000000000001E-002    -4.9584242709568731E-009
  -2.2400000000000000E-002    -5.1204146853094183E-009
  -2.2349999999999998E-002    -5.2844392406957482E-009
  -2.2300000000000000E-002    -5.4501530519248724E-009
  -2.2249999999999999E-002    -5.6176228910912160E-009
  -2.2200000000000001E-002    -5.7872994010886304E-009
  -2.2150000000000000E-002    -5.9599178463627689E-009
  -2.2100000000000002E-002    -6.1363523218531788E-009
  -2.2050000000000000E-002    -6.3174714215429307E-009
  -2.1999999999999999E-002    -6.5040266666777025E-009
  -2.1950000000000001E-002    -6.6966102895533923E-009
  -2.1899999999999999E-002    -6.8956830438828232E-009
  -2.1850000000000001E-002    -7.1016429539547348E-009
  -2.1800000000000000E-002    -7.3149008279242198E-009
  -2.1749999999999999E-002    -7.5359155153991930E-009
  -2.1700000000000001E-002    -7.7651557744754997E-009
  -2.1649999999999999E-002    -8.0030041593460022E-009
  -2.1600000000000001E-002    -8.2496200921061500E-009
  -2.1550000000000000E-002    -8.5048219832103481E-009
  -2.1499999999999998E-002    -8.7680447703029675E-009
  -2.1450000000000000E-002    -9.0384010136259825E-009
  -2.1399999999999999E-002    -9.3148374250206027E-009
  -2.1350000000000001E-002    -9.5963709939345620E-009
  -2.1299999999999999E-002    -9.8823162101757644E-009
  -2.1250000000000002E-002    -1.0172470081729783E-008
  -2.1200000000000000E-002    -1.0467185506200572E-008
  -2.1149999999999999E-002    -1.0767341428355693E-008
  -2.1100000000000001E-002    -1.1074206230345541E-008
  -2.1049999999999999E-002    -1.1389259498839942E-008
  -2.1000000000000001E-002    -1.1713995809663366E-008
  -2.0950000000000000E-002    -1.2049765673673098E-008
  -2.0899999999999998E-002    -1.2397656534915879E-008
  -2.0850000000000000E-002    -1.2758429185727929E-008
  -2.0799999999999999E-002    -1.3132484909774873E-008
  -2.0750000000000001E-002    -1.3519862899676414E-008
  -2.0700000000000000E-002    -1.3920259935460015E-008
  -2.0649999999999998E-002    -1.4333079284363595E-008
  -2.0600000000000000E-002    -1.4757513138770224E-008
  -2.0549999999999999E-002    -1.5192649865707972E-008
  -2.0500000000000001E-002    -1.5637620628917141E-008
  -2.0449999999999999E-002    -1.6091750972492677E-008
  -2.0400000000000001E-002    -1.6554681255017387E-008
  -2.0350000000000000E-002    -1.7026470095409203E-008
  -2.0299999999999999E-002    -1.7507637321512124E-008
  -2.0250000000000001E-002    -1.7999142808438275E-008
  -2.0199999999999999E-002    -1.8502312635153604E-008
  -2.0150000000000001E-002    -1.9018726610655365E-008
  -2.0100000000000000E-002    -1.9550058314274156E-008
  -2.0049999999999998E-002    -2.0097902471105849E-008
  -2.0000000000000000E-002    -2.0663598230029406E-008
  -1.9949999999999999E-002    -2.1248070554308034E-008
  -1.9900000000000001E-002    -2.1851726693418220E-008
  -1.9850000000000000E-002    -2.2474445160198041E-008
  -1.9799999999999998E-002    -2.3115646568544875E-008
  -1.9750000000000000E-002    -2.3774474280879954E-008
  -1.9699999999999999E-002    -2.4450014223193521E-008
  -1.9650000000000001E-002    -2.5141539898481328E-008
  -1.9599999999999999E-002    -2.5848686667411899E-008
  -1.9550000000000001E-002    -2.6571536344296227E-008
  -1.9500000000000000E-002    -2.7310604159852582E-008
  -1.9449999999999999E-002    -2.8066721497153517E-008
  -1.9400000000000001E-002    -2.8840891435781526E-008
  -1.9349999999999999E-002    -2.9634167152623296E-008
  -1.9300000000000001E-002    -3.0447587330973723E-008
  -1.9250000000000000E-002    -3.1282159265278063E-008
  -1.9199999999999998E-002    -3.2138920294537769E-008
  -1.9150000000000000E-002    -3.3018978359450428E-008
  -1.9099999999999999E-002    -3.3923532173143675E-008
  -1.9050000000000001E-002    -3.4853788701931724E-008
  -1.9000000000000000E-002    -3.5810840160119711E-008
  -1.8949999999999998E-002    -3.6795505737473013E-008
  -1.8900000000000000E-002    -3.7808170417617992E-008
  -1.8849999999999999E-002    -3.8848724869379633E-008
  -1.8800000000000001E-002    -3.9916593767767742E-008
  -1.8749999999999999E-002    -4.1010893249608352E-008
  -1.8700000000000001E-002    -4.2130647743858344E-008
  -1.8650000000000000E-002    -4.3275070611195514E-008
  -1.8599999999999998E-002    -4.4443822976608230E-008
  -1.8550000000000001E-002    -4.5637208603137890E-008
  -1.8499999999999999E-002    -4.6856221843788242E-008
  -1.8450000000000001E-002    -4.8102513674189850E-008
  -1.8400000000000000E-002    -4.9378208034759712E-008
  -1.8349999999999998E-002    -5.0685634725154710E-008
  -1.8300000000000000E-002    -5.2027067536026124E-008
  -1.8249999999999999E-002    -5.3404467342794908E-008
  -1.8200000000000001E-002    -5.4819332544181197E-008
  -1.8149999999999999E-002    -5.6272681347816317E-008
  -1.8100000000000002E-002    -5.7765135155270458E-008
  -1.8050000000000000E-002    -5.9297105985326503E-008
  -1.7999999999999999E-002    -6.0868955046509424E-008
  -1.7950000000000001E-002    -6.2481137270105886E-008
  -1.7899999999999999E-002    -6.4134181347534884E-008
  -1.7850000000000001E-002    -6.5828632013057319E-008
  -1.7800000000000000E-002    -6.7564888938994415E-008
  -1.7749999999999998E-002    -6.9343131487896205E-008
  -1.7700000000000000E-002    -7.1163315142510439E-008
  -1.7649999999999999E-002    -7.3025379041351466E-008
  -1.7600000000000001E-002    -7.4929509065674715E-008
  -1.7550000000000000E-002    -7.6876479984436432E-008
  -1.7499999999999998E-002    -7.8867813594828515E-008
  -1.7450000000000000E-002    -8.0905775020571983E-008
  -1.7399999999999999E-002    -8.2993045851565565E-008
  -1.7350000000000001E-002    -8.5132281994091894E-008
  -1.7299999999999999E-002    -8.7325532513970454E-008
  -1.7250000000000001E-002    -8.9573921283068111E-008
  -1.7200000000000000E-002    -9.1877547479245890E-008
  -1.7149999999999999E-002    -9.4235780075833093E-008
  -1.7100000000000001E-002    -9.6647767521078187E-008
  -1.7049999999999999E-002    -9.9113083851210030E-008
  -1.7000000000000001E-002    -1.0163219581307002E-007
  -1.6950000000000000E-002    -1.0420657284913143E-007
  -1.6899999999999998E-002    -1.0683842425337975E-007
  -1.6850000000000000E-002    -1.0953017296830876E-007
  -1.6799999999999999E-002    -1.1228388214164478E-007
  -1.6750000000000001E-002    -1.1510081741269472E-007
  -1.6700000000000000E-002    -1.1798144246763984E-007
  -1.6649999999999998E-002    -1.2092580211870201E-007
  -1.6600000000000000E-002    -1.2393417857662505E-007
  -1.6549999999999999E-002    -1.2700779266375909E-007
  -1.6500000000000001E-002    -1.3014917747511374E-007
  -1.6449999999999999E-002    -1.3336221732639887E-007
  -1.6400000000000001E-002    -1.3665159933782715E-007
  -1.6350000000000000E-002    -1.4002196492632803E-007
  -1.6299999999999999E-002    -1.4347705484550995E-007
  -1.6250000000000001E-002    -1.4701919047534785E-007
  -1.6199999999999999E-002    -1.5064918881778650E-007
  -1.6150000000000001E-002    -1.5436684821066813E-007
  -1.6100000000000000E-002    -1.5817178377606681E-007
  -1.6049999999999998E-002    -1.6206424188485166E-007
  -1.6000000000000000E-002    -1.6604556704789650E-007
  -1.5949999999999999E-002    -1.7011817313555752E-007
  -1.5900000000000001E-002    -1.7428500759773583E-007
  -1.5850000000000000E-002    -1.7854861225458389E-007
  -1.5799999999999998E-002    -1.8291034493812141E-007
  -1.5750000000000000E-002    -1.8737002606699054E-007
  -1.5699999999999999E-002    -1.9192611550241260E-007
  -1.5650000000000001E-002    -1.9657657111123613E-007
  -1.5599999999999999E-002    -2.0131995705595440E-007
  -1.5550000000000001E-002    -2.0615641670368219E-007
  -1.5500000000000000E-002    -2.1108804680697244E-007
  -1.5449999999999998E-002    -2.1611865054795367E-007
  -1.5400000000000000E-002    -2.2125284421084886E-007
  -1.5349999999999999E-002    -2.2649488840764142E-007
  -1.5300000000000001E-002    -2.3184768491193398E-007
  -1.5250000000000000E-002    -2.3731237181112626E-007
  -1.5199999999999998E-002    -2.4288872630191665E-007
  -1.5150000000000000E-002    -2.4857614647506691E-007
  -1.5099999999999999E-002    -2.5437486671337913E-007
  -1.5050000000000001E-002    -2.6028688030497212E-007
  -1.4999999999999999E-002    -2.6631628690679434E-007
  -1.4949999999999998E-002    -2.7246873703884835E-007
  -1.4900000000000000E-002    -2.7875035802012985E-007
  -1.4849999999999999E-002    -2.8516654069096999E-007
  -1.4800000000000001E-002    -2.9172104260390430E-007
  -1.4749999999999999E-002    -2.9841612817844097E-007
  -1.4700000000000001E-002    -3.0525320732697372E-007
  -1.4650000000000000E-002    -3.1223427736059245E-007
  -1.4599999999999998E-002    -3.1936316245298714E-007
  -1.4550000000000000E-002    -3.2664605952118893E-007
  -1.4499999999999999E-002    -3.3409126323940171E-007
  -1.4450000000000001E-002    -3.4170787195163459E-007
  -1.4400000000000000E-002    -3.4950426340649466E-007
  -1.4349999999999998E-002    -3.5748628080186540E-007
  -1.4300000000000000E-002    -3.6565653783917798E-007
  -1.4249999999999999E-002    -3.7401462006230338E-007
  -1.4200000000000001E-002    -3.8255822843770362E-007
  -1.4149999999999999E-002    -3.9128489541479629E-007
  -1.4099999999999998E-002    -4.0019337224058429E-007
  -1.4050000000000000E-002    -4.0928440149988126E-007
  -1.3999999999999999E-002    -4.1856028011622951E-007
  -1.3950000000000001E-002    -4.2802364962879718E-007
  -1.3899999999999999E-002    -4.3767577492208156E-007
  -1.3850000000000001E-002    -4.4751563859947029E-007
  -1.3800000000000000E-002    -4.5753959151128164E-007
  -1.3749999999999998E-002    -4.6774248913894634E-007
  -1.3700000000000000E-002    -4.7811938282943640E-007
  -1.3649999999999999E-002    -4.8866770431013331E-007
  -1.3600000000000001E-002    -4.9938825945170945E-007
  -1.3550000000000000E-002    -5.1028531888199181E-007
  -1.3499999999999998E-002    -5.2136550273484471E-007
  -1.3450000000000000E-002    -5.3263550893083039E-007
  -1.3399999999999999E-002    -5.4409999244067416E-007
  -1.3350000000000001E-002    -5.5576001158883871E-007
  -1.3299999999999999E-002    -5.6761336167765913E-007
  -1.3249999999999998E-002    -5.7965582511735767E-007
  -1.3200000000000000E-002    -5.9188370884513780E-007
  -1.3149999999999998E-002    -6.0429640555836736E-007
  -1.3100000000000001E-002    -6.1689764429419413E-007
  -1.3049999999999999E-002    -6.2969560989778614E-007
  -1.3000000000000001E-002    -6.4270140304939389E-007
  -1.2950000000000000E-002    -6.5592654136647852E-007
  -1.2899999999999998E-002    -6.6938088605915415E-007
  -1.2850000000000000E-002    -6.8307098063185328E-007
  -1.2799999999999999E-002    -6.9700079323652810E-007