  -4.0000000000000001E-002     0.0000000000000000     
  -3.9949999999999999E-002     0.0000000000000000     
  -3.9899999999999998E-002     0.0000000000000000     
  -3.9850000000000003E-002     0.0000000000000000     
  -3.9800000000000002E-002     0.0000000000000000     
  -3.9750000000000001E-002     0.0000000000000000     
  -3.9699999999999999E-002     0.0000000000000000     
  -3.9649999999999998E-002     0.0000000000000000     
  -3.9600000000000003E-002     0.0000000000000000     
  -3.9550000000000002E-002     0.0000000000000000     
  -3.9500000000000000E-002     0.0000000000000000     
  -3.9449999999999999E-002     0.0000000000000000     
  -3.9399999999999998E-002     0.0000000000000000     
  -3.9350000000000003E-002     0.0000000000000000     
  -3.9300000000000002E-002     0.0000000000000000     
  -3.9250000000000000E-002     0.0000000000000000     
  -3.9199999999999999E-002     0.0000000000000000     
  -3.9150000000000004E-002     0.0000000000000000     
  -3.9100000000000003E-002     0.0000000000000000     
  -3.9050000000000001E-002     0.0000000000000000     
  -3.9000000000000000E-002     0.0000000000000000     
  -3.8949999999999999E-002     0.0000000000000000     
  -3.8900000000000004E-002     0.0000000000000000     
  -3.8850000000000003E-002     0.0000000000000000     
  -3.8800000000000001E-002     0.0000000000000000     
  -3.8750000000000000E-002     0.0000000000000000     
  -3.8699999999999998E-002     0.0000000000000000     
  -3.8650000000000004E-002     0.0000000000000000     
  -3.8600000000000002E-002     0.0000000000000000     
  -3.8550000000000001E-002     0.0000000000000000     
  -3.8500000000000000E-002     0.0000000000000000     
  -3.8449999999999998E-002     0.0000000000000000     
  -3.8400000000000004E-002     0.0000000000000000     
  -3.8350000000000002E-002     0.0000000000000000     
  -3.8300000000000001E-002     0.0000000000000000     
  -3.8249999999999999E-002     0.0000000000000000     
  -3.8199999999999998E-002     0.0000000000000000     
  -3.8150000000000003E-002     0.0000000000000000     
  -3.8100000000000002E-002     0.0000000000000000     
  -3.8050000000000000E-002     0.0000000000000000     
  -3.7999999999999999E-002     0.0000000000000000     
  -3.7949999999999998E-002     0.0000000000000000     
  -3.7900000000000003E-002     0.0000000000000000     
  -3.7850000000000002E-002     0.0000000000000000     
  -3.7800000000000000E-002     0.0000000000000000     
  -3.7749999999999999E-002     0.0000000000000000     
  -3.7699999999999997E-002     0.0000000000000000     
  -3.7650000000000003E-002     0.0000000000000000     
  -3.7600000000000001E-002     0.0000000000000000     
  -3.7550000000000000E-002     0.0000000000000000     
  -3.7499999999999999E-002     0.0000000000000000     
  -3.7449999999999997E-002     0.0000000000000000     
  -3.7400000000000003E-002     0.0000000000000000     
  -3.7350000000000001E-002     0.0000000000000000     
  -3.7300000000000000E-002     0.0000000000000000     
  -3.7249999999999998E-002     0.0000000000000000     
  -3.7200000000000004E-002     0.0000000000000000     
  -3.7150000000000002E-002     0.0000000000000000     
  -3.7100000000000001E-002     0.0000000000000000     
  -3.7050000000000000E-002     0.0000000000000000     
  -3.6999999999999998E-002     0.0000000000000000     
  -3.6950000000000004E-002     0.0000000000000000     
  -3.6900000000000002E-002     0.0000000000000000     
  -3.6850000000000001E-002     0.0000000000000000     
  -3.6799999999999999E-002     0.0000000000000000     
  -3.6749999999999998E-002     0.0000000000000000     
  -3.6700000000000003E-002     0.0000000000000000     
  -3.6650000000000002E-002     0.0000000000000000     
  -3.6600000000000001E-002     0.0000000000000000     
  -3.6549999999999999E-002     0.0000000000000000     
  -3.6499999999999998E-002     0.0000000000000000     
  -3.6450000000000003E-002     0.0000000000000000     
  -3.6400000000000002E-002     0.0000000000000000     
  -3.6350000000000000E-002     0.0000000000000000     
  -3.6299999999999999E-002     0.0000000000000000     
  -3.6249999999999998E-002     0.0000000000000000     
  -3.6200000000000003E-002     0.0000000000000000     
  -3.6150000000000002E-002     0.0000000000000000     
  -3.6100000000000000E-002     0.0000000000000000     
  -3.6049999999999999E-002     0.0000000000000000     
  -3.6000000000000004E-002     0.0000000000000000     
  -3.5950000000000003E-002     0.0000000000000000     
  -3.5900000000000001E-002     0.0000000000000000     
  -3.5850000000000000E-002     0.0000000000000000     
  -3.5799999999999998E-002     0.0000000000000000     
  -3.5750000000000004E-002     0.0000000000000000     
  -3.5700000000000003E-002     0.0000000000000000     
  -3.5650000000000001E-002     0.0000000000000000     
  -3.5600000000000000E-002     0.0000000000000000     
  -3.5549999999999998E-002     0.0000000000000000     
  -3.5500000000000004E-002     0.0000000000000000     
  -3.5450000000000002E-002     0.0000000000000000     
  -3.5400000000000001E-002     0.0000000000000000     
  -3.5349999999999999E-002     0.0000000000000000     
  -3.5299999999999998E-002     0.0000000000000000     
  -3.5250000000000004E-002     0.0000000000000000     
  -3.5200000000000002E-002     0.0000000000000000     
  -3.5150000000000001E-002     0.0000000000000000     
  -3.5099999999999999E-002     0.0000000000000000     
  -3.5049999999999998E-002     0.0000000000000000     
  -3.5000000000000003E-002     0.0000000000000000     
  -3.4950000000000002E-002     0.0000000000000000     
  -3.4900000000000000E-002     0.0000000000000000     
  -3.4849999999999999E-002     0.0000000000000000     
  -3.4799999999999998E-002     0.0000000000000000     
  -3.4750000000000003E-002     0.0000000000000000     
  -3.4700000000000002E-002     0.0000000000000000     
  -3.4650000000000000E-002     0.0000000000000000     
  -3.4599999999999999E-002     0.0000000000000000     
  -3.4549999999999997E-002     0.0000000000000000     
  -3.4500000000000003E-002     0.0000000000000000     
  -3.4450000000000001E-002     0.0000000000000000     
  -3.4400000000000000E-002     0.0000000000000000     
  -3.4349999999999999E-002     0.0000000000000000     
  -3.4299999999999997E-002     0.0000000000000000     
  -3.4250000000000003E-002     0.0000000000000000     
  -3.4200000000000001E-002     0.0000000000000000     
  -3.4150000000000000E-002     0.0000000000000000     
  -3.4099999999999998E-002     0.0000000000000000     
  -3.4049999999999997E-002     0.0000000000000000     
  -3.4000000000000002E-002     0.0000000000000000     
  -3.3950000000000001E-002     0.0000000000000000     
  -3.3900000000000000E-002     0.0000000000000000     
  -3.3849999999999998E-002     0.0000000000000000     
  -3.3799999999999997E-002     0.0000000000000000     
  -3.3750000000000002E-002     0.0000000000000000     
  -3.3700000000000001E-002     0.0000000000000000     
  -3.3649999999999999E-002     0.0000000000000000     
  -3.3599999999999998E-002     0.0000000000000000     
  -3.3550000000000003E-002     0.0000000000000000     
  -3.3500000000000002E-002     0.0000000000000000     
  -3.3450000000000001E-002     0.0000000000000000     
  -3.3399999999999999E-002     0.0000000000000000     
  -3.3349999999999998E-002     0.0000000000000000     
  -3.3300000000000003E-002     0.0000000000000000     
  -3.3250000000000002E-002     0.0000000000000000     
  -3.3200000000000000E-002     0.0000000000000000     
  -3.3149999999999999E-002     0.0000000000000000     
  -3.3099999999999997E-002     0.0000000000000000     
  -3.3050000000000003E-002     0.0000000000000000     
  -3.3000000000000002E-002     0.0000000000000000     
  -3.2950000000000000E-002     0.0000000000000000     
  -3.2899999999999999E-002     0.0000000000000000     
  -3.2850000000000004E-002     0.0000000000000000     
  -3.2800000000000003E-002     0.0000000000000000     
  -3.2750000000000001E-002     0.0000000000000000     
  -3.2700000000000000E-002     0.0000000000000000     
  -3.2649999999999998E-002     0.0000000000000000     
  -3.2600000000000004E-002     0.0000000000000000     
  -3.2550000000000003E-002     0.0000000000000000     
  -3.2500000000000001E-002     0.0000000000000000     
  -3.2450000000000000E-002     0.0000000000000000     
  -3.2399999999999998E-002     0.0000000000000000     
  -3.2350000000000004E-002     0.0000000000000000     
  -3.2300000000000002E-002     0.0000000000000000     
  -3.2250000000000001E-002     0.0000000000000000     
  -3.2199999999999999E-002     0.0000000000000000     
  -3.2149999999999998E-002     0.0000000000000000     
  -3.2100000000000004E-002     0.0000000000000000     
  -3.2050000000000002E-002     0.0000000000000000     
  -3.2000000000000001E-002     0.0000000000000000     
  -3.1949999999999999E-002     0.0000000000000000     
  -3.1899999999999998E-002     0.0000000000000000     
  -3.1850000000000003E-002     0.0000000000000000     
  -3.1800000000000002E-002     0.0000000000000000     
  -3.1750000000000000E-002     0.0000000000000000     
  -3.1699999999999999E-002     0.0000000000000000     
  -3.1649999999999998E-002     0.0000000000000000     
  -3.1600000000000003E-002     0.0000000000000000     
  -3.1550000000000002E-002     0.0000000000000000     
  -3.1500000000000000E-002     0.0000000000000000     
  -3.1449999999999999E-002     0.0000000000000000     
  -3.1399999999999997E-002     0.0000000000000000     
  -3.1350000000000003E-002     0.0000000000000000     
  -3.1300000000000001E-002     0.0000000000000000     
  -3.1250000000000000E-002     0.0000000000000000     
  -3.1199999999999999E-002     0.0000000000000000     
  -3.1150000000000001E-002     0.0000000000000000     
  -3.1100000000000003E-002     0.0000000000000000     
  -3.1050000000000001E-002     0.0000000000000000     
  -3.1000000000000000E-002     0.0000000000000000     
  -3.0949999999999998E-002     0.0000000000000000     
  -3.0900000000000000E-002     0.0000000000000000     
  -3.0850000000000002E-002     0.0000000000000000     
  -3.0800000000000001E-002     0.0000000000000000     
  -3.0750000000000000E-002     0.0000000000000000     
  -3.0699999999999998E-002     0.0000000000000000     
  -3.0650000000000000E-002     0.0000000000000000     
  -3.0600000000000002E-002     0.0000000000000000     
  -3.0550000000000001E-002     0.0000000000000000     
  -3.0499999999999999E-002     0.0000000000000000     
  -3.0449999999999998E-002     0.0000000000000000     
  -3.0400000000000000E-002     0.0000000000000000     
  -3.0350000000000002E-002     0.0000000000000000     
  -3.0300000000000001E-002     0.0000000000000000     
  -3.0249999999999999E-002     0.0000000000000000     
  -3.0200000000000001E-002     0.0000000000000000     
  -3.0150000000000000E-002     0.0000000000000000     
  -3.0100000000000002E-002     0.0000000000000000     
  -3.0050000000000000E-002     0.0000000000000000     
  -2.9999999999999999E-002     0.0000000000000000     
  -2.9950000000000001E-002     0.0000000000000000     
  -2.9899999999999999E-002     0.0000000000000000     
  -2.9850000000000002E-002     0.0000000000000000     
  -2.9800000000000000E-002     0.0000000000000000     
  -2.9749999999999999E-002     0.0000000000000000     
  -2.9700000000000001E-002     0.0000000000000000     
  -2.9650000000000003E-002     0.0000000000000000     
  -2.9600000000000001E-002     0.0000000000000000     
  -2.9550000000000000E-002     0.0000000000000000     
  -2.9499999999999998E-002     0.0000000000000000     
  -2.9450000000000000E-002     0.0000000000000000     
  -2.9400000000000003E-002     0.0000000000000000     
  -2.9350000000000001E-002     0.0000000000000000     
  -2.9300000000000000E-002     0.0000000000000000     
  -2.9249999999999998E-002     0.0000000000000000     
  -2.9200000000000000E-002     0.0000000000000000     
  -2.9150000000000002E-002     0.0000000000000000     
  -2.9100000000000001E-002     0.0000000000000000     
  -2.9049999999999999E-002     0.0000000000000000     
  -2.8999999999999998E-002     0.0000000000000000     
  -2.8950000000000000E-002     0.0000000000000000     
  -2.8900000000000002E-002     0.0000000000000000     
  -2.8850000000000001E-002     0.0000000000000000     
  -2.8799999999999999E-002     0.0000000000000000     
  -2.8749999999999998E-002     0.0000000000000000     
  -2.8700000000000000E-002     0.0000000000000000     
  -2.8650000000000002E-002     0.0000000000000000     
  -2.8600000000000000E-002     0.0000000000000000     
  -2.8549999999999999E-002     0.0000000000000000     
  -2.8500000000000001E-002     0.0000000000000000     
  -2.8450000000000000E-002     0.0000000000000000     
  -2.8400000000000002E-002     0.0000000000000000     
  -2.8350000000000000E-002     0.0000000000000000     
  -2.8299999999999999E-002     0.0000000000000000     
  -2.8250000000000001E-002     0.0000000000000000     
  -2.8200000000000003E-002     0.0000000000000000     
  -2.8150000000000001E-002     0.0000000000000000     
  -2.8100000000000000E-002     0.0000000000000000     
  -2.8049999999999999E-002     0.0000000000000000     
  -2.8000000000000001E-002     0.0000000000000000     
  -2.7950000000000003E-002     0.0000000000000000     
  -2.7900000000000001E-002     0.0000000000000000     
  -2.7850000000000000E-002     0.0000000000000000     
  -2.7799999999999998E-002     0.0000000000000000     
  -2.7750000000000000E-002     0.0000000000000000     
  -2.7700000000000002E-002     0.0000000000000000     
  -2.7650000000000001E-002     0.0000000000000000     
  -2.7600000000000000E-002     0.0000000000000000     
  -2.7549999999999998E-002     0.0000000000000000     
  -2.7500000000000000E-002     0.0000000000000000     
  -2.7450000000000002E-002     0.0000000000000000     
  -2.7400000000000001E-002     0.0000000000000000     
  -2.7349999999999999E-002     0.0000000000000000     
  -2.7299999999999998E-002     0.0000000000000000     
  -2.7250000000000000E-002     0.0000000000000000     
  -2.7200000000000002E-002     0.0000000000000000     
  -2.7150000000000001E-002     0.0000000000000000     
  -2.7099999999999999E-002     0.0000000000000000     
  -2.7049999999999998E-002     0.0000000000000000     
  -2.7000000000000000E-002     0.0000000000000000     
  -2.6950000000000002E-002     0.0000000000000000     
  -2.6900000000000000E-002     0.0000000000000000     
  -2.6849999999999999E-002     0.0000000000000000     
  -2.6800000000000001E-002     0.0000000000000000     
  -2.6749999999999999E-002     0.0000000000000000     
  -2.6700000000000002E-002     0.0000000000000000     
  -2.6650000000000000E-002     0.0000000000000000     
  -2.6599999999999999E-002     0.0000000000000000     
  -2.6550000000000001E-002     0.0000000000000000     
  -2.6500000000000003E-002     0.0000000000000000     
  -2.6450000000000001E-002     0.0000000000000000     
  -2.6400000000000000E-002     0.0000000000000000     
  -2.6349999999999998E-002     0.0000000000000000     
  -2.6300000000000000E-002     0.0000000000000000     
  -2.6250000000000002E-002     0.0000000000000000     
  -2.6200000000000001E-002     0.0000000000000000     
  -2.6150000000000000E-002     0.0000000000000000     
  -2.6099999999999998E-002     0.0000000000000000     
  -2.6050000000000000E-002     0.0000000000000000     
  -2.6000000000000002E-002     0.0000000000000000     
  -2.5950000000000001E-002     0.0000000000000000     
  -2.5899999999999999E-002     0.0000000000000000     
  -2.5849999999999998E-002     0.0000000000000000     
  -2.5800000000000000E-002     0.0000000000000000     
  -2.5750000000000002E-002     0.0000000000000000     
  -2.5700000000000001E-002     0.0000000000000000     
  -2.5649999999999999E-002     0.0000000000000000     
  -2.5599999999999998E-002     0.0000000000000000     
  -2.5550000000000000E-002     0.0000000000000000     
  -2.5500000000000002E-002     0.0000000000000000     
  -2.5450000000000000E-002     0.0000000000000000     
  -2.5399999999999999E-002     0.0000000000000000     
  -2.5349999999999998E-002     0.0000000000000000     
  -2.5300000000000000E-002     0.0000000000000000     
  -2.5250000000000002E-002     0.0000000000000000     
  -2.5200000000000000E-002     0.0000000000000000     
  -2.5149999999999999E-002     0.0000000000000000     
  -2.5100000000000001E-002     0.0000000000000000     
  -2.5049999999999999E-002     0.0000000000000000     
  -2.5000000000000001E-002     0.0000000000000000     
  -2.4950000000000000E-002     0.0000000000000000     
  -2.4899999999999999E-002     0.0000000000000000     
  -2.4850000000000001E-002     0.0000000000000000     
  -2.4800000000000003E-002     0.0000000000000000     
  -2.4750000000000001E-002     0.0000000000000000     
  -2.4700000000000000E-002     0.0000000000000000     
  -2.4649999999999998E-002     0.0000000000000000     
  -2.4600000000000000E-002     0.0000000000000000     
  -2.4550000000000002E-002     0.0000000000000000     
  -2.4500000000000001E-002     0.0000000000000000     
  -2.4450000000000000E-002     0.0000000000000000     
  -2.4399999999999998E-002     0.0000000000000000     
  -2.4350000000000000E-002     0.0000000000000000     
  -2.4299999999999999E-002     0.0000000000000000     
  -2.4250000000000001E-002     0.0000000000000000     
  -2.4199999999999999E-002     0.0000000000000000     
  -2.4150000000000001E-002     0.0000000000000000     
  -2.4100000000000000E-002     0.0000000000000000     
  -2.4049999999999998E-002     0.0000000000000000     
  -2.4000000000000000E-002     0.0000000000000000     
  -2.3949999999999999E-002     0.0000000000000000     
  -2.3900000000000001E-002     0.0000000000000000     
  -2.3850000000000000E-002     0.0000000000000000     
  -2.3800000000000002E-002     0.0000000000000000     
  -2.3750000000000000E-002     0.0000000000000000     
  -2.3699999999999999E-002     0.0000000000000000     
  -2.3650000000000001E-002     0.0000000000000000     
  -2.3599999999999999E-002     0.0000000000000000     
  -2.3550000000000001E-002     0.0000000000000000     
  -2.3500000000000000E-002     0.0000000000000000     
  -2.3449999999999999E-002     0.0000000000000000     
  -2.3400000000000001E-002     0.0000000000000000     
  -2.3349999999999999E-002     0.0000000000000000     
  -2.3300000000000001E-002     0.0000000000000000     
  -2.3250000000000000E-002     0.0000000000000000     
  -2.3199999999999998E-002     0.0000000000000000     
  -2.3150000000000000E-002     0.0000000000000000     
  -2.3099999999999999E-002     0.0000000000000000     
  -2.3050000000000001E-002     0.0000000000000000     
  -2.3000000000000000E-002     0.0000000000000000     
  -2.2950000000000002E-002     0.0000000000000000     
  -2.2900000000000000E-002     0.0000000000000000     
  -2.2849999999999999E-002     0.0000000000000000     
  -2.2800000000000001E-002     0.0000000000000000     
  -2.2749999999999999E-002     0.0000000000000000     
  -2.2700000000000001E-002     0.0000000000000000     
  -2.2650000000000000E-002     0.0000000000000000     
  -2.2599999999999999E-002     0.0000000000000000     
  -2.2550000000000001E-002     0.0000000000000000     
  -2.2499999999999999E-002     0.0000000000000000     
  -2.2450000000000001E-002     0.0000000000000000     
  -2.2400000000000000E-002     0.0000000000000000     
  -2.2349999999999998E-002     0.0000000000000000     
  -2.2300000000000000E-002     0.0000000000000000     
  -2.2249999999999999E-002     0.0000000000000000     
  -2.2200000000000001E-002     0.0000000000000000     
  -2.2150000000000000E-002     0.0000000000000000     
  -2.2100000000000002E-002     0.0000000000000000     
  -2.2050000000000000E-002    -2.4421689228276339E-040
  -2.1999999999999999E-002    -5.4992136754856018E-040
  -2.1950000000000001E-002    -5.4992136754856018E-040
  -2.1899999999999999E-002     0.0000000000000000     
  -2.1850000000000001E-002     8.8405271801873472E-040
  -2.1800000000000000E-002     1.8134764554935350E-039
  -2.1749999999999999E-002     2.6082423757589219E-039
  -2.1700000000000001E-002     2.1558875760874847E-039
  -2.1649999999999999E-002     8.0855336002335293E-040
  -2.1600000000000001E-002    -1.5704656733756033E-038
  -2.1550000000000000E-002    -3.6841601589367640E-038
  -2.1499999999999998E-002    -5.4588550681175577E-038
  -2.1450000000000000E-002    -5.4665310598324213E-038
  -2.1399999999999999E-002    -4.0340059183343419E-038
  -2.1350000000000001E-002    -9.2743273362321585E-040
  -2.1299999999999999E-002     4.2707068991803511E-038
  -2.1250000000000002E-002     8.3106987421604994E-038
  -2.1200000000000000E-002     1.0756333386850322E-037
  -2.1149999999999999E-002     9.5857563801039502E-038
  -2.1100000000000001E-002     5.8183287253640986E-038
  -2.1049999999999999E-002     9.2730765446709048E-039
  -2.1000000000000001E-002    -5.7915825178193631E-038
  -2.0950000000000000E-002    -1.4095480231995622E-037
  -2.0899999999999998E-002    -2.3034368231775508E-037
  -2.0850000000000000E-002    -2.8738048512744948E-037
  -2.0799999999999999E-002    -2.6485711278950616E-037
  -2.0750000000000001E-002    -1.3435005538911614E-037
  -2.0700000000000000E-002     1.3359002456454781E-037
  -2.0649999999999998E-002     5.1097921257111746E-037
  -2.0600000000000000E-002     8.9924534983775705E-037
  -2.0549999999999999E-002     1.1236226549281707E-036
  -2.0500000000000001E-002     1.0075423340333726E-036
  -2.0449999999999999E-002     4.3409661738002257E-037
  -2.0400000000000001E-002    -5.6426422014895004E-037
  -2.0350000000000000E-002    -1.7543274334157817E-036
  -2.0299999999999999E-002    -2.7242385119094683E-036
  -2.0250000000000001E-002    -3.0023013491559326E-036
  -2.0199999999999999E-002    -2.2426931561006546E-036
  -2.0150000000000001E-002    -4.1631955136761899E-037
  -2.0100000000000000E-002     2.0827446649961885E-036
  -2.0049999999999998E-002     4.4847278180194114E-036
  -2.0000000000000000E-002     5.8735519066095870E-036
  -1.9949999999999999E-002     5.5403235677466347E-036
  -1.9900000000000001E-002     3.3161430480397027E-036
  -1.9850000000000000E-002    -2.7087315626411278E-037
  -1.9799999999999998E-002    -4.1263677344789418E-036
  -1.9750000000000000E-002    -7.0011722124966770E-036
  -1.9699999999999999E-002    -8.0319192916126693E-036
  -1.9650000000000001E-002    -7.1514896832204127E-036
  -1.9599999999999999E-002    -5.1183291590890168E-036
  -1.9550000000000001E-002    -3.0646316231002207E-036
  -1.9500000000000000E-002    -1.7113715850023250E-036
  -1.9449999999999999E-002    -6.5061713485881582E-037
  -1.9400000000000001E-002     1.8065501303796542E-036
  -1.9349999999999999E-002     7.8708820711386665E-036
  -1.9300000000000001E-002     1.8676693871464577E-035
  -1.9250000000000000E-002     3.2460448515013888E-035
  -1.9199999999999998E-002     4.3545627013370933E-035
  -1.9150000000000000E-002     4.3170399196287371E-035
  -1.9099999999999999E-002     2.2626925362471224E-035
  -1.9050000000000001E-002    -2.1876283273079609E-035
  -1.9000000000000000E-002    -8.4398421823046492E-035
  -1.8949999999999998E-002    -1.4700545252322663E-034
  -1.8900000000000000E-002    -1.8232837063703887E-034
  -1.8849999999999999E-002    -1.6174543458525429E-034
  -1.8800000000000001E-002    -6.7608977204639366E-035
  -1.8749999999999999E-002     9.4532023189088025E-035
  -1.8700000000000001E-002     2.8916971410246971E-034
  -1.8650000000000000E-002     4.5434861858136895E-034
  -1.8599999999999998E-002     5.1725831253391890E-034
  -1.8550000000000001E-002     4.1905578937927147E-034
  -1.8499999999999999E-002     1.4140612940268720E-034
  -1.8450000000000001E-002    -2.7535170339274392E-034
  -1.8400000000000000E-002    -7.3140598759280504E-034
  -1.8349999999999998E-002    -1.0879531484670888E-033
  -1.8300000000000000E-002    -1.2052745036492045E-033
  -1.8249999999999999E-002    -9.8747922813234556E-034
  -1.8200000000000001E-002    -4.1927802365254889E-034
  -1.8149999999999999E-002     4.1797720745183101E-034
  -1.8100000000000002E-002     1.3566466300289166E-033
  -1.8050000000000000E-002     2.1757762444808204E-033
  -1.7999999999999999E-002     2.6455933443196978E-033
  -1.7950000000000001E-002     2.5709860804744735E-033
  -1.7899999999999999E-002     1.8267860344815407E-033
  -1.7850000000000001E-002     3.8661586294186413E-034
  -1.7800000000000000E-002    -1.6467347861020440E-033
  -1.7749999999999998E-002    -4.0044103962207063E-033
  -1.7700000000000000E-002    -6.2175136370327970E-033
  -1.7649999999999999E-002    -7.6163426594545716E-033
  -1.7600000000000001E-002    -7.4079707154820524E-033
  -1.7550000000000000E-002    -4.8707935902995148E-033
  -1.7499999999999998E-002     3.3348772934306552E-034
  -1.7450000000000000E-002     7.7962873341289222E-033
  -1.7399999999999999E-002     1.6085705021051494E-032
  -1.7350000000000001E-002     2.2739035787382959E-032
  -1.7299999999999999E-002     2.4680960637572868E-032
  -1.7250000000000001E-002     1.9109733104741737E-032
  -1.7200000000000000E-002     4.7037829822491868E-033
  -1.7149999999999999E-002    -1.7208186977607624E-032
  -1.7100000000000001E-002    -4.2011324837770616E-032
  -1.7049999999999999E-002    -6.2182583774736702E-032
  -1.7000000000000001E-002    -6.8933130855548042E-032
  -1.6950000000000000E-002    -5.4948610417454294E-032
  -1.6899999999999998E-002    -1.7566400697100457E-032
  -1.6850000000000000E-002     3.8662623576709828E-032
  -1.6799999999999999E-002     1.0117970269564918E-031
  -1.6750000000000001E-002     1.5122613866137700E-031
  -1.6700000000000000E-002     1.6836630680055928E-031
  -1.6649999999999998E-002     1.3688518459157280E-031
  -1.6600000000000000E-002     5.2340145211127942E-032
  -1.6549999999999999E-002    -7.3917270801628443E-032
  -1.6500000000000001E-002    -2.1423073842689476E-031
  -1.6449999999999999E-002    -3.2920040316805836E-031
  -1.6400000000000001E-002    -3.7694109920957383E-031
  -1.6350000000000000E-002    -3.2512262315955941E-031
  -1.6299999999999999E-002    -1.6272436494297373E-031
  -1.6250000000000001E-002     9.1932437234769789E-032
  -1.6199999999999999E-002     3.8973368403926422E-031
  -1.6150000000000001E-002     6.5737124472251425E-031
  -1.6100000000000000E-002     8.1162338257274071E-031
  -1.6049999999999998E-002     7.7911704026946563E-031
  -1.6000000000000000E-002     5.1791894036281563E-031
  -1.5949999999999999E-002     3.6408549268193752E-032
  -1.5900000000000001E-002    -5.9540226554255264E-031
  -1.5850000000000000E-002    -1.2466203913698233E-030
  -1.5799999999999998E-002    -1.7417330642447144E-030
  -1.5750000000000000E-002    -1.8936630932256500E-030
  -1.5699999999999999E-002    -1.5513300365291969E-030
  -1.5650000000000001E-002    -6.5446008107951082E-031
  -1.5599999999999999E-002     7.1717741906911612E-031
  -1.5550000000000001E-002     2.3173108592927320E-030
  -1.5500000000000000E-002     3.7473430505551542E-030
  -1.5449999999999998E-002     4.5235084524772120E-030
  -1.5400000000000000E-002     4.1965642775757685E-030
  -1.5349999999999999E-002     2.5050281348808033E-030
  -1.5300000000000001E-002    -4.7665505646093779E-031
  -1.5250000000000000E-002    -4.2470597629908637E-030
  -1.5199999999999998E-002    -7.8953803719994232E-030
  -1.5150000000000000E-002    -1.0259591528025782E-029
  -1.5099999999999999E-002    -1.0218829742603799E-029
  -1.5050000000000001E-002    -7.0647725729409370E-030
  -1.4999999999999999E-002    -8.5194093373999436E-031
  -1.4949999999999998E-002     7.3962111754759843E-030
  -1.4900000000000000E-002     1.5735143608699536E-029
  -1.4849999999999999E-002     2.1655547894360243E-029
  -1.4800000000000001E-002     2.2714270103556327E-029
  -1.4749999999999999E-002     1.7306982000013689E-029
  -1.4700000000000001E-002     5.3717043598897039E-030
  -1.4650000000000000E-002    -1.1213834506033980E-029
  -1.4599999999999998E-002    -2.8732982563805119E-029
  -1.4550000000000000E-002    -4.2306045154709831E-029
  -1.4499999999999999E-002    -4.7057855699831629E-029
  -1.4450000000000001E-002    -3.9530883908289823E-029
  -1.4400000000000000E-002    -1.8981823880920982E-029
  -1.4349999999999998E-002     1.1828313920803241E-029
  -1.4300000000000000E-002     4.6662584810780221E-029
  -1.4249999999999999E-002     7.6793132350265084E-029
  -1.4200000000000001E-002     9.2849122012741209E-029
  -1.4149999999999999E-002     8.7197781585129738E-029
  -1.4099999999999998E-002     5.6344863552818914E-029
  -1.4050000000000000E-002     2.7539726751859664E-030
  -1.3999999999999999E-002    -6.4479559054676703E-029
  -1.3950000000000001E-002    -1.3050047057979775E-028
  -1.3899999999999999E-002    -1.7723307886745357E-028
  -1.3850000000000001E-002    -1.8734833357317124E-028
  -1.3800000000000000E-002    -1.4902034377101917E-028
  -1.3749999999999998E-002    -6.0470529216959194E-029
  -1.3700000000000000E-002     6.6937994219513644E-029
  -1.3649999999999999E-002     2.0829171992957841E-028
  -1.3600000000000001E-002     3.2830439367006717E-028
  -1.3550000000000000E-002     3.8827187830230277E-028
  -1.3499999999999998E-002     3.5597285448400788E-028
  -1.3450000000000000E-002     2.1654808156305686E-028
  -1.3399999999999999E-002    -1.8534420398370871E-029
  -1.3350000000000001E-002    -3.0765191507977615E-028
  -1.3299999999999999E-002    -5.8297560151148460E-028
  -1.3249999999999998E-002    -7.6321749593871491E-028
  -1.3200000000000000E-002    -7.7376085365384984E-028
  -1.3149999999999998E-002    -5.7006086220816227E-028
  -1.3100000000000001E-002    -1.5807732427458024E-028
  -1.3049999999999999E-002     3.9519791997551977E-028
  -1.3000000000000001E-002     9.6671326821398480E-028
  -1.2950000000000000E-002     1.3999803298727463E-027
  -1.2899999999999998E-002     1.5425822365657072E-027
  -1.2850000000000000E-002     1.2906736352089512E-027
  -1.2799999999999999E-002     6.2882716069794350E-028