  -4.0000000000000001E-002     0.0000000000000000     
  -3.9949999999999999E-002     0.0000000000000000     
  -3.9899999999999998E-002     0.0000000000000000     
  -3.9850000000000003E-002     0.0000000000000000     
  -3.9800000000000002E-002     0.0000000000000000     
  -3.9750000000000001E-002     0.0000000000000000     
  -3.9699999999999999E-002     0.0000000000000000     
  -3.9649999999999998E-002     0.0000000000000000     
  -3.9600000000000003E-002     0.0000000000000000     
  -3.9550000000000002E-002     0.0000000000000000     
  -3.9500000000000000E-002     0.0000000000000000     
  -3.9449999999999999E-002     0.0000000000000000     
  -3.9399999999999998E-002     0.0000000000000000     
  -3.9350000000000003E-002     0.0000000000000000     
  -3.9300000000000002E-002    -6.8270316340253308E-038
  -3.9250000000000000E-002    -8.7666778619143691E-037
  -3.9199999999999999E-002    -3.6500602312774218E-036
  -3.9150000000000004E-002     9.1643325117084452E-036
  -3.9100000000000003E-002     1.9382140811191377E-034
  -3.9050000000000001E-002     1.1964675572117166E-033
  -3.9000000000000000E-002     4.4593462466558902E-033
  -3.8949999999999999E-002     1.0446978558492229E-032
  -3.8900000000000004E-002     9.9539598873907095E-033
  -3.8850000000000003E-002    -3.4582073625691559E-032
  -3.8800000000000001E-002    -2.0296753619438797E-031
  -3.8750000000000000E-002    -5.7720902375930394E-031
  -3.8699999999999998E-002    -1.0929163547034845E-030
  -3.8650000000000004E-002    -1.3314544553213631E-030
  -3.8600000000000002E-002    -4.6631781220264593E-031
  -3.8550000000000001E-002     2.6354447103378281E-030
  -3.8500000000000000E-002     1.0346459491940984E-029
  -3.8449999999999998E-002     3.0783614539946247E-029
  -3.8400000000000004E-002     8.5232221902757100E-029
  -3.8350000000000002E-002     2.0263938812194602E-028
  -3.8300000000000001E-002     3.5980371817205755E-028
  -3.8249999999999999E-002     3.2353033742118214E-028
  -3.8199999999999998E-002    -5.5450061429531433E-028
  -3.8150000000000003E-002    -3.2916938105229913E-027
  -3.8100000000000002E-002    -8.3916235050276842E-027
  -3.8050000000000000E-002    -1.3650917769409005E-026
  -3.7999999999999999E-002    -1.1342732889065435E-026
  -3.7949999999999998E-002     1.2157329012607167E-026
  -3.7900000000000003E-002     6.9063974938373269E-026
  -3.7850000000000002E-002     1.5151835563611851E-025
  -3.7800000000000000E-002     2.0702570996021043E-025
  -3.7749999999999999E-002     1.2939911238417784E-025
  -3.7699999999999997E-002    -2.0142140670478599E-025
  -3.7650000000000003E-002    -8.0952396707566016E-025
  -3.7600000000000001E-002    -1.4745178036810794E-024
  -3.7550000000000000E-002    -1.6559315925691875E-024
  -3.7499999999999999E-002    -6.5077951074728937E-025
  -3.7449999999999997E-002     1.9261981552753986E-024
  -3.7400000000000003E-002     5.4871326347709038E-024
  -3.7350000000000001E-002     8.1039113576646265E-024
  -3.7300000000000000E-002     7.0333692516509942E-024
  -3.7249999999999998E-002     4.0254776722149489E-025
  -3.7200000000000004E-002    -1.0563654289290126E-023
  -3.7150000000000002E-002    -2.0398794287480080E-023
  -3.7100000000000001E-002    -2.1199538354678449E-023
  -3.7050000000000000E-002    -7.8829467095584000E-024
  -3.6999999999999998E-002     1.5444516089570384E-023
  -3.6950000000000004E-002     3.3048246269020508E-023
  -3.6900000000000002E-002     2.4022445718463051E-023
  -3.6850000000000001E-002    -2.2051086021218445E-023
  -3.6799999999999999E-002    -8.7913164470704360E-023
  -3.6749999999999998E-002    -1.2379830722084536E-022
  -3.6700000000000003E-002    -6.6806838569159110E-023
  -3.6650000000000002E-002     1.1689549653092357E-022
  -3.6600000000000001E-002     3.8751592296883151E-022
  -3.6549999999999999E-002     6.1712957435506179E-022
  -3.6499999999999998E-002     6.2934445363742324E-022
  -3.6450000000000003E-002     2.8684518129428882E-022
  -3.6400000000000002E-002    -4.1595018049976754E-022
  -3.6350000000000000E-002    -1.3129707849784817E-021
  -3.6299999999999999E-002    -2.1115141438908553E-021
  -3.6249999999999998E-002    -2.4973150051739858E-021
  -3.6200000000000003E-002    -2.2272247278184545E-021
  -3.6150000000000002E-002    -1.1466949725219991E-021
  -3.6100000000000000E-002     8.5194842268342848E-022
  -3.6049999999999999E-002     3.8182816722506030E-021
  -3.6000000000000004E-002     7.5499464689667247E-021
  -3.5950000000000003E-002     1.1217469182960224E-020
  -3.5900000000000001E-002     1.3050621363040681E-020
  -3.5850000000000000E-002     1.0513790760861922E-020
  -3.5799999999999998E-002     1.3114948999295225E-021
  -3.5750000000000004E-002    -1.4887052151379689E-020
  -3.5700000000000003E-002    -3.4767664577851239E-020
  -3.5650000000000001E-002    -5.0937328114143538E-020
  -3.5600000000000000E-002    -5.3721456885436717E-020
  -3.5549999999999998E-002    -3.5164995342574744E-020
  -3.5500000000000004E-002     6.2047279798645849E-021
  -3.5450000000000002E-002     6.2285050266763269E-020
  -3.5400000000000001E-002     1.1615980688563683E-019
  -3.5349999999999999E-002     1.4721399595638921E-019
  -3.5299999999999998E-002     1.3870754150012225E-019
  -3.5250000000000004E-002     8.4245065409229675E-020
  -3.5200000000000002E-002    -1.0073279695438454E-020
  -3.5150000000000001E-002    -1.2847038914635064E-019
  -3.5099999999999999E-002    -2.5051681452030702E-019
  -3.5049999999999998E-002    -3.5373862914930023E-019
  -3.5000000000000003E-002    -4.1089376145490248E-019
  -3.4950000000000002E-002    -3.8425787456237200E-019
  -3.4900000000000000E-002    -2.2526550911895922E-019
  -3.4849999999999999E-002     1.1006103317356871E-019
  -3.4799999999999998E-002     6.2526279978479154E-019
  -3.4750000000000003E-002     1.2363967072065610E-018
  -3.4700000000000002E-002     1.7394549056873003E-018
  -3.4650000000000000E-002     1.8268993704644350E-018
  -3.4599999999999999E-002     1.1792579770169861E-018
  -3.4549999999999997E-002    -3.7270093917567169E-019
  -3.4500000000000003E-002    -2.6645079410232140E-018
  -3.4450000000000001E-002    -5.0823212369562977E-018
  -3.4400000000000000E-002    -6.6136354523118148E-018
  -3.4349999999999999E-002    -6.1230636034240214E-018
  -3.4299999999999997E-002    -2.8227201629980955E-018
  -3.4250000000000003E-002     3.2049392668123087E-018
  -3.4200000000000001E-002     1.0659145457519557E-017
  -3.4150000000000000E-002     1.7080773022012811E-017
  -3.4099999999999998E-002     1.9448463607627820E-017
  -3.4049999999999997E-002     1.5237732558992763E-017
  -3.4000000000000002E-002     3.6373048843867526E-018
  -3.3950000000000001E-002    -1.3547337388966871E-017
  -3.3900000000000000E-002    -3.1774912232099329E-017
  -3.3849999999999998E-002    -4.4701823770945523E-017
  -3.3799999999999997E-002    -4.6068049301693679E-017
  -3.3750000000000002E-002    -3.2026329622132244E-017
  -3.3700000000000001E-002    -3.1219377587834115E-018
  -3.3649999999999999E-002     3.4885984457950555E-017
  -3.3599999999999998E-002     7.1870140729682603E-017
  -3.3550000000000003E-002     9.5817244265072899E-017
  -3.3500000000000002E-002     9.6325648851504235E-017
  -3.3450000000000001E-002     6.8083955415996546E-017
  -3.3399999999999999E-002     1.3229948721872784E-017
  -3.3349999999999998E-002    -5.8192965221744694E-017
  -3.3300000000000003E-002    -1.2988666890008245E-016
  -3.3250000000000002E-002    -1.8265376811941623E-016
  -3.3200000000000000E-002    -1.9864933962825108E-016
  -3.3149999999999999E-002    -1.6563731681822588E-016
  -3.3099999999999997E-002    -8.0543754362345057E-017
  -3.3050000000000003E-002     4.8145102065442656E-017
  -3.3000000000000002E-002     1.9948456466545302E-016
  -3.2950000000000000E-002     3.4114811777905272E-016
  -3.2899999999999999E-002     4.3318444072069973E-016
  -3.2850000000000004E-002     4.3514986209653128E-016
  -3.2800000000000003E-002     3.1668807358198656E-016
  -3.2750000000000001E-002     7.0238079546681188E-017
  -3.2700000000000000E-002    -2.7731637827412104E-016
  -3.2649999999999998E-002    -6.5883528167067480E-016
  -3.2600000000000004E-002    -9.7202323735067097E-016
  -3.2550000000000003E-002    -1.0986831121943931E-015
  -3.2500000000000001E-002    -9.3723375088382848E-016
  -3.2450000000000000E-002    -4.4204748744179125E-016
  -3.2399999999999998E-002     3.4200484632859732E-016
  -3.2350000000000004E-002     1.2638825115756651E-015
  -3.2300000000000002E-002     2.0815191926196257E-015
  -3.2250000000000001E-002     2.5123683108611818E-015
  -3.2199999999999999E-002     2.3126451652291455E-015
  -3.2149999999999998E-002     1.3665200761255865E-015
  -3.2100000000000004E-002    -2.4203714470885915E-016
  -3.2050000000000002E-002    -2.2031632279007594E-015
  -3.2000000000000001E-002    -4.0206901984624377E-015
  -3.1949999999999999E-002    -5.1201732576434089E-015
  -3.1899999999999998E-002    -5.0063238028448121E-015
  -3.1850000000000003E-002    -3.4308313767002614E-015
  -3.1800000000000002E-002    -5.2040124215184384E-016
  -3.1750000000000000E-002     3.1823247155618929E-015
  -3.1699999999999999E-002     6.7939958669536483E-015
  -3.1649999999999998E-002     9.2805166510502762E-015
  -3.1600000000000003E-002     9.7254519172567882E-015
  -3.1550000000000002E-002     7.6113752867859743E-015
  -3.1500000000000000E-002     3.0348316792329654E-015
  -3.1449999999999999E-002    -3.2166883246972653E-015
  -3.1399999999999997E-002    -9.7677208373867933E-015
  -3.1350000000000003E-002    -1.4934315784455270E-014
  -3.1300000000000001E-002    -1.7126959078757939E-014
  -3.1250000000000000E-002    -1.5283702324354899E-014
  -3.1199999999999999E-002    -9.2219838665455072E-015
  -3.1150000000000001E-002     1.9215891461460057E-016
  -3.1100000000000003E-002     1.1120684713327140E-014
  -3.1050000000000001E-002     2.1081885873497165E-014
  -3.1000000000000000E-002     2.7474239329840039E-014
  -3.0949999999999998E-002     2.8188213377970792E-014
  -3.0900000000000000E-002     2.2170811897920371E-014
  -3.0850000000000002E-002     9.8101821739104324E-015
  -3.0800000000000001E-002    -6.9610912546583470E-015
  -3.0750000000000000E-002    -2.4892786424926362E-014
  -3.0699999999999998E-002    -3.9960365584827426E-014
  -3.0650000000000000E-002    -4.8149696448395518E-014
  -3.0600000000000002E-002    -4.6356157500363827E-014
  -3.0550000000000001E-002    -3.3234018498658551E-014
  -3.0499999999999999E-002    -9.8147756704108306E-015
  -3.0449999999999998E-002     2.0279291845071711E-014
  -3.0400000000000000E-002     5.1159606906364427E-014
  -3.0350000000000002E-002     7.5587554227603709E-014
  -3.0300000000000001E-002     8.6416651015973363E-014
  -3.0249999999999999E-002     7.8347536122580810E-014
  -3.0200000000000001E-002     4.9638805304543688E-014
  -3.0150000000000000E-002     3.3204874705217062E-015
  -3.0100000000000002E-002    -5.2540331299577407E-014
  -3.0050000000000000E-002    -1.0583512109036683E-013
  -2.9999999999999999E-002    -1.4270968156906238E-013
  -2.9950000000000001E-002    -1.5083313052429294E-013
  -2.9899999999999999E-002    -1.2294758276264789E-013
  -2.9850000000000002E-002    -5.9760555590564369E-014
  -2.9800000000000000E-002     2.8772446161261680E-014
  -2.9749999999999999E-002     1.2445311592289104E-013
  -2.9700000000000001E-002     2.0427154489584816E-013
  -2.9650000000000003E-002     2.4571682500515122E-013
  -2.9600000000000001E-002     2.3278053627307583E-013
  -2.9550000000000000E-002     1.6108237534263727E-013
  -2.9499999999999998E-002     4.0574739459499395E-014
  -2.9450000000000000E-002    -1.0522548456282608E-013
  -2.9400000000000003E-002    -2.4367213091150464E-013
  -2.9350000000000001E-002    -3.4028070869682998E-013
  -2.9300000000000000E-002    -3.6720159877200464E-013
  -2.9249999999999998E-002    -3.1074621406215128E-013
  -2.9200000000000000E-002    -1.7595158998655736E-013
  -2.9150000000000002E-002     1.3158411717590648E-014
  -2.9100000000000001E-002     2.1789670463998096E-013
  -2.9049999999999999E-002     3.9295065975544677E-013
  -2.8999999999999998E-002     4.9633392412157176E-013
  -2.8950000000000000E-002     4.9899066635866948E-013
  -2.8900000000000002E-002     3.9189405694054610E-013
  -2.8850000000000001E-002     1.8908330766896142E-013
  -2.8799999999999999E-002    -7.4005656194240480E-014
  -2.8749999999999998E-002    -3.4659738548147793E-013
  -2.8700000000000000E-002    -5.7189228721010703E-013
  -2.8650000000000002E-002    -6.9798770723566146E-013
  -2.8600000000000000E-002    -6.8853369393734511E-013
  -2.8549999999999999E-002    -5.3128885778451606E-013
  -2.8500000000000001E-002    -2.4297192127943978E-013
  -2.8450000000000000E-002     1.3080587401152630E-013
  -2.8400000000000002E-002     5.2116451819284595E-013
  -2.8350000000000000E-002     8.4697161643016117E-013
  -2.8299999999999999E-002     1.0300600350192867E-012
  -2.8250000000000001E-002     1.0123211274979773E-012
  -2.8200000000000003E-002     7.7135847285093810E-013
  -2.8150000000000001E-002     3.3088553611771300E-013
  -2.8100000000000000E-002    -2.3760178100535612E-013
  -2.8049999999999999E-002    -8.2398158150790505E-013
  -2.8000000000000001E-002    -1.2992943419878206E-012
  -2.7950000000000003E-002    -1.5431666953817201E-012
  -2.7900000000000001E-002    -1.4733016590954831E-012
  -2.7850000000000000E-002    -1.0699122007571834E-012
  -2.7799999999999998E-002    -3.8813665155174093E-013
  -2.7750000000000000E-002     4.4640606944645969E-013
  -2.7700000000000002E-002     1.2599687011200266E-012
  -2.7650000000000001E-002     1.8673628849499192E-012
  -2.7600000000000000E-002     2.1151828765983027E-012
  -2.7549999999999998E-002     1.9211918783291722E-012
  -2.7500000000000000E-002     1.2994989611926508E-012
  -2.7450000000000002E-002     3.6396861960340525E-013
  -2.7400000000000001E-002    -6.9258276163933538E-013
  -2.7349999999999999E-002    -1.6397214986830435E-012
  -2.7299999999999998E-002    -2.2620516244235639E-012
  -2.7250000000000000E-002    -2.4106220663448038E-012
  -2.7200000000000002E-002    -2.0403422029010555E-012
  -2.7150000000000001E-002    -1.2238186178295351E-012
  -2.7099999999999999E-002    -1.3773669817917947E-013
  -2.7049999999999998E-002     9.7535701099729140E-013
  -2.7000000000000000E-002     1.8610222085296770E-012
  -2.6950000000000002E-002     2.3101342319957229E-012
  -2.6900000000000000E-002     2.2063380477882367E-012
  -2.6849999999999999E-002     1.5534070339945478E-012
  -2.6800000000000001E-002     4.7707223915301563E-013
  -2.6749999999999999E-002    -7.9838244984243510E-013
  -2.6700000000000002E-002    -1.9933378756577908E-012
  -2.6650000000000000E-002    -2.8270408891720282E-012
  -2.6599999999999999E-002    -3.0726708862775351E-012
  -2.6550000000000001E-002    -2.6037995306809678E-012
  -2.6500000000000003E-002    -1.4247130960768819E-012
  -2.6450000000000001E-002     3.2036010065813801E-013
  -2.6400000000000000E-002     2.3613047946833346E-012
  -2.6349999999999998E-002     4.3388173107909228E-012
  -2.6300000000000000E-002     5.8600655321322117E-012
  -2.6250000000000002E-002     6.5663475876521681E-012
  -2.6200000000000001E-002     6.2025435300986702E-012
  -2.6150000000000000E-002     4.6757718390906063E-012
  -2.6099999999999998E-002     2.0902152079640150E-012
  -2.6050000000000000E-002    -1.2524172416179123E-012
  -2.6000000000000002E-002    -4.8914439104521252E-012
  -2.5950000000000001E-002    -8.2809533580889173E-012
  -2.5899999999999999E-002    -1.0885653220142632E-011
  -2.5849999999999998E-002    -1.2278300133423193E-011
  -2.5800000000000000E-002    -1.2215243555775318E-011
  -2.5750000000000002E-002    -1.0669771602055493E-011
  -2.5700000000000001E-002    -7.8122505224194512E-012
  -2.5649999999999999E-002    -3.9393683384276853E-012
  -2.5599999999999998E-002     6.3118205493361952E-013
  -2.5550000000000000E-002     5.6738176132038883E-012
  -2.5500000000000002E-002     1.1145525382530434E-011
  -2.5450000000000000E-002     1.7227820926590151E-011
  -2.5399999999999999E-002     2.4306458082414378E-011
  -2.5349999999999998E-002     3.2891220883132287E-011
  -2.5300000000000000E-002     4.3494139476843530E-011
  -2.5250000000000002E-002     5.6495599307169731E-011
  -2.5200000000000000E-002     7.2031325163472930E-011
  -2.5149999999999999E-002     8.9928275470134472E-011
  -2.5100000000000001E-002     1.0970546668181999E-010
  -2.5049999999999999E-002     1.3064036852967945E-010
  -2.5000000000000001E-002     1.5188657694482696E-010
  -2.4950000000000000E-002     1.7261753768278707E-010
  -2.4899999999999999E-002     1.9216649519248391E-010
  -2.4850000000000001E-002     2.1013492785029021E-010
  -2.4800000000000003E-002     2.2644917248779021E-010
  -2.4750000000000001E-002     2.4135627367318620E-010
  -2.4700000000000000E-002     2.5536146028462600E-010
  -2.4649999999999998E-002     2.6912056755807588E-010
  -2.4600000000000000E-002     2.8330839186576743E-010
  -2.4550000000000002E-002     2.9848798278312906E-010
  -2.4500000000000001E-002     3.1500483582487364E-010
  -2.4450000000000000E-002     3.3292616126843785E-010
  -2.4399999999999998E-002     3.5203695621089986E-010
  -2.4350000000000000E-002     3.7189371651230448E-010
  -2.4299999999999999E-002     3.9192560243240095E-010
  -2.4250000000000001E-002     4.1156295747945290E-010
  -2.4199999999999999E-002     4.3036687816166977E-010
  -2.4150000000000001E-002     4.4813200556624801E-010
  -2.4100000000000000E-002     4.6494065573725550E-010
  -2.4049999999999998E-002     4.8115519341585506E-010
  -2.4000000000000000E-002     4.9734918775137170E-010
  -2.3949999999999999E-002     5.1419194459155314E-010
  -2.3900000000000001E-002     5.3230891878741468E-010
  -2.3850000000000000E-002     5.5214857061833730E-010
  -2.3800000000000002E-002     5.7388284892723191E-010
  -2.3750000000000000E-002     5.9736437456995908E-010
  -2.3699999999999999E-002     6.2214974101987425E-010
  -2.3650000000000001E-002     6.4758665448508423E-010
  -2.3599999999999999E-002     6.7294934091653462E-010
  -2.3550000000000001E-002     6.9759659535178015E-010
  -2.3500000000000000E-002     7.2112018160804083E-010
  -2.3449999999999999E-002     7.4345197803076501E-010
  -2.3400000000000001E-002     7.6490394605314176E-010
  -2.3349999999999999E-002     7.8612746386699110E-010
  -2.3300000000000001E-002     8.0799471755261302E-010
  -2.3250000000000000E-002     8.3142227627648042E-010
  -2.3199999999999998E-002     8.5717254887590635E-010
  -2.3150000000000000E-002     8.8567940863071483E-010
  -2.3099999999999999E-002     9.1693968903890588E-010
  -2.3050000000000001E-002     9.5050154533518675E-010
  -2.3000000000000000E-002     9.8555796154363366E-010
  -2.2950000000000002E-002     1.0211282823713704E-009
  -2.2900000000000000E-002     1.0562873693988191E-009
  -2.2849999999999999E-002     1.0903881307897688E-009
  -2.2800000000000001E-002     1.1232218769778893E-009
  -2.2749999999999999E-002     1.1550783184162925E-009
  -2.2700000000000001E-002     1.1866903065373681E-009
  -2.2650000000000000E-002     1.2190778169547314E-009
  -2.2599999999999999E-002     1.2533299527656615E-009
  -2.2550000000000001E-002     1.2903770170119976E-009
  -2.2499999999999999E-002     1.3308044057702951E-009
  -2.2450000000000001E-002     1.3747450780662321E-009
  -2.2400000000000000E-002     1.4218692702561148E-009
  -2.2349999999999998E-002     1.4714653559999056E-009
  -2.2300000000000000E-002     1.5225917614674143E-009
  -2.2249999999999999E-002     1.5742634646775037E-009
  -2.2200000000000001E-002     1.6256406937469819E-009
  -2.2150000000000000E-002     1.6761870373897458E-009
  -2.2100000000000002E-002     1.7257722786996710E-009
  -2.2050000000000000E-002     1.7747020353747066E-009
  -2.1999999999999999E-002     1.8236715890715251E-009
  -2.1950000000000001E-002     1.8736468834414918E-009
  -2.1899999999999999E-002     1.9256919222993967E-009
  -2.1850000000000001E-002     1.9807734341837035E-009
  -2.1800000000000000E-002     2.0395798831142423E-009
  -2.1749999999999999E-002     2.1023952093769209E-009
  -2.1700000000000001E-002     2.1690606500321618E-009
  -2.1649999999999999E-002     2.2390302195717070E-009
  -2.1600000000000001E-002     2.3115144590021927E-009
  -2.1550000000000000E-002     2.3856743726343704E-009
  -2.1499999999999998E-002     2.4608184299730162E-009
  -2.1450000000000000E-002     2.5365559702562583E-009
  -2.1399999999999999E-002     2.6128689002576436E-009
  -2.1350000000000001E-002     2.6900923968996196E-009
  -2.1299999999999999E-002     2.7688167186789543E-009
  -2.1250000000000002E-002     2.8497390729529971E-009
  -2.1200000000000000E-002     2.9335075867295230E-009
  -2.1149999999999999E-002     3.0205901338677793E-009
  -2.1100000000000001E-002     3.1111928868708346E-009
  -2.1049999999999999E-002     3.2052399418650480E-009
  -2.1000000000000001E-002     3.3024147511704410E-009
  -2.0950000000000000E-002     3.4022478276526285E-009
  -2.0899999999999998E-002     3.5042374682373298E-009
  -2.0850000000000000E-002     3.6079838505932219E-009
  -2.0799999999999999E-002     3.7133155538580878E-009
  -2.0750000000000001E-002     3.8203798372974174E-009
  -2.0700000000000000E-002     3.9296756486716119E-009
  -2.0649999999999998E-002     4.0420071718398112E-009
  -2.0600000000000000E-002     4.1583546643676140E-009
  -2.0549999999999999E-002     4.2796773381728920E-009
  -2.0500000000000001E-002     4.4066971881741483E-009
  -2.0449999999999999E-002     4.5397159377368928E-009
  -2.0400000000000001E-002     4.6785165711999788E-009
  -2.0350000000000000E-002     4.8223937479288604E-009
  -2.0299999999999999E-002     4.9703032376998597E-009
  -2.0250000000000001E-002     5.1211064366244159E-009
  -2.0199999999999999E-002     5.2738401864466491E-009
  -2.0150000000000001E-002     5.4279436273584049E-009
  -2.0100000000000000E-002     5.5833918149233865E-009
  -2.0049999999999998E-002     5.7407042719108125E-009
  -2.0000000000000000E-002     5.9008394204460555E-009
  -1.9949999999999999E-002     6.0650067823465419E-009
  -1.9900000000000001E-002     6.2344501454851946E-009
  -1.9850000000000000E-002     6.4102512399796654E-009
  -1.9799999999999998E-002     6.5931837941724610E-009
  -1.9750000000000000E-002     6.7836327420089705E-009
  -1.9699999999999999E-002     6.9815717852183264E-009
  -1.9650000000000001E-002     7.1865972125741411E-009
  -1.9599999999999999E-002     7.3980137111477490E-009
  -1.9550000000000001E-002     7.6149603947200529E-009
  -1.9500000000000000E-002     7.8365751824372445E-009
  -1.9449999999999999E-002     8.0621676140206057E-009
  -1.9400000000000001E-002     8.2913797648843002E-009
  -1.9349999999999999E-002     8.5242871294140724E-009
  -1.9300000000000001E-002     8.7614201168833831E-009
  -1.9250000000000000E-002     9.0036829379606258E-009
  -1.9199999999999998E-002     9.2521847134156371E-009
  -1.9150000000000000E-002     9.5080382562779134E-009
  -1.9099999999999999E-002     9.7721680252881541E-009
  -1.9050000000000001E-002     1.0045181517223781E-008
  -1.9000000000000000E-002     1.0327351301923713E-008
  -1.8949999999999998E-002     1.0618670660476592E-008
  -1.8900000000000000E-002     1.0918974879624229E-008
  -1.8849999999999999E-002     1.1228071944285895E-008
  -1.8800000000000001E-002     1.1545823572181279E-008
  -1.8749999999999999E-002     1.1872187780311951E-008
  -1.8700000000000001E-002     1.2207197398544215E-008
  -1.8650000000000000E-002     1.2550931343230266E-008
  -1.8599999999999998E-002     1.2903467688874130E-008
  -1.8550000000000001E-002     1.3264866730253660E-008
  -1.8499999999999999E-002     1.3635174372899261E-008
  -1.8450000000000001E-002     1.4014432078747255E-008
  -1.8400000000000000E-002     1.4402684560613054E-008
  -1.8349999999999998E-002     1.4799966128044670E-008
  -1.8300000000000000E-002     1.5206284437768678E-008
  -1.8249999999999999E-002     1.5621598457112629E-008
  -1.8200000000000001E-002     1.6045851740124967E-008
  -1.8149999999999999E-002     1.6479042497104147E-008
  -1.8100000000000002E-002     1.6921331185422483E-008
  -1.8050000000000000E-002     1.7373154656030507E-008
  -1.7999999999999999E-002     1.7835252854531076E-008
  -1.7950000000000001E-002     1.8308645092477063E-008
  -1.7899999999999999E-002     1.8794483618128561E-008
  -1.7850000000000001E-002     1.9293872527310964E-008
  -1.7800000000000000E-002     1.9807678676818776E-008
  -1.7749999999999998E-002     2.0336390163383877E-008
  -1.7700000000000000E-002     2.0880107090252572E-008
  -1.7649999999999999E-002     2.1438638199130254E-008
  -1.7600000000000001E-002     2.2011691988648802E-008
  -1.7550000000000000E-002     2.2599083755016882E-008
  -1.7499999999999998E-002     2.3200910480450301E-008
  -1.7450000000000000E-002     2.3817610379511974E-008
  -1.7399999999999999E-002     2.4449940722307685E-008
  -1.7350000000000001E-002     2.5098869341619144E-008
  -1.7299999999999999E-002     2.5765453108925524E-008
  -1.7250000000000001E-002     2.6450683730134107E-008
  -1.7200000000000000E-002     2.7155378074637505E-008
  -1.7149999999999999E-002     2.7880118720358455E-008
  -1.7100000000000001E-002     2.8625236582925188E-008
  -1.7049999999999999E-002     2.9390823703831722E-008
  -1.7000000000000001E-002     3.0176753538830623E-008
  -1.6950000000000000E-002     3.0982702549970258E-008
  -1.6899999999999998E-002     3.1808151229580374E-008
  -1.6850000000000000E-002     3.2652447252427293E-008
  -1.6799999999999999E-002     3.3514865044951131E-008
  -1.6750000000000001E-002     3.4394739810663163E-008
  -1.6700000000000000E-002     3.5291541592691398E-008
  -1.6649999999999998E-002     3.6204968684706543E-008
  -1.6600000000000000E-002     3.7134977217438788E-008
  -1.6549999999999999E-002     3.8081751906280844E-008
  -1.6500000000000001E-002     3.9045667274228585E-008
  -1.6449999999999999E-002     4.0027285861401299E-008
  -1.6400000000000001E-002     4.1027342947182560E-008
  -1.6350000000000000E-002     4.2046776947209728E-008
  -1.6299999999999999E-002     4.3086748763088236E-008
  -1.6250000000000001E-002     4.4148647228380064E-008
  -1.6199999999999999E-002     4.5234071520673164E-008
  -1.6150000000000001E-002     4.6344857559472494E-008
  -1.6100000000000000E-002     4.7483008644429322E-008
  -1.6049999999999998E-002     4.8650604619190345E-008
  -1.6000000000000000E-002     4.9849684847923832E-008
  -1.5949999999999999E-002     5.1082135101229834E-008
  -1.5900000000000001E-002     5.2349647766739603E-008
  -1.5850000000000000E-002     5.3653732386091414E-008
  -1.5799999999999998E-002     5.4995713971149436E-008
  -1.5750000000000000E-002     5.6376764048979687E-008
  -1.5699999999999999E-002     5.7797879571788119E-008
  -1.5650000000000001E-002     5.9259885880765898E-008
  -1.5599999999999999E-002     6.0763382387504956E-008
  -1.5550000000000001E-002     6.2308793138572204E-008
  -1.5500000000000000E-002     6.3896306044735599E-008
  -1.5449999999999998E-002     6.5525899917121329E-008
  -1.5400000000000000E-002     6.7197351506584034E-008
  -1.5349999999999999E-002     6.8910219203563458E-008
  -1.5300000000000001E-002     7.0663921560486341E-008
  -1.5250000000000000E-002     7.2457674887744985E-008
  -1.5199999999999998E-002     7.4290553539887041E-008
  -1.5150000000000000E-002     7.6161428390712668E-008
  -1.5099999999999999E-002     7.8068975032833232E-008
  -1.5050000000000001E-002     8.0011661163900521E-008
  -1.4999999999999999E-002     8.1987781500852215E-008
  -1.4949999999999998E-002     8.3995623719959015E-008
  -1.4900000000000000E-002     8.6033598246574969E-008
  -1.4849999999999999E-002     8.8100506851837368E-008
  -1.4800000000000001E-002     9.0195752296738097E-008
  -1.4749999999999999E-002     9.2319483176570886E-008
  -1.4700000000000001E-002     9.4472767313762051E-008
  -1.4650000000000000E-002     9.6657552971523160E-008
  -1.4599999999999998E-002     9.8876673195386332E-008
  -1.4550000000000000E-002     1.0113369245761523E-007
  -1.4499999999999999E-002     1.0343279247253739E-007
  -1.4450000000000001E-002     1.0577862938535486E-007
  -1.4400000000000000E-002     1.0817630414061084E-007
  -1.4349999999999998E-002     1.1063133376182091E-007
  -1.4300000000000000E-002     1.1314964314822315E-007
  -1.4249999999999999E-002     1.1573741272979085E-007
  -1.4200000000000001E-002     1.1840094793534687E-007
  -1.4149999999999999E-002     1.2114643638936250E-007
  -1.4099999999999998E-002     1.2397970446302144E-007
  -1.4050000000000000E-002     1.2690606254579968E-007
  -1.3999999999999999E-002     1.2993003910695518E-007
  -1.3950000000000001E-002     1.3305526113938847E-007
  -1.3899999999999999E-002     1.3628460645235959E-007
  -1.3850000000000001E-002     1.3962036980252194E-007
  -1.3800000000000000E-002     1.4306432589058836E-007
  -1.3749999999999998E-002     1.4661792675920994E-007
  -1.3700000000000000E-002     1.5028219638173553E-007
  -1.3649999999999999E-002     1.5405758248308140E-007
  -1.3600000000000001E-002     1.5794372883288598E-007
  -1.3550000000000000E-002     1.6193935076121480E-007
  -1.3499999999999998E-002     1.6604210620197841E-007
  -1.3450000000000000E-002     1.7024854117719800E-007
  -1.3399999999999999E-002     1.7455420659869900E-007
  -1.3350000000000001E-002     1.7895385128828670E-007
  -1.3299999999999999E-002     1.8344176536871167E-007
  -1.3249999999999998E-002     1.8801201423851834E-007
  -1.3200000000000000E-002     1.9265884542867744E-007
  -1.3149999999999998E-002     1.9737675681790128E-007
  -1.3100000000000001E-002     2.0216069423106528E-007
  -1.3049999999999999E-002     2.0700595112898332E-007
  -1.3000000000000001E-002     2.1190845729551392E-007
  -1.2950000000000000E-002     2.1686495126116475E-007
  -1.2899999999999998E-002     2.2187310556586031E-007
  -1.2850000000000000E-002     2.2693184854880312E-007
  -1.2799999999999999E-002     2.3204135946720253E-007