  -4.0000000000000001E-002     0.0000000000000000     
  -3.9949999999999999E-002     0.0000000000000000     
  -3.9899999999999998E-002     0.0000000000000000     
  -3.9850000000000003E-002     0.0000000000000000     
  -3.9800000000000002E-002     0.0000000000000000     
  -3.9750000000000001E-002     0.0000000000000000     
  -3.9699999999999999E-002     0.0000000000000000     
  -3.9649999999999998E-002     0.0000000000000000     
  -3.9600000000000003E-002     0.0000000000000000     
  -3.9550000000000002E-002     0.0000000000000000     
  -3.9500000000000000E-002     0.0000000000000000     
  -3.9449999999999999E-002     0.0000000000000000     
  -3.9399999999999998E-002     0.0000000000000000     
  -3.9350000000000003E-002     0.0000000000000000     
  -3.9300000000000002E-002     0.0000000000000000     
  -3.9250000000000000E-002     0.0000000000000000     
  -3.9199999999999999E-002     0.0000000000000000     
  -3.9150000000000004E-002     0.0000000000000000     
  -3.9100000000000003E-002     0.0000000000000000     
  -3.9050000000000001E-002     0.0000000000000000     
  -3.9000000000000000E-002     0.0000000000000000     
  -3.8949999999999999E-002     0.0000000000000000     
  -3.8900000000000004E-002     0.0000000000000000     
  -3.8850000000000003E-002     0.0000000000000000     
  -3.8800000000000001E-002     0.0000000000000000     
  -3.8750000000000000E-002     0.0000000000000000     
  -3.8699999999999998E-002     0.0000000000000000     
  -3.8650000000000004E-002     0.0000000000000000     
  -3.8600000000000002E-002     0.0000000000000000     
  -3.8550000000000001E-002     0.0000000000000000     
  -3.8500000000000000E-002     0.0000000000000000     
  -3.8449999999999998E-002     0.0000000000000000     
  -3.8400000000000004E-002     0.0000000000000000     
  -3.8350000000000002E-002     0.0000000000000000     
  -3.8300000000000001E-002     0.0000000000000000     
  -3.8249999999999999E-002     0.0000000000000000     
  -3.8199999999999998E-002     0.0000000000000000     
  -3.8150000000000003E-002     0.0000000000000000     
  -3.8100000000000002E-002     0.0000000000000000     
  -3.8050000000000000E-002     0.0000000000000000     
  -3.7999999999999999E-002     0.0000000000000000     
  -3.7949999999999998E-002     0.0000000000000000     
  -3.7900000000000003E-002     0.0000000000000000     
  -3.7850000000000002E-002     0.0000000000000000     
  -3.7800000000000000E-002     0.0000000000000000     
  -3.7749999999999999E-002     0.0000000000000000     
  -3.7699999999999997E-002     0.0000000000000000     
  -3.7650000000000003E-002     0.0000000000000000     
  -3.7600000000000001E-002     0.0000000000000000     
  -3.7550000000000000E-002     0.0000000000000000     
  -3.7499999999999999E-002     0.0000000000000000     
  -3.7449999999999997E-002     0.0000000000000000     
  -3.7400000000000003E-002     0.0000000000000000     
  -3.7350000000000001E-002     0.0000000000000000     
  -3.7300000000000000E-002     0.0000000000000000     
  -3.7249999999999998E-002     0.0000000000000000     
  -3.7200000000000004E-002     0.0000000000000000     
  -3.7150000000000002E-002     0.0000000000000000     
  -3.7100000000000001E-002     0.0000000000000000     
  -3.7050000000000000E-002     0.0000000000000000     
  -3.6999999999999998E-002     0.0000000000000000     
  -3.6950000000000004E-002     0.0000000000000000     
  -3.6900000000000002E-002     0.0000000000000000     
  -3.6850000000000001E-002     0.0000000000000000     
  -3.6799999999999999E-002     0.0000000000000000     
  -3.6749999999999998E-002     0.0000000000000000     
  -3.6700000000000003E-002     0.0000000000000000     
  -3.6650000000000002E-002     0.0000000000000000     
  -3.6600000000000001E-002     0.0000000000000000     
  -3.6549999999999999E-002     0.0000000000000000     
  -3.6499999999999998E-002     0.0000000000000000     
  -3.6450000000000003E-002     0.0000000000000000     
  -3.6400000000000002E-002     0.0000000000000000     
  -3.6350000000000000E-002     0.0000000000000000     
  -3.6299999999999999E-002     0.0000000000000000     
  -3.6249999999999998E-002     0.0000000000000000     
  -3.6200000000000003E-002     0.0000000000000000     
  -3.6150000000000002E-002     0.0000000000000000     
  -3.6100000000000000E-002     0.0000000000000000     
  -3.6049999999999999E-002     0.0000000000000000     
  -3.6000000000000004E-002     0.0000000000000000     
  -3.5950000000000003E-002     0.0000000000000000     
  -3.5900000000000001E-002     0.0000000000000000     
  -3.5850000000000000E-002     0.0000000000000000     
  -3.5799999999999998E-002     0.0000000000000000     
  -3.5750000000000004E-002     0.0000000000000000     
  -3.5700000000000003E-002     0.0000000000000000     
  -3.5650000000000001E-002     0.0000000000000000     
  -3.5600000000000000E-002     0.0000000000000000     
  -3.5549999999999998E-002     0.0000000000000000     
  -3.5500000000000004E-002     0.0000000000000000     
  -3.5450000000000002E-002     0.0000000000000000     
  -3.5400000000000001E-002     0.0000000000000000     
  -3.5349999999999999E-002     0.0000000000000000     
  -3.5299999999999998E-002     0.0000000000000000     
  -3.5250000000000004E-002     0.0000000000000000     
  -3.5200000000000002E-002     0.0000000000000000     
  -3.5150000000000001E-002     0.0000000000000000     
  -3.5099999999999999E-002     0.0000000000000000     
  -3.5049999999999998E-002     0.0000000000000000     
  -3.5000000000000003E-002     0.0000000000000000     
  -3.4950000000000002E-002     0.0000000000000000     
  -3.4900000000000000E-002     0.0000000000000000     
  -3.4849999999999999E-002     0.0000000000000000     
  -3.4799999999999998E-002     0.0000000000000000     
  -3.4750000000000003E-002     0.0000000000000000     
  -3.4700000000000002E-002     0.0000000000000000     
  -3.4650000000000000E-002     0.0000000000000000     
  -3.4599999999999999E-002     0.0000000000000000     
  -3.4549999999999997E-002     0.0000000000000000     
  -3.4500000000000003E-002     0.0000000000000000     
  -3.4450000000000001E-002     0.0000000000000000     
  -3.4400000000000000E-002     0.0000000000000000     
  -3.4349999999999999E-002     0.0000000000000000     
  -3.4299999999999997E-002     0.0000000000000000     
  -3.4250000000000003E-002     0.0000000000000000     
  -3.4200000000000001E-002     0.0000000000000000     
  -3.4150000000000000E-002     0.0000000000000000     
  -3.4099999999999998E-002     0.0000000000000000     
  -3.4049999999999997E-002     0.0000000000000000     
  -3.4000000000000002E-002     0.0000000000000000     
  -3.3950000000000001E-002     0.0000000000000000     
  -3.3900000000000000E-002     0.0000000000000000     
  -3.3849999999999998E-002     0.0000000000000000     
  -3.3799999999999997E-002     0.0000000000000000     
  -3.3750000000000002E-002     0.0000000000000000     
  -3.3700000000000001E-002     0.0000000000000000     
  -3.3649999999999999E-002     0.0000000000000000     
  -3.3599999999999998E-002     0.0000000000000000     
  -3.3550000000000003E-002     0.0000000000000000     
  -3.3500000000000002E-002     0.0000000000000000     
  -3.3450000000000001E-002     0.0000000000000000     
  -3.3399999999999999E-002     0.0000000000000000     
  -3.3349999999999998E-002     0.0000000000000000     
  -3.3300000000000003E-002     0.0000000000000000     
  -3.3250000000000002E-002     0.0000000000000000     
  -3.3200000000000000E-002     0.0000000000000000     
  -3.3149999999999999E-002     0.0000000000000000     
  -3.3099999999999997E-002     0.0000000000000000     
  -3.3050000000000003E-002     0.0000000000000000     
  -3.3000000000000002E-002     0.0000000000000000     
  -3.2950000000000000E-002     0.0000000000000000     
  -3.2899999999999999E-002     0.0000000000000000     
  -3.2850000000000004E-002     0.0000000000000000     
  -3.2800000000000003E-002     0.0000000000000000     
  -3.2750000000000001E-002     0.0000000000000000     
  -3.2700000000000000E-002     0.0000000000000000     
  -3.2649999999999998E-002     0.0000000000000000     
  -3.2600000000000004E-002     0.0000000000000000     
  -3.2550000000000003E-002     0.0000000000000000     
  -3.2500000000000001E-002     0.0000000000000000     
  -3.2450000000000000E-002     0.0000000000000000     
  -3.2399999999999998E-002     0.0000000000000000     
  -3.2350000000000004E-002     0.0000000000000000     
  -3.2300000000000002E-002     0.0000000000000000     
  -3.2250000000000001E-002     0.0000000000000000     
  -3.2199999999999999E-002     0.0000000000000000     
  -3.2149999999999998E-002     0.0000000000000000     
  -3.2100000000000004E-002     0.0000000000000000     
  -3.2050000000000002E-002     0.0000000000000000     
  -3.2000000000000001E-002     0.0000000000000000     
  -3.1949999999999999E-002     0.0000000000000000     
  -3.1899999999999998E-002     0.0000000000000000     
  -3.1850000000000003E-002     0.0000000000000000     
  -3.1800000000000002E-002     0.0000000000000000     
  -3.1750000000000000E-002     0.0000000000000000     
  -3.1699999999999999E-002     0.0000000000000000     
  -3.1649999999999998E-002     0.0000000000000000     
  -3.1600000000000003E-002     0.0000000000000000     
  -3.1550000000000002E-002     0.0000000000000000     
  -3.1500000000000000E-002     0.0000000000000000     
  -3.1449999999999999E-002     0.0000000000000000     
  -3.1399999999999997E-002     0.0000000000000000     
  -3.1350000000000003E-002     0.0000000000000000     
  -3.1300000000000001E-002     0.0000000000000000     
  -3.1250000000000000E-002     0.0000000000000000     
  -3.1199999999999999E-002     0.0000000000000000     
  -3.1150000000000001E-002     0.0000000000000000     
  -3.1100000000000003E-002     0.0000000000000000     
  -3.1050000000000001E-002     0.0000000000000000     
  -3.1000000000000000E-002     0.0000000000000000     
  -3.0949999999999998E-002     0.0000000000000000     
  -3.0900000000000000E-002     0.0000000000000000     
  -3.0850000000000002E-002     0.0000000000000000     
  -3.0800000000000001E-002     0.0000000000000000     
  -3.0750000000000000E-002     0.0000000000000000     
  -3.0699999999999998E-002     0.0000000000000000     
  -3.0650000000000000E-002     0.0000000000000000     
  -3.0600000000000002E-002     0.0000000000000000     
  -3.0550000000000001E-002     0.0000000000000000     
  -3.0499999999999999E-002     0.0000000000000000     
  -3.0449999999999998E-002     0.0000000000000000     
  -3.0400000000000000E-002     0.0000000000000000     
  -3.0350000000000002E-002     0.0000000000000000     
  -3.0300000000000001E-002     0.0000000000000000     
  -3.0249999999999999E-002     0.0000000000000000     
  -3.0200000000000001E-002     0.0000000000000000     
  -3.0150000000000000E-002     0.0000000000000000     
  -3.0100000000000002E-002     0.0000000000000000     
  -3.0050000000000000E-002     0.0000000000000000     
  -2.9999999999999999E-002     0.0000000000000000     
  -2.9950000000000001E-002     0.0000000000000000     
  -2.9899999999999999E-002     0.0000000000000000     
  -2.9850000000000002E-002     0.0000000000000000     
  -2.9800000000000000E-002     0.0000000000000000     
  -2.9749999999999999E-002     0.0000000000000000     
  -2.9700000000000001E-002     0.0000000000000000     
  -2.9650000000000003E-002     0.0000000000000000     
  -2.9600000000000001E-002     0.0000000000000000     
  -2.9550000000000000E-002     0.0000000000000000     
  -2.9499999999999998E-002     0.0000000000000000     
  -2.9450000000000000E-002     0.0000000000000000     
  -2.9400000000000003E-002     0.0000000000000000     
  -2.9350000000000001E-002     0.0000000000000000     
  -2.9300000000000000E-002     0.0000000000000000     
  -2.9249999999999998E-002     0.0000000000000000     
  -2.9200000000000000E-002     0.0000000000000000     
  -2.9150000000000002E-002     0.0000000000000000     
  -2.9100000000000001E-002     0.0000000000000000     
  -2.9049999999999999E-002     0.0000000000000000     
  -2.8999999999999998E-002     0.0000000000000000     
  -2.8950000000000000E-002     0.0000000000000000     
  -2.8900000000000002E-002     0.0000000000000000     
  -2.8850000000000001E-002     0.0000000000000000     
  -2.8799999999999999E-002     0.0000000000000000     
  -2.8749999999999998E-002     0.0000000000000000     
  -2.8700000000000000E-002     0.0000000000000000     
  -2.8650000000000002E-002     0.0000000000000000     
  -2.8600000000000000E-002     0.0000000000000000     
  -2.8549999999999999E-002     0.0000000000000000     
  -2.8500000000000001E-002    -1.2103504255827140E-040
  -2.8450000000000000E-002    -2.6080811669636909E-040
  -2.8400000000000002E-002    -2.6080811669636909E-040
  -2.8350000000000000E-002     1.7444049402628729E-040
  -2.8299999999999999E-002     9.0201766382958410E-040
  -2.8250000000000001E-002     1.6293651195912041E-039
  -2.8200000000000003E-002     1.7913942114118333E-039
  -2.8150000000000001E-002     7.2440830820098238E-040
  -2.8100000000000000E-002    -2.3766775774663888E-039
  -2.8049999999999999E-002    -6.5463594195421543E-039
  -2.8000000000000001E-002    -9.7173694968032481E-039
  -2.7950000000000003E-002    -8.6599798835313099E-039
  -2.7900000000000001E-002    -1.4073808073375252E-039
  -2.7850000000000000E-002     1.1676633604100933E-038
  -2.7799999999999998E-002     4.3200586589993139E-039
  -2.7750000000000000E-002    -2.2326827996645884E-038
  -2.7700000000000002E-002    -5.8935513514170767E-038
  -2.7650000000000001E-002    -6.2015261917505067E-038
  -2.7600000000000000E-002    -2.3460841029517681E-038
  -2.7549999999999998E-002     5.4621707810553210E-038
  -2.7500000000000000E-002     1.4889192541659660E-037
  -2.7450000000000002E-002     2.1161662006523285E-037
  -2.7400000000000001E-002     2.0741441335497633E-037
  -2.7349999999999999E-002     8.2436590109012767E-038
  -2.7299999999999998E-002    -1.4167562730557025E-037
  -2.7250000000000000E-002    -4.0169258992533662E-037
  -2.7200000000000002E-002    -6.1207602234770804E-037
  -2.7150000000000001E-002    -6.5475404975442198E-037
  -2.7099999999999999E-002    -4.4560681186097881E-037
  -2.7049999999999998E-002     3.3362094853482918E-038
  -2.7000000000000000E-002     7.0847063177930834E-037
  -2.6950000000000002E-002     1.4206401728418341E-036
  -2.6900000000000000E-002     1.9329911567752391E-036
  -2.6849999999999999E-002     2.0065339450627416E-036
  -2.6800000000000001E-002     1.4364548468098268E-036
  -2.6749999999999999E-002     1.1145076216606527E-037
  -2.6700000000000002E-002    -1.9230048140041041E-036
  -2.6650000000000000E-002    -4.3907225564369031E-036
  -2.6599999999999999E-002    -6.7048574708846669E-036
  -2.6550000000000001E-002    -7.9290176192095292E-036
  -2.6500000000000003E-002    -6.8677183896221140E-036
  -2.6450000000000001E-002    -2.3895461042885388E-036
  -2.6400000000000000E-002     5.9718568292524763E-036
  -2.6349999999999998E-002     1.7240612389706606E-035
  -2.6300000000000000E-002     2.8359079637007003E-035
  -2.6250000000000002E-002     3.4173807877747270E-035
  -2.6200000000000001E-002     2.8536567239738893E-035
  -2.6150000000000000E-002     6.7122530803055334E-036
  -2.6099999999999998E-002    -3.1328998489518286E-035
  -2.6050000000000000E-002    -7.7924549237954712E-035
  -2.6000000000000002E-002    -1.1679499413514483E-034
  -2.5950000000000001E-002    -1.2587702896378016E-034
  -2.5899999999999999E-002    -8.4597573224073716E-035
  -2.5849999999999998E-002     1.5637829636633425E-035
  -2.5800000000000000E-002     1.6121662728940721E-034
  -2.5750000000000002E-002     3.1140805692533124E-034
  -2.5700000000000001E-002     4.0361999061644908E-034
  -2.5649999999999999E-002     3.7100113038879384E-034
  -2.5599999999999998E-002     1.6971093017624093E-034
  -2.5550000000000000E-002    -1.9235966284215758E-034
  -2.5500000000000002E-002    -6.3746729002111115E-034
  -2.5450000000000000E-002    -1.0222704360180787E-033
  -2.5399999999999999E-002    -1.1706157343409877E-033
  -2.5349999999999998E-002    -9.3096919252046300E-034
  -2.5300000000000000E-002    -2.4334451088264516E-034
  -2.5250000000000002E-002     8.0731997875758826E-034
  -2.5200000000000000E-002     1.9748497589171007E-033
  -2.5149999999999999E-002     2.8876090583956942E-033
  -2.5100000000000001E-002     3.1360658182223977E-033
  -2.5049999999999999E-002     2.3949635074296106E-033
  -2.5000000000000001E-002     5.5055882272601449E-034
  -2.4950000000000000E-002    -2.2005568782267216E-033
  -2.4899999999999999E-002    -5.3103458205736208E-033
  -2.4850000000000001E-002    -7.9169816029670309E-033
  -2.4800000000000003E-002    -8.9745283677989451E-033
  -2.4750000000000001E-002    -7.4809698070799857E-033
  -2.4700000000000000E-002    -2.7985923349630693E-033
  -2.4649999999999998E-002     4.9675076677995669E-033
  -2.4600000000000000E-002     1.4617606467291501E-032
  -2.4550000000000002E-002     2.3681216089255438E-032
  -2.4500000000000001E-002     2.8612127175885756E-032
  -2.4450000000000000E-002     2.5529934983490040E-032
  -2.4399999999999998E-002     1.1550499162670237E-032
  -2.4350000000000000E-002    -1.3507519479885070E-032
  -2.4299999999999999E-002    -4.5574114711066719E-032
  -2.4250000000000001E-002    -7.5726704264803221E-032
  -2.4199999999999999E-002    -9.1339508657929443E-032
  -2.4150000000000001E-002    -7.9414331306459140E-032
  -2.4100000000000000E-002    -3.1743118253174219E-032
  -2.4049999999999998E-002     4.9457688580420185E-032
  -2.4000000000000000E-002     1.4766429260355300E-031
  -2.3949999999999999E-002     2.3237571750846774E-031
  -2.3900000000000001E-002     2.6534732971054162E-031
  -2.3850000000000000E-002     2.1257471111491017E-031
  -2.3800000000000002E-002     5.9369090251080778E-032
  -2.3750000000000000E-002    -1.7643699474167156E-031
  -2.3699999999999999E-002    -4.3913485103391056E-031
  -2.3650000000000001E-002    -6.4249272125830764E-031
  -2.3599999999999999E-002    -6.9120302882530455E-031
  -2.3550000000000001E-002    -5.1274453274545122E-031
  -2.3500000000000000E-002    -9.0941073989767048E-032
  -2.3449999999999999E-002     5.1051474217850974E-031
  -2.3400000000000001E-002     1.1456523492591830E-030
  -2.3349999999999999E-002     1.6112064078729576E-030
  -2.3300000000000001E-002     1.6973243075636045E-030
  -2.3250000000000000E-002     1.2535846033548591E-030
  -2.3199999999999998E-002     2.5320221141584190E-031
  -2.3150000000000000E-002    -1.1640879783358557E-030
  -2.3099999999999999E-002    -2.6871641284602813E-030
  -2.3050000000000001E-002    -3.8761243452058290E-030
  -2.3000000000000000E-002    -4.2520028853415666E-030
  -2.2950000000000002E-002    -3.4227169538680537E-030
  -2.2900000000000000E-002    -1.2243073193777760E-030
  -2.2849999999999999E-002     2.1527117483693390E-030
  -2.2800000000000001E-002     6.0898621288487841E-030
  -2.2749999999999999E-002     9.5618645096267140E-030
  -2.2700000000000001E-002     1.1288961935608753E-029
  -2.2650000000000000E-002     1.0035879667836161E-029
  -2.2599999999999999E-002     5.0316256623154197E-030
  -2.2550000000000001E-002    -3.5740298300924871E-030
  -2.2499999999999999E-002    -1.4362175621509044E-029
  -2.2450000000000001E-002    -2.4585448400586813E-029
  -2.2400000000000000E-002    -3.0559080799962654E-029
  -2.2349999999999998E-002    -2.8565656185926501E-029
  -2.2300000000000000E-002    -1.6163214923757833E-029
  -2.2249999999999999E-002     6.4237382797792007E-030
  -2.2200000000000001E-002     3.5323257300151782E-029
  -2.2150000000000000E-002     6.2982630003929475E-029
  -2.2100000000000002E-002     7.9466043647694520E-029
  -2.2050000000000000E-002     7.5099819897419445E-029
  -2.1999999999999999E-002     4.3974191109500498E-029
  -2.1950000000000001E-002    -1.2682469700980500E-029
  -2.1899999999999999E-002    -8.4520624421966296E-029
  -2.1850000000000001E-002    -1.5263176158000512E-028
  -2.1800000000000000E-002    -1.9324072875786274E-028
  -2.1749999999999999E-002    -1.8417218580234675E-028
  -2.1700000000000001E-002    -1.1267367593965659E-028
  -2.1649999999999999E-002     1.7651630106330837E-029
  -2.1600000000000001E-002     1.8330645625461719E-028
  -2.1550000000000000E-002     3.4274250566583640E-028
  -2.1499999999999998E-002     4.4431562929376670E-028
  -2.1450000000000000E-002     4.3936704917270450E-028
  -2.1399999999999999E-002     2.9772481560287353E-028
  -2.1350000000000001E-002     2.1694877714554532E-029
  -2.1299999999999999E-002    -3.4574434447968720E-028
  -2.1250000000000002E-002    -7.2214358872638485E-028
  -2.1200000000000000E-002    -9.9812315120522479E-028
  -2.1149999999999999E-002    -1.0608152005607431E-027
  -2.1100000000000001E-002    -8.2500324838659170E-028
  -2.1049999999999999E-002    -2.6600265924524361E-028
  -2.1000000000000001E-002     5.5393761428077727E-028
  -2.0950000000000000E-002     1.4750828252955499E-027
  -2.0899999999999998E-002     2.2541118232519145E-027
  -2.0850000000000000E-002     2.6075769784819600E-027
  -2.0799999999999999E-002     2.2833684778791134E-027
  -2.0750000000000001E-002     1.1492501219928278E-027
  -2.0700000000000000E-002    -7.2267808379955493E-028
  -2.0649999999999998E-002    -3.0044843902449796E-027
  -2.0600000000000000E-002    -5.1238783955479126E-027
  -2.0549999999999999E-002    -6.3595182108462658E-027
  -2.0500000000000001E-002    -6.0204420112602362E-027
  -2.0449999999999999E-002    -3.6807325214933757E-027
  -2.0400000000000001E-002     5.8977635199617830E-028
  -2.0350000000000000E-002     6.0784126790341908E-027
  -2.0299999999999999E-002     1.1445199305741461E-026
  -2.0250000000000001E-002     1.4950952141251371E-026
  -2.0199999999999999E-002     1.4891404609725559E-026
  -2.0150000000000001E-002     1.0158368441482087E-026
  -2.0100000000000000E-002     7.8147811080304589E-028
  -2.0049999999999998E-002    -1.1733409884432576E-026
  -2.0000000000000000E-002    -2.4439112831844615E-026
  -1.9949999999999999E-002    -3.3450874956211205E-026
  -1.9900000000000001E-002    -3.4889344279169620E-026
  -1.9850000000000000E-002    -2.6085518181047508E-026
  -1.9799999999999998E-002    -6.7429085266025525E-027
  -1.9750000000000000E-002     2.0311022613393089E-026
  -1.9699999999999999E-002     4.9117916205229977E-026
  -1.9650000000000001E-002     7.1518217149856101E-026
  -1.9599999999999999E-002     7.8980700141446885E-026
  -1.9550000000000001E-002     6.5025937105248310E-026
  -1.9500000000000000E-002     2.7694817253391617E-026
  -1.9449999999999999E-002    -2.8633339999239947E-026
  -1.9400000000000001E-002    -9.2760515766909351E-026
  -1.9349999999999999E-002    -1.4802053854927165E-025
  -1.9300000000000001E-002    -1.7557800681763254E-025
  -1.9250000000000000E-002    -1.5928643872753149E-025
  -1.9199999999999998E-002    -9.1171996985736324E-026
  -1.9150000000000000E-002     2.3841914905600048E-026
  -1.9099999999999999E-002     1.6555973842084780E-025
  -1.9050000000000001E-002     2.9990005976422956E-025
  -1.9000000000000000E-002     3.8480666044178888E-025
  -1.8949999999999998E-002     3.8035291808398945E-025
  -1.8900000000000000E-002     2.6133744779481098E-025
  -1.8849999999999999E-002     2.9347039352941177E-026
  -1.8800000000000001E-002    -2.7957124695615827E-025
  -1.8749999999999999E-002    -5.9538618751762229E-025
  -1.8700000000000001E-002    -8.2513112074846122E-025
  -1.8650000000000000E-002    -8.7439263169627322E-025
  -1.8599999999999998E-002    -6.7575421091960568E-025
  -1.8550000000000001E-002    -2.1741153024544613E-025
  -1.8499999999999999E-002     4.3695583755775049E-025
  -1.8450000000000001E-002     1.1458711867642135E-024
  -1.8400000000000000E-002     1.7111385598155858E-024
  -1.8349999999999998E-002     1.9224146994158937E-024
  -1.8300000000000000E-002     1.6179895328914975E-024
  -1.8249999999999999E-002     7.4738483940755137E-025
  -1.8200000000000001E-002    -5.8308563901610356E-025
  -1.8149999999999999E-002    -2.1003446700105768E-024
  -1.8100000000000002E-002    -3.4025451441136030E-024
  -1.8050000000000000E-002    -4.0458504513495425E-024
  -1.7999999999999999E-002    -3.6661683661880859E-024
  -1.7950000000000001E-002    -2.1080329044805459E-024
  -1.7899999999999999E-002     4.7607023843188654E-025
  -1.7850000000000001E-002     3.5926651613573519E-024
  -1.7800000000000000E-002     6.4664244056844281E-024
  -1.7749999999999998E-002     8.1964835400791795E-024
  -1.7700000000000000E-002     7.9878241531678797E-024
  -1.7649999999999999E-002     5.4087078620401340E-024
  -1.7600000000000001E-002     6.0612346118206237E-025
  -1.7550000000000000E-002    -5.5928562619804755E-024
  -1.7499999999999998E-002    -1.1750538666705844E-023
  -1.7450000000000000E-002    -1.6080645078756157E-023
  -1.7399999999999999E-002    -1.6875263817818610E-023
  -1.7350000000000001E-002    -1.3015469661111034E-023
  -1.7299999999999999E-002    -4.4405002917493519E-024
  -1.7250000000000001E-002     7.5691706492104152E-024
  -1.7200000000000000E-002     2.0422911494015700E-023
  -1.7149999999999999E-002     3.0635930912832953E-023
  -1.7100000000000001E-002     3.4608395013692663E-023
  -1.7049999999999999E-002     2.9635356043717589E-023
  -1.7000000000000001E-002     1.4913896551763117E-023
  -1.6950000000000000E-002    -7.7460727140297088E-024
  -1.6899999999999998E-002    -3.3790424984216014E-023
  -1.6850000000000000E-002    -5.6555179300738611E-023
  -1.6799999999999999E-002    -6.8675372849830366E-023
  -1.6750000000000001E-002    -6.4050662283846567E-023
  -1.6700000000000000E-002    -3.9929649069366305E-023
  -1.6649999999999998E-002     1.4708303144706470E-024
  -1.6600000000000000E-002     5.2402740269647276E-023
  -1.6549999999999999E-002     1.0050397268576366E-022
  -1.6500000000000001E-002     1.3128332880979725E-022
  -1.6449999999999999E-002     1.3181772336703705E-022
  -1.6400000000000001E-002     9.4862665945247913E-023
  -1.6350000000000000E-002     2.2268834799173042E-023
  -1.6299999999999999E-002    -7.3454000039331354E-023
  -1.6250000000000001E-002    -1.7030323427910709E-022
  -1.6199999999999999E-002    -2.4095540633422149E-022
  -1.6150000000000001E-002    -2.5940381929845071E-022
  -1.6100000000000000E-002    -2.0868852866232278E-022
  -1.6049999999999998E-002    -8.7731888166287905E-023
  -1.6000000000000000E-002     8.4871696918590339E-023
  -1.5949999999999999E-002     2.7184608921023285E-022
  -1.5900000000000001E-002     4.2373610139975577E-022
  -1.5850000000000000E-002     4.9024135276805770E-022
  -1.5799999999999998E-002     4.3419214200057348E-022
  -1.5750000000000000E-002     2.4478401287205789E-022
  -1.5699999999999999E-002    -5.3797289831650408E-023
  -1.5650000000000001E-002    -4.0173107531778617E-022
  -1.5599999999999999E-002    -7.1273012637382728E-022
  -1.5550000000000001E-002    -8.9250015108704637E-022
  -1.5500000000000000E-002    -8.6328223566117269E-022
  -1.5449999999999998E-002    -5.8892347769078922E-022
  -1.5400000000000000E-002    -9.3633054525510589E-023
  -1.5349999999999999E-002     5.3208946771572709E-022
  -1.5300000000000001E-002     1.1426642318105964E-021
  -1.5250000000000000E-002     1.5662465669825478E-021
  -1.5199999999999998E-002     1.6468303950584290E-021
  -1.5150000000000000E-002     1.2907391931490407E-021
  -1.5099999999999999E-002     5.0551495756255930E-022
  -1.5050000000000001E-002    -5.8118057106561337E-022
  -1.4999999999999999E-002    -1.7320723156983941E-021
  -1.4949999999999998E-002    -2.6433739665017583E-021
  -1.4900000000000000E-002    -3.0152395302967533E-021
  -1.4849999999999999E-002    -2.6355754399774502E-021
  -1.4800000000000001E-002    -1.4565940519531030E-021
  -1.4749999999999999E-002     3.5872918420501313E-022
  -1.4700000000000001E-002     2.4393582903568040E-021
  -1.4650000000000000E-002     4.2672055157536316E-021
  -1.4599999999999998E-002     5.2910897432106790E-021
  -1.4550000000000000E-002     5.0723732434295011E-021
  -1.4499999999999999E-002     3.4279490686556841E-021
  -1.4450000000000001E-002     5.3028493580335925E-022
  -1.4400000000000000E-002    -3.0715340709344729E-021
  -1.4349999999999998E-002    -6.5306770127459721E-021
  -1.4300000000000000E-002    -8.8783935178422555E-021
  -1.4249999999999999E-002    -9.2663466657967909E-021
  -1.4200000000000001E-002    -7.2209678050457098E-021
  -1.4149999999999999E-002    -2.8420893315244918E-021
  -1.4099999999999998E-002     3.1187829611429556E-021
  -1.4050000000000000E-002     9.3436711184118404E-021
  -1.3999999999999999E-002     1.4202770529704497E-020
  -1.3950000000000001E-002     1.6139302587251995E-020
  -1.3899999999999999E-002     1.4103034123533756E-020
  -1.3850000000000001E-002     7.9236144934972072E-021
  -1.3800000000000000E-002    -1.4875898857047824E-021
  -1.3749999999999998E-002    -1.2191276010566619E-020
  -1.3700000000000000E-002    -2.1559302029926637E-020
  -1.3649999999999999E-002    -2.6857281425675984E-020
  -1.3600000000000001E-002    -2.5956513464345096E-020
  -1.3550000000000000E-002    -1.8007209287426294E-020
  -1.3499999999999998E-002    -3.8867096706314148E-021
  -1.3450000000000000E-002     1.3735186900073002E-020
  -1.3399999999999999E-002     3.0796621511036516E-020
  -1.3350000000000001E-002     4.2682830248728134E-020
  -1.3299999999999999E-002     4.5355875857855182E-020
  -1.3249999999999998E-002     3.6524347845082582E-020
  -1.3200000000000000E-002     1.6549144902243854E-020
  -1.3149999999999998E-002    -1.1200249584937493E-020
  -1.3100000000000001E-002    -4.0727011886126929E-020
  -1.3049999999999999E-002    -6.4549638835702274E-020
  -1.3000000000000001E-002    -7.5431290077627737E-020
  -1.2950000000000000E-002    -6.8335222810948365E-020
  -1.2899999999999998E-002    -4.2124582555054937E-020
  -1.2850000000000000E-002    -5.1192513490995940E-022
  -1.2799999999999999E-002     4.8118869367475090E-020