  -4.0000000000000001E-002     0.0000000000000000     
  -3.9949999999999999E-002     0.0000000000000000     
  -3.9899999999999998E-002     0.0000000000000000     
  -3.9850000000000003E-002     0.0000000000000000     
  -3.9800000000000002E-002     0.0000000000000000     
  -3.9750000000000001E-002     0.0000000000000000     
  -3.9699999999999999E-002     0.0000000000000000     
  -3.9649999999999998E-002     0.0000000000000000     
  -3.9600000000000003E-002     0.0000000000000000     
  -3.9550000000000002E-002     0.0000000000000000     
  -3.9500000000000000E-002     0.0000000000000000     
  -3.9449999999999999E-002     0.0000000000000000     
  -3.9399999999999998E-002     0.0000000000000000     
  -3.9350000000000003E-002     0.0000000000000000     
  -3.9300000000000002E-002     0.0000000000000000     
  -3.9250000000000000E-002     0.0000000000000000     
  -3.9199999999999999E-002     0.0000000000000000     
  -3.9150000000000004E-002     0.0000000000000000     
  -3.9100000000000003E-002     0.0000000000000000     
  -3.9050000000000001E-002     0.0000000000000000     
  -3.9000000000000000E-002     0.0000000000000000     
  -3.8949999999999999E-002     0.0000000000000000     
  -3.8900000000000004E-002     0.0000000000000000     
  -3.8850000000000003E-002     0.0000000000000000     
  -3.8800000000000001E-002     0.0000000000000000     
  -3.8750000000000000E-002     0.0000000000000000     
  -3.8699999999999998E-002     0.0000000000000000     
  -3.8650000000000004E-002     0.0000000000000000     
  -3.8600000000000002E-002     0.0000000000000000     
  -3.8550000000000001E-002     0.0000000000000000     
  -3.8500000000000000E-002     0.0000000000000000     
  -3.8449999999999998E-002     0.0000000000000000     
  -3.8400000000000004E-002     0.0000000000000000     
  -3.8350000000000002E-002     0.0000000000000000     
  -3.8300000000000001E-002     0.0000000000000000     
  -3.8249999999999999E-002     0.0000000000000000     
  -3.8199999999999998E-002     0.0000000000000000     
  -3.8150000000000003E-002     0.0000000000000000     
  -3.8100000000000002E-002     0.0000000000000000     
  -3.8050000000000000E-002     0.0000000000000000     
  -3.7999999999999999E-002     0.0000000000000000     
  -3.7949999999999998E-002     0.0000000000000000     
  -3.7900000000000003E-002     0.0000000000000000     
  -3.7850000000000002E-002     0.0000000000000000     
  -3.7800000000000000E-002     0.0000000000000000     
  -3.7749999999999999E-002     0.0000000000000000     
  -3.7699999999999997E-002     0.0000000000000000     
  -3.7650000000000003E-002     0.0000000000000000     
  -3.7600000000000001E-002     0.0000000000000000     
  -3.7550000000000000E-002     0.0000000000000000     
  -3.7499999999999999E-002     0.0000000000000000     
  -3.7449999999999997E-002     0.0000000000000000     
  -3.7400000000000003E-002     0.0000000000000000     
  -3.7350000000000001E-002     5.5687816786087704E-041
  -3.7300000000000000E-002     1.6960037800760903E-040
  -3.7249999999999998E-002     2.8422188718106771E-040
  -3.7200000000000004E-002    -4.5512017302175412E-041
  -3.7150000000000002E-002    -1.4738363724335429E-039
  -3.7100000000000001E-002    -4.1435791048957474E-039
  -3.7050000000000000E-002    -6.6500335128370384E-039
  -3.6999999999999998E-002    -4.4844562413828097E-039
  -3.6950000000000004E-002    -4.8017820614177286E-038
  -3.6900000000000002E-002    -8.3831367447382713E-038
  -3.6850000000000001E-002    -8.8314419672449453E-038
  -3.6799999999999999E-002     3.4392415656962347E-038
  -3.6749999999999998E-002     3.6662473617327374E-037
  -3.6700000000000003E-002     9.0994302959972165E-037
  -3.6650000000000002E-002     1.4390909976179577E-036
  -3.6600000000000001E-002     1.3912408433927577E-036
  -3.6549999999999999E-002    -6.4934963385970365E-038
  -3.6499999999999998E-002    -3.6126185493658864E-036
  -3.6450000000000003E-002    -9.0037930951939450E-036
  -3.6400000000000002E-002    -1.4135152601251949E-035
  -3.6350000000000000E-002    -1.4556104528687042E-035
  -3.6299999999999999E-002    -4.1834249983025770E-036
  -3.6249999999999998E-002     2.2067485251042090E-035
  -3.6200000000000003E-002     6.3542935588528957E-035
  -3.6150000000000002E-002     1.0787082024316545E-034
  -3.6100000000000000E-002     1.2635334939787256E-034
  -3.6049999999999999E-002     7.5761025513506929E-035
  -3.6000000000000004E-002    -8.6380978988857695E-035
  -3.5950000000000003E-002    -3.6732844055175129E-034
  -3.5900000000000001E-002    -6.8975835146362853E-034
  -3.5850000000000000E-002    -8.5358684082507728E-034
  -3.5799999999999998E-002    -5.6179945324452546E-034
  -3.5750000000000004E-002     4.2993055069184331E-034
  -3.5700000000000003E-002     2.0310452713043593E-033
  -3.5650000000000001E-002     3.5236584893456011E-033
  -3.5600000000000000E-002     3.5495183040030423E-033
  -3.5549999999999998E-002     7.2444232838047168E-034
  -3.5500000000000004E-002    -5.0254238390789312E-033
  -3.5450000000000002E-002    -1.0972507209099339E-032
  -3.5400000000000001E-002    -1.1328055034832392E-032
  -3.5349999999999999E-002     1.3472490321531753E-034
  -3.5299999999999998E-002     2.4112574651769512E-032
  -3.5250000000000004E-002     4.8957442670209410E-032
  -3.5200000000000002E-002     4.9022090214812802E-032
  -3.5150000000000001E-002    -4.8103344405506391E-033
  -3.5099999999999999E-002    -1.2037009782019995E-031
  -3.5049999999999998E-002    -2.5499471349627598E-031
  -3.5000000000000003E-002    -3.0513608824423880E-031
  -3.4950000000000002E-002    -1.4168098314608536E-031
  -3.4900000000000000E-002     3.0051876241319002E-031
  -3.4849999999999999E-002     9.1247880959831292E-031
  -3.4799999999999998E-002     1.3601557433217577E-030
  -3.4750000000000003E-002     1.1837789548237613E-030
  -3.4700000000000002E-002     7.6100216096453793E-032
  -3.4650000000000000E-002    -1.7681990983487622E-030
  -3.4599999999999999E-002    -3.4828143476926931E-030
  -3.4549999999999997E-002    -3.8151800805289611E-030
  -3.4500000000000003E-002    -1.9357395214019026E-030
  -3.4450000000000001E-002     1.5841025304403359E-030
  -3.4400000000000000E-002     4.4008035660969688E-030
  -3.4349999999999999E-002     3.4411246952774894E-030
  -3.4299999999999997E-002    -2.5178516972846404E-030
  -3.4250000000000003E-002    -9.9372390139836610E-030
  -3.4200000000000001E-002    -9.7678231472200907E-030
  -3.4150000000000000E-002     8.5615650834620979E-030
  -3.4099999999999998E-002     4.7968298113958946E-029
  -3.4049999999999997E-002     9.3089800415645639E-029
  -3.4000000000000002E-002     1.0624099923193222E-028
  -3.3950000000000001E-002     3.8952306852168134E-029
  -3.3900000000000000E-002    -1.3748263427280061E-028
  -3.3849999999999998E-002    -3.9140540388634480E-028
  -3.3799999999999997E-002    -6.0352902110506503E-028
  -3.3750000000000002E-002    -5.8343610568995208E-028
  -3.3700000000000001E-002    -1.4979660253982906E-028
  -3.3649999999999999E-002     7.3745870058414930E-028
  -3.3599999999999998E-002     1.8486711314083403E-027
  -3.3550000000000003E-002     2.6484111495242824E-027
  -3.3500000000000002E-002     2.4337841513187598E-027
  -3.3450000000000001E-002     6.6401093120518440E-028
  -3.3399999999999999E-002    -2.6146232952668119E-027
  -3.3349999999999998E-002    -6.4574006839180224E-027
  -3.3300000000000003E-002    -9.0730488444320528E-027
  -3.3250000000000002E-002    -8.3942371262363746E-027
  -3.3200000000000000E-002    -3.0858059174538503E-027
  -3.3149999999999999E-002     6.3884107709769709E-027
  -3.3099999999999997E-002     1.7222744950475251E-026
  -3.3050000000000003E-002     2.4774118155234036E-026
  -3.3000000000000002E-002     2.4238587268928796E-026
  -3.2950000000000000E-002     1.2992713218928310E-026
  -3.2899999999999999E-002    -7.4742727146704774E-027
  -3.2850000000000004E-002    -3.1231375311119150E-026
  -3.2800000000000003E-002    -4.9796066891204638E-026
  -3.2750000000000001E-002    -5.5691854029262869E-026
  -3.2700000000000000E-002    -4.5908465710284418E-026
  -3.2649999999999998E-002    -2.3052788989622292E-026
  -3.2600000000000004E-002     7.0687004155080088E-027
  -3.2550000000000003E-002     4.0415608758366158E-026
  -3.2500000000000001E-002     7.8665088315967408E-026
  -3.2450000000000000E-002     1.2758382468885049E-025
  -3.2399999999999998E-002     1.8740653268986393E-025
  -3.2350000000000004E-002     2.3828912200011919E-025
  -3.2300000000000002E-002     2.3054174982694951E-025
  -3.2250000000000001E-002     9.2854894043442863E-026
  -3.2199999999999999E-002    -2.3245012376066103E-025
  -3.2149999999999998E-002    -7.3182123276077274E-025
  -3.2100000000000004E-002    -1.2647742005324808E-024
  -3.2050000000000002E-002    -1.5500332399945293E-024
  -3.2000000000000001E-002    -1.2325344698246760E-024
  -3.1949999999999999E-002    -4.3656894705353040E-026
  -3.1899999999999998E-002     1.9831958495281035E-024
  -3.1850000000000003E-002     4.3354507317241857E-024
  -3.1800000000000002E-002     6.0074364337236174E-024
  -3.1750000000000000E-002     5.7494197138433607E-024
  -3.1699999999999999E-002     2.5848020987589549E-024
  -3.1649999999999998E-002    -3.5433797107464374E-024
  -3.1600000000000003E-002    -1.1272084180810068E-023
  -3.1550000000000002E-002    -1.7790673865163745E-023
  -3.1500000000000000E-002    -1.9514558527973537E-023
  -3.1449999999999999E-002    -1.3431124924380382E-023
  -3.1399999999999997E-002     1.2568074264810697E-024
  -3.1350000000000003E-002     2.1855407287600836E-023
  -3.1300000000000001E-002     4.2006958045374284E-023
  -3.1250000000000000E-002     5.3092483121883413E-023
  -3.1199999999999999E-002     4.7110201452044657E-023
  -3.1150000000000001E-002     2.0229676348974031E-023
  -3.1100000000000003E-002    -2.4310689368402470E-023
  -3.1050000000000001E-002    -7.5363008721627951E-023
  -3.1000000000000000E-002    -1.1594817303072201E-022
  -3.0949999999999998E-002    -1.2808412416770546E-022
  -3.0900000000000000E-002    -9.9046071398237754E-023
  -3.0850000000000002E-002    -2.6969854375394674E-023
  -3.0800000000000001E-002     7.6289683711186280E-023
  -3.0750000000000000E-002     1.8628710679434518E-022
  -3.0699999999999998E-002     2.7098664714535718E-022
  -3.0650000000000000E-002     2.9826418986817881E-022
  -3.0600000000000002E-002     2.4397601235563724E-022
  -3.0550000000000001E-002     9.8991734366993911E-023
  -3.0499999999999999E-002    -1.2553829537723161E-022
  -3.0449999999999998E-002    -3.9479052808941523E-022
  -3.0400000000000000E-002    -6.4923937543569338E-022
  -3.0350000000000002E-002    -8.0796529238016008E-022
  -3.0300000000000001E-002    -7.7993506345729657E-022
  -3.0249999999999999E-002    -4.8694885803520720E-022
  -3.0200000000000001E-002     1.0134019012398531E-022
  -3.0150000000000000E-002     9.2701263228040241E-022
  -3.0100000000000002E-002     1.8136650142521002E-021
  -3.0050000000000000E-002     2.4682793136993777E-021
  -2.9999999999999999E-002     2.5352091994279165E-021
  -2.9950000000000001E-002     1.7084047893880455E-021
  -2.9899999999999999E-002    -1.1718217899575119E-022
  -2.9850000000000002E-002    -2.7031997633363482E-021
  -2.9800000000000000E-002    -5.4028602900957102E-021
  -2.9749999999999999E-002    -7.2386322598747363E-021
  -2.9700000000000001E-002    -7.1529985320711124E-021
  -2.9650000000000003E-002    -4.3987300596187375E-021
  -2.9600000000000001E-002     1.0395446428440227E-021
  -2.9550000000000000E-002     8.1562362338694143E-021
  -2.9499999999999998E-002     1.4936407851711908E-020
  -2.9450000000000000E-002     1.8770281286779634E-020
  -2.9400000000000003E-002     1.7241510690056819E-020
  -2.9350000000000001E-002     9.0994277930032182E-021
  -2.9300000000000000E-002    -4.9060996820878389E-021
  -2.9249999999999998E-002    -2.1687773304616687E-020
  -2.9200000000000000E-002    -3.6249323971469844E-020
  -2.9150000000000002E-002    -4.2925047235365362E-020
  -2.9100000000000001E-002    -3.7183666645160020E-020
  -2.9049999999999999E-002    -1.7485116646585180E-020
  -2.8999999999999998E-002     1.3451426669519064E-020
  -2.8950000000000000E-002     4.8531428913873268E-020
  -2.8900000000000002E-002     7.7591054606059438E-020
  -2.8850000000000001E-002     8.9962557124885581E-020
  -2.8799999999999999E-002     7.7698145137113954E-020
  -2.8749999999999998E-002     3.8558282154257644E-020
  -2.8700000000000000E-002    -2.2168104774403963E-020
  -2.8650000000000002E-002    -9.1702596016549947E-020
  -2.8600000000000000E-002    -1.5191347479655967E-019
  -2.8549999999999999E-002    -1.8325648979594150E-019
  -2.8500000000000001E-002    -1.6976505088956069E-019
  -2.8450000000000000E-002    -1.0404202329027230E-019
  -2.8400000000000002E-002     8.8858725046257378E-021
  -2.8350000000000000E-002     1.4990820377681181E-019
  -2.8299999999999999E-002     2.8720492007586999E-019
  -2.8250000000000001E-002     3.8113631703873118E-019
  -2.8200000000000003E-002     3.9257836150934020E-019
  -2.8150000000000001E-002     2.9381429384001700E-019
  -2.8100000000000000E-002     8.0031128422163664E-020
  -2.8049999999999999E-002    -2.2162685274222790E-019
  -2.8000000000000001E-002    -5.4918967071946432E-019
  -2.7950000000000003E-002    -8.1264020447882827E-019
  -2.7900000000000001E-002    -9.1207222807329645E-019
  -2.7850000000000000E-002    -7.6571725296055285E-019
  -2.7799999999999998E-002    -3.4215979249490159E-019
  -2.7750000000000000E-002     3.1274527444335082E-019
  -2.7700000000000002E-002     1.0654777671860325E-018
  -2.7650000000000001E-002     1.7103472495257212E-018
  -2.7600000000000000E-002     2.0141822959915154E-018
  -2.7549999999999998E-002     1.7841212365236592E-018
  -2.7500000000000000E-002     9.4223551166343953E-019
  -2.7450000000000002E-002    -4.1662998997967510E-019
  -2.7400000000000001E-002    -2.0082867836865757E-018
  -2.7349999999999999E-002    -3.4006755314612997E-018
  -2.7299999999999998E-002    -4.1144304047809127E-018
  -2.7250000000000000E-002    -3.7635784409862627E-018
  -2.7200000000000002E-002    -2.1993659938018460E-018
  -2.7150000000000001E-002     3.8907079421256276E-019
  -2.7099999999999999E-002     3.4588903309005534E-018
  -2.7049999999999998E-002     6.2047982562051822E-018
  -2.7000000000000000E-002     7.7491922260425869E-018
  -2.6950000000000002E-002     7.3901930729155580E-018
  -2.6900000000000000E-002     4.8418015761311563E-018
  -2.6849999999999999E-002     3.9287176520961050E-019
  -2.6800000000000001E-002    -5.0742482641756058E-018
  -2.6749999999999999E-002    -1.0230939797172650E-017
  -2.6700000000000002E-002    -1.3596360622792589E-017
  -2.6650000000000000E-002    -1.3916222233099888E-017
  -2.6599999999999999E-002    -1.0535138126878253E-017
  -2.6550000000000001E-002    -3.6647538905073806E-018
  -2.6500000000000003E-002     5.5322385224749332E-018
  -2.6450000000000001E-002     1.5084223988056731E-017
  -2.6400000000000000E-002     2.2572298697424992E-017
  -2.6349999999999998E-002     2.5655637396185529E-017
  -2.6300000000000000E-002     2.2664341264774849E-017
  -2.6250000000000002E-002     1.3137494272682997E-017
  -2.6200000000000001E-002    -1.8234898063007354E-018
  -2.6150000000000000E-002    -1.9502854029749984E-017
  -2.6099999999999998E-002    -3.5898658439415610E-017
  -2.6050000000000000E-002    -4.6445653993406399E-017
  -2.6000000000000002E-002    -4.7058222247871883E-017
  -2.5950000000000001E-002    -3.5315208847186252E-017
  -2.5899999999999999E-002    -1.1514153008869554E-017
  -2.5849999999999998E-002     2.0730268609126102E-017
  -2.5800000000000000E-002     5.4643549339866404E-017
  -2.5750000000000002E-002     8.1377147980074837E-017
  -2.5700000000000001E-002     9.1970228919709078E-017
  -2.5649999999999999E-002     7.9851520954303628E-017
  -2.5599999999999998E-002     4.3281828950526558E-017
  -2.5550000000000000E-002    -1.3010641249029662E-017
  -2.5500000000000002E-002    -7.7697477173271879E-017
  -2.5450000000000000E-002    -1.3462367758795608E-016
  -2.5399999999999999E-002    -1.6639571894950564E-016
  -2.5349999999999998E-002    -1.5910745060272743E-016
  -2.5300000000000000E-002    -1.0702710650628270E-016
  -2.5250000000000002E-002    -1.5837354065170427E-017
  -2.5200000000000000E-002     9.6814141443556226E-017
  -2.5149999999999999E-002     2.0410952546815196E-016
  -2.5100000000000001E-002     2.7596490368235218E-016
  -2.5049999999999999E-002     2.8684318926755454E-016
  -2.5000000000000001E-002     2.2352962527907559E-016
  -2.4950000000000000E-002     9.0658307603538425E-017
  -2.4899999999999999E-002    -8.7868215567685101E-017
  -2.4850000000000001E-002    -2.7248838966671032E-016
  -2.4800000000000003E-002    -4.1624673072704863E-016
  -2.4750000000000001E-002    -4.7603231590875163E-016
  -2.4700000000000000E-002    -4.2415794285657169E-016
  -2.4649999999999998E-002    -2.5733709363480697E-016
  -2.4600000000000000E-002    -5.5589498507813168E-019
  -2.4550000000000002E-002     2.9557419411069139E-016
  -2.4500000000000001E-002     5.6392448842694931E-016
  -2.4450000000000000E-002     7.3486142784579591E-016
  -2.4399999999999998E-002     7.5241560501065999E-016
  -2.4350000000000000E-002     5.8921725053366217E-016
  -2.4299999999999999E-002     2.5681059537295201E-016
  -2.4250000000000001E-002    -1.9140696836778246E-016
  -2.4199999999999999E-002    -6.6621194918559388E-016
  -2.4150000000000001E-002    -1.0575778959758230E-015
  -2.4100000000000000E-002    -1.2569259835140651E-015
  -2.4049999999999998E-002    -1.1830062396549167E-015
  -2.4000000000000000E-002    -8.0626536403999516E-016
  -2.3949999999999999E-002    -1.6569642967772455E-016
  -2.3900000000000001E-002     6.2754250527753180E-016
  -2.3850000000000000E-002     1.4036474851523861E-015
  -2.3800000000000002E-002     1.9653478175721187E-015
  -2.3750000000000000E-002     2.1327230392573619E-015
  -2.3699999999999999E-002     1.7929113000943536E-015
  -2.3650000000000001E-002     9.4243425826855743E-016
  -2.3599999999999999E-002    -2.9100514803009629E-016
  -2.3550000000000001E-002    -1.6576027687645561E-015
  -2.3500000000000000E-002    -2.8292250758413301E-015
  -2.3449999999999999E-002    -3.4725322340924451E-015
  -2.3400000000000001E-002    -3.3366055045861719E-015
  -2.3349999999999999E-002    -2.3332721303267400E-015
  -2.3300000000000001E-002    -5.8650907603646295E-016
  -2.3250000000000000E-002     1.5677699831818425E-015
  -2.3199999999999998E-002     3.6390759582076030E-015
  -2.3150000000000000E-002     5.0892991591653886E-015
  -2.3099999999999999E-002     5.4667532060672288E-015
  -2.3050000000000001E-002     4.5344206700273150E-015
  -2.3000000000000000E-002     2.3573012942635345E-015
  -2.2950000000000002E-002    -6.7878989493223798E-016
  -2.2900000000000000E-002    -3.9288360189872952E-015
  -2.2849999999999999E-002    -6.6221750512508565E-015
  -2.2800000000000001E-002    -8.0401070092494203E-015
  -2.2749999999999999E-002    -7.6964768553719500E-015
  -2.2700000000000001E-002    -5.4769868350870378E-015
  -2.2650000000000000E-002    -1.7008763265152689E-015
  -2.2599999999999999E-002     2.9144551388468555E-015
  -2.2550000000000001E-002     7.3834585487108575E-015
  -2.2499999999999999E-002     1.0653293621716695E-014
  -2.2450000000000001E-002     1.1835561899675760E-014
  -2.2400000000000000E-002     1.0421053495773294E-014
  -2.2349999999999998E-002     6.4312123452615494E-015
  -2.2300000000000000E-002     4.7006526138606157E-016
  -2.2249999999999999E-002    -6.3429467807139894E-015
  -2.2200000000000001E-002    -1.2558003249273698E-014
  -2.2150000000000000E-002    -1.6674106136228389E-014
  -2.2100000000000002E-002    -1.7467342799487246E-014
  -2.2050000000000000E-002    -1.4306026185730245E-014
  -2.1999999999999999E-002    -7.3819457125258119E-015
  -2.1950000000000001E-002     2.2089999082844893E-015
  -2.1899999999999999E-002     1.2583196509233060E-014
  -2.1850000000000001E-002     2.1392507349303703E-014
  -2.1800000000000000E-002     2.6315249772091091E-014
  -2.1749999999999999E-002     2.5624947330442891E-014
  -2.1700000000000001E-002     1.8707492749849026E-014
  -2.1649999999999999E-002     6.3844112755161932E-015
  -2.1600000000000001E-002    -9.0762999052477485E-015
  -2.1550000000000000E-002    -2.4317968445831683E-014
  -2.1499999999999998E-002    -3.5587365030087954E-014
  -2.1450000000000000E-002    -3.9629488868032931E-014
  -2.1399999999999999E-002    -3.4576853366557480E-014
  -2.1350000000000001E-002    -2.0595996220184139E-014
  -2.1299999999999999E-002    -8.7791473438257675E-017
  -2.1250000000000002E-002     2.2665426293697320E-014
  -2.1200000000000000E-002     4.2374855598681943E-014
  -2.1149999999999999E-002     5.3966606082830737E-014
  -2.1100000000000001E-002     5.3863660246539191E-014
  -2.1049999999999999E-002     4.1002150185730686E-014
  -2.1000000000000001E-002     1.7300903432204206E-014
  -2.0950000000000000E-002    -1.2572237817809748E-014
  -2.0899999999999998E-002    -4.2121761261147120E-014
  -2.0850000000000000E-002    -6.4442814712548129E-014
  -2.0799999999999999E-002    -7.3815298088153296E-014
  -2.0750000000000001E-002    -6.7100922002757603E-014
  -2.0700000000000000E-002    -4.4611040750636039E-014
  -2.0649999999999998E-002    -1.0232377465076287E-014
  -2.0600000000000000E-002     2.9235195745853727E-014
  -2.0549999999999999E-002     6.5403174333029862E-014
  -2.0500000000000001E-002     9.0017021287336568E-014
  -2.0449999999999999E-002     9.6733352132347798E-014
  -2.0400000000000001E-002     8.2597416100491862E-014
  -2.0350000000000000E-002     4.8918107101579670E-014
  -2.0299999999999999E-002     1.3374656777511035E-015
  -2.0250000000000001E-002    -5.0976555873928866E-014
  -2.0199999999999999E-002    -9.6936638571639044E-014
  -2.0150000000000001E-002    -1.2571233611093963E-013
  -2.0100000000000000E-002    -1.2910846517500927E-013
  -2.0049999999999998E-002    -1.0367908983321809E-013
  -2.0000000000000000E-002    -5.2081431896896623E-014
  -1.9949999999999999E-002     1.6754201531292325E-014
  -1.9900000000000001E-002     8.8873690329112198E-014
  -1.9850000000000000E-002     1.4790881808942524E-013
  -1.9799999999999998E-002     1.7864005009814905E-013
  -1.9750000000000000E-002     1.7078554544830426E-013
  -1.9699999999999999E-002     1.2209912240399094E-013
  -1.9650000000000001E-002     3.9884981745268473E-014
  -1.9599999999999999E-002    -5.9685394634502692E-014
  -1.9550000000000001E-002    -1.5457124978145252E-013
  -1.9500000000000000E-002    -2.2168521382565468E-013
  -1.9449999999999999E-002    -2.4249479617529578E-013
  -1.9400000000000001E-002    -2.0802469566399816E-013
  -1.9349999999999999E-002    -1.2189835823913842E-013
  -1.9300000000000001E-002    -4.5625944690987578E-016
  -1.9250000000000000E-002     1.3030884574760651E-013
  -1.9199999999999998E-002     2.4043130634382614E-013
  -1.9150000000000000E-002     3.0297322893422575E-013
  -1.9099999999999999E-002     3.0064140469302770E-013
  -1.9050000000000001E-002     2.3034918934359208E-013
  -1.9000000000000000E-002     1.0452876106405888E-013
  -1.8949999999999998E-002    -5.1202129667705427E-014
  -1.8900000000000000E-002    -2.0351355005128294E-013
  -1.8849999999999999E-002    -3.1870902124318048E-013
  -1.8800000000000001E-002    -3.7024602272906458E-013
  -1.8749999999999999E-002    -3.4473126258013818E-013
  -1.8700000000000001E-002    -2.4508484386272322E-013
  -1.8650000000000000E-002    -9.0231056632347655E-014
  -1.8599999999999998E-002     8.8574031539079442E-014
  -1.8550000000000001E-002     2.5400129788293479E-013
  -1.8499999999999999E-002     3.7025293048424799E-013
  -1.8450000000000001E-002     4.1056290611651745E-013
  -1.8400000000000000E-002     3.6317994991888131E-013
  -1.8349999999999998E-002     2.3465517005664842E-013
  -1.8300000000000000E-002     4.9659133011328804E-014
  -1.8249999999999999E-002    -1.5291990063775854E-013
  -1.8200000000000001E-002    -3.2720948526014034E-013
  -1.8149999999999999E-002    -4.2984892097712999E-013
  -1.8100000000000002E-002    -4.3004686736290710E-013
  -1.8050000000000000E-002    -3.1807662591337715E-013
  -1.7999999999999999E-002    -1.1004582314997129E-013
  -1.7950000000000001E-002     1.5274438998507124E-013
  -1.7899999999999999E-002     4.1051894732364708E-013
  -1.7850000000000001E-002     5.9708795897030569E-013
  -1.7800000000000000E-002     6.5502078357559751E-013
  -1.7749999999999998E-002     5.5056387800304967E-013
  -1.7700000000000000E-002     2.8452169577723647E-013
  -1.7649999999999999E-002    -1.0410796858312215E-013
  -1.7600000000000001E-002    -5.4342248351290487E-013
  -1.7550000000000000E-002    -9.4233373487353578E-013
  -1.7499999999999998E-002    -1.2099718882058523E-012
  -1.7450000000000000E-002    -1.2763284305153091E-012
  -1.7399999999999999E-002    -1.1090876808238442E-012
  -1.7350000000000001E-002    -7.2232260537072598E-013
  -1.7299999999999999E-002    -1.7465858061748461E-013
  -1.7250000000000001E-002     4.4286097835735915E-013
  -1.7200000000000000E-002     1.0263463439365693E-012
  -1.7149999999999999E-002     1.4813131986855798E-012
  -1.7100000000000001E-002     1.7422044220248859E-012
  -1.7049999999999999E-002     1.7845280200049145E-012
  -1.7000000000000001E-002     1.6268793387084823E-012
  -1.6950000000000000E-002     1.3226647207663465E-012
  -1.6899999999999998E-002     9.4384440514252761E-013
  -1.6850000000000000E-002     5.6083844469900494E-013
  -1.6799999999999999E-002     2.2350835325284755E-013
  -1.6750000000000001E-002    -5.2254862163766211E-014
  -1.6700000000000000E-002    -2.8914235473935804E-013
  -1.6649999999999998E-002    -5.4296102872150681E-013
  -1.6600000000000000E-002    -8.8787687879512794E-013
  -1.6549999999999999E-002    -1.3949939502293982E-012
  -1.6500000000000001E-002    -2.1082336545584129E-012
  -1.6449999999999999E-002    -3.0221474659427101E-012
  -1.6400000000000001E-002    -4.0662187582412829E-012
  -1.6350000000000000E-002    -5.0993923861667342E-012
  -1.6299999999999999E-002    -5.9170320040361711E-012
  -1.6250000000000001E-002    -6.2703687730049367E-012
  -1.6199999999999999E-002    -5.8960814458707322E-012
  -1.6150000000000001E-002    -4.5513366991818901E-012
  -1.6100000000000000E-002    -2.0479391196151937E-012
  -1.6049999999999998E-002     1.7212878565720899E-012
  -1.6000000000000000E-002     6.7697693825310156E-012
  -1.5949999999999999E-002     1.3021503388798250E-011
  -1.5900000000000001E-002     2.0332216700749851E-011
  -1.5850000000000000E-002     2.8523280526328279E-011
  -1.5799999999999998E-002     3.7420906057438786E-011
  -1.5750000000000000E-002     4.6891622364659301E-011
  -1.5699999999999999E-002     5.6865448999841792E-011
  -1.5650000000000001E-002     6.7340993541421087E-011
  -1.5599999999999999E-002     7.8370929899555837E-011
  -1.5550000000000001E-002     9.0031484291324561E-011
  -1.5500000000000000E-002     1.0238353706373352E-010
  -1.5449999999999998E-002     1.1543553275534183E-010
  -1.5400000000000000E-002     1.2911830148686609E-010
  -1.5349999999999999E-002     1.4327906195696963E-010
  -1.5300000000000001E-002     1.5769737079868838E-010
  -1.5250000000000000E-002     1.7212040661925027E-010
  -1.5199999999999998E-002     1.8631011815953471E-010
  -1.5150000000000000E-002     2.0009168968565421E-010
  -1.5099999999999999E-002     2.1339214586057226E-010
  -1.5050000000000001E-002     2.2625973427783641E-010
  -1.4999999999999999E-002     2.3885922153998679E-010
  -1.4949999999999998E-002     2.5144300516365671E-010
  -1.4900000000000000E-002     2.6430363616033336E-010
  -1.4849999999999999E-002     2.7771742670419354E-010
  -1.4800000000000001E-002     2.9189116852846632E-010
  -1.4749999999999999E-002     3.0692271208915340E-010
  -1.4700000000000001E-002     3.2278439102821570E-010
  -1.4650000000000000E-002     3.3933314733276369E-010
  -1.4599999999999998E-002     3.5634531273403956E-010
  -1.4550000000000000E-002     3.7356897249420219E-010
  -1.4499999999999999E-002     3.9078304754676460E-010
  -1.4450000000000001E-002     4.0785001703639532E-010
  -1.4400000000000000E-002     4.2475089168227169E-010
  -1.4349999999999998E-002     4.4159433771660677E-010
  -1.4300000000000000E-002     4.5859676821719400E-010
  -1.4249999999999999E-002     4.7603823138162780E-010
  -1.4200000000000001E-002     4.9420182640450085E-010
  -1.4149999999999999E-002     5.1331173896888675E-010
  -1.4099999999999998E-002     5.3348175013432084E-010
  -1.4050000000000000E-002     5.5468784281540906E-010
  -1.3999999999999999E-002     5.7677090766040193E-010
  -1.3950000000000001E-002     5.9946983684667822E-010
  -1.3899999999999999E-002     6.2247969439149967E-010
  -1.3850000000000001E-002     6.4552138279943252E-010
  -1.3800000000000000E-002     6.6840961304224548E-010
  -1.3749999999999998E-002     6.9110148204373747E-010
  -1.3700000000000000E-002     7.1371705578498283E-010
  -1.3649999999999999E-002     7.3652419024117941E-010
  -1.3600000000000001E-002     7.5989187884994479E-010
  -1.3550000000000000E-002     7.8421967099852279E-010
  -1.3499999999999998E-002     8.0985866829556302E-010
  -1.3450000000000000E-002     8.3704132401730927E-010
  -1.3399999999999999E-002     8.6583573124821853E-010
  -1.3350000000000001E-002     8.9613475700110166E-010
  -1.3299999999999999E-002     9.2768402557579390E-010
  -1.3249999999999998E-002     9.6014199552044555E-010
  -1.3200000000000000E-002     9.9316133172532944E-010
  -1.3149999999999998E-002     1.0264720512880076E-009
  -1.3100000000000001E-002     1.0599487731276695E-009
  -1.3049999999999999E-002     1.0936446332338466E-009
  -1.3000000000000001E-002     1.1277855294019942E-009
  -1.2950000000000000E-002     1.1627237692233584E-009
  -1.2899999999999998E-002     1.1988606652354227E-009
  -1.2850000000000000E-002     1.2365565143533241E-009
  -1.2799999999999999E-002     1.2760483778559313E-009