  -4.0000000000000001E-002     0.0000000000000000     
  -3.9949999999999999E-002     0.0000000000000000     
  -3.9899999999999998E-002     0.0000000000000000     
  -3.9850000000000003E-002     0.0000000000000000     
  -3.9800000000000002E-002     0.0000000000000000     
  -3.9750000000000001E-002     0.0000000000000000     
  -3.9699999999999999E-002     0.0000000000000000     
  -3.9649999999999998E-002     0.0000000000000000     
  -3.9600000000000003E-002     0.0000000000000000     
  -3.9550000000000002E-002     0.0000000000000000     
  -3.9500000000000000E-002     0.0000000000000000     
  -3.9449999999999999E-002     0.0000000000000000     
  -3.9399999999999998E-002     0.0000000000000000     
  -3.9350000000000003E-002     0.0000000000000000     
  -3.9300000000000002E-002     0.0000000000000000     
  -3.9250000000000000E-002     0.0000000000000000     
  -3.9199999999999999E-002     0.0000000000000000     
  -3.9150000000000004E-002     0.0000000000000000     
  -3.9100000000000003E-002     0.0000000000000000     
  -3.9050000000000001E-002     0.0000000000000000     
  -3.9000000000000000E-002     0.0000000000000000     
  -3.8949999999999999E-002     0.0000000000000000     
  -3.8900000000000004E-002     0.0000000000000000     
  -3.8850000000000003E-002     0.0000000000000000     
  -3.8800000000000001E-002     0.0000000000000000     
  -3.8750000000000000E-002     0.0000000000000000     
  -3.8699999999999998E-002     0.0000000000000000     
  -3.8650000000000004E-002     0.0000000000000000     
  -3.8600000000000002E-002     0.0000000000000000     
  -3.8550000000000001E-002     0.0000000000000000     
  -3.8500000000000000E-002     0.0000000000000000     
  -3.8449999999999998E-002     0.0000000000000000     
  -3.8400000000000004E-002     0.0000000000000000     
  -3.8350000000000002E-002     0.0000000000000000     
  -3.8300000000000001E-002     0.0000000000000000     
  -3.8249999999999999E-002     0.0000000000000000     
  -3.8199999999999998E-002     0.0000000000000000     
  -3.8150000000000003E-002     0.0000000000000000     
  -3.8100000000000002E-002     0.0000000000000000     
  -3.8050000000000000E-002     0.0000000000000000     
  -3.7999999999999999E-002     0.0000000000000000     
  -3.7949999999999998E-002     0.0000000000000000     
  -3.7900000000000003E-002     0.0000000000000000     
  -3.7850000000000002E-002     0.0000000000000000     
  -3.7800000000000000E-002     0.0000000000000000     
  -3.7749999999999999E-002     0.0000000000000000     
  -3.7699999999999997E-002     0.0000000000000000     
  -3.7650000000000003E-002     0.0000000000000000     
  -3.7600000000000001E-002     0.0000000000000000     
  -3.7550000000000000E-002     0.0000000000000000     
  -3.7499999999999999E-002     0.0000000000000000     
  -3.7449999999999997E-002     0.0000000000000000     
  -3.7400000000000003E-002     0.0000000000000000     
  -3.7350000000000001E-002     0.0000000000000000     
  -3.7300000000000000E-002     0.0000000000000000     
  -3.7249999999999998E-002     0.0000000000000000     
  -3.7200000000000004E-002     0.0000000000000000     
  -3.7150000000000002E-002     0.0000000000000000     
  -3.7100000000000001E-002     0.0000000000000000     
  -3.7050000000000000E-002     0.0000000000000000     
  -3.6999999999999998E-002     0.0000000000000000     
  -3.6950000000000004E-002     0.0000000000000000     
  -3.6900000000000002E-002     0.0000000000000000     
  -3.6850000000000001E-002     0.0000000000000000     
  -3.6799999999999999E-002     0.0000000000000000     
  -3.6749999999999998E-002     0.0000000000000000     
  -3.6700000000000003E-002     0.0000000000000000     
  -3.6650000000000002E-002     0.0000000000000000     
  -3.6600000000000001E-002     0.0000000000000000     
  -3.6549999999999999E-002     0.0000000000000000     
  -3.6499999999999998E-002     0.0000000000000000     
  -3.6450000000000003E-002     0.0000000000000000     
  -3.6400000000000002E-002     0.0000000000000000     
  -3.6350000000000000E-002     0.0000000000000000     
  -3.6299999999999999E-002     0.0000000000000000     
  -3.6249999999999998E-002     0.0000000000000000     
  -3.6200000000000003E-002     0.0000000000000000     
  -3.6150000000000002E-002     0.0000000000000000     
  -3.6100000000000000E-002     0.0000000000000000     
  -3.6049999999999999E-002     0.0000000000000000     
  -3.6000000000000004E-002     0.0000000000000000     
  -3.5950000000000003E-002     0.0000000000000000     
  -3.5900000000000001E-002     0.0000000000000000     
  -3.5850000000000000E-002     0.0000000000000000     
  -3.5799999999999998E-002     0.0000000000000000     
  -3.5750000000000004E-002     0.0000000000000000     
  -3.5700000000000003E-002     0.0000000000000000     
  -3.5650000000000001E-002     0.0000000000000000     
  -3.5600000000000000E-002     0.0000000000000000     
  -3.5549999999999998E-002     0.0000000000000000     
  -3.5500000000000004E-002     0.0000000000000000     
  -3.5450000000000002E-002     0.0000000000000000     
  -3.5400000000000001E-002     0.0000000000000000     
  -3.5349999999999999E-002     0.0000000000000000     
  -3.5299999999999998E-002     0.0000000000000000     
  -3.5250000000000004E-002     0.0000000000000000     
  -3.5200000000000002E-002     0.0000000000000000     
  -3.5150000000000001E-002     0.0000000000000000     
  -3.5099999999999999E-002     0.0000000000000000     
  -3.5049999999999998E-002     0.0000000000000000     
  -3.5000000000000003E-002     0.0000000000000000     
  -3.4950000000000002E-002     0.0000000000000000     
  -3.4900000000000000E-002     0.0000000000000000     
  -3.4849999999999999E-002     0.0000000000000000     
  -3.4799999999999998E-002     0.0000000000000000     
  -3.4750000000000003E-002     0.0000000000000000     
  -3.4700000000000002E-002     0.0000000000000000     
  -3.4650000000000000E-002     0.0000000000000000     
  -3.4599999999999999E-002     0.0000000000000000     
  -3.4549999999999997E-002     0.0000000000000000     
  -3.4500000000000003E-002     0.0000000000000000     
  -3.4450000000000001E-002     0.0000000000000000     
  -3.4400000000000000E-002     0.0000000000000000     
  -3.4349999999999999E-002     0.0000000000000000     
  -3.4299999999999997E-002     0.0000000000000000     
  -3.4250000000000003E-002     0.0000000000000000     
  -3.4200000000000001E-002     0.0000000000000000     
  -3.4150000000000000E-002     0.0000000000000000     
  -3.4099999999999998E-002     0.0000000000000000     
  -3.4049999999999997E-002     0.0000000000000000     
  -3.4000000000000002E-002     0.0000000000000000     
  -3.3950000000000001E-002     0.0000000000000000     
  -3.3900000000000000E-002     0.0000000000000000     
  -3.3849999999999998E-002     0.0000000000000000     
  -3.3799999999999997E-002     0.0000000000000000     
  -3.3750000000000002E-002     0.0000000000000000     
  -3.3700000000000001E-002     0.0000000000000000     
  -3.3649999999999999E-002     0.0000000000000000     
  -3.3599999999999998E-002     0.0000000000000000     
  -3.3550000000000003E-002     0.0000000000000000     
  -3.3500000000000002E-002     0.0000000000000000     
  -3.3450000000000001E-002     0.0000000000000000     
  -3.3399999999999999E-002     0.0000000000000000     
  -3.3349999999999998E-002     0.0000000000000000     
  -3.3300000000000003E-002     0.0000000000000000     
  -3.3250000000000002E-002     0.0000000000000000     
  -3.3200000000000000E-002     0.0000000000000000     
  -3.3149999999999999E-002     0.0000000000000000     
  -3.3099999999999997E-002     0.0000000000000000     
  -3.3050000000000003E-002     0.0000000000000000     
  -3.3000000000000002E-002     0.0000000000000000     
  -3.2950000000000000E-002     0.0000000000000000     
  -3.2899999999999999E-002     0.0000000000000000     
  -3.2850000000000004E-002     0.0000000000000000     
  -3.2800000000000003E-002     0.0000000000000000     
  -3.2750000000000001E-002     0.0000000000000000     
  -3.2700000000000000E-002     0.0000000000000000     
  -3.2649999999999998E-002     0.0000000000000000     
  -3.2600000000000004E-002     0.0000000000000000     
  -3.2550000000000003E-002     0.0000000000000000     
  -3.2500000000000001E-002     0.0000000000000000     
  -3.2450000000000000E-002     0.0000000000000000     
  -3.2399999999999998E-002     0.0000000000000000     
  -3.2350000000000004E-002     0.0000000000000000     
  -3.2300000000000002E-002     0.0000000000000000     
  -3.2250000000000001E-002     0.0000000000000000     
  -3.2199999999999999E-002     0.0000000000000000     
  -3.2149999999999998E-002     0.0000000000000000     
  -3.2100000000000004E-002     0.0000000000000000     
  -3.2050000000000002E-002     0.0000000000000000     
  -3.2000000000000001E-002     0.0000000000000000     
  -3.1949999999999999E-002     0.0000000000000000     
  -3.1899999999999998E-002     0.0000000000000000     
  -3.1850000000000003E-002     0.0000000000000000     
  -3.1800000000000002E-002     0.0000000000000000     
  -3.1750000000000000E-002     0.0000000000000000     
  -3.1699999999999999E-002     0.0000000000000000     
  -3.1649999999999998E-002     0.0000000000000000     
  -3.1600000000000003E-002     0.0000000000000000     
  -3.1550000000000002E-002     0.0000000000000000     
  -3.1500000000000000E-002     0.0000000000000000     
  -3.1449999999999999E-002     0.0000000000000000     
  -3.1399999999999997E-002     0.0000000000000000     
  -3.1350000000000003E-002     0.0000000000000000     
  -3.1300000000000001E-002     0.0000000000000000     
  -3.1250000000000000E-002     0.0000000000000000     
  -3.1199999999999999E-002     0.0000000000000000     
  -3.1150000000000001E-002     0.0000000000000000     
  -3.1100000000000003E-002     0.0000000000000000     
  -3.1050000000000001E-002     1.4264913918449753E-039
  -3.1000000000000000E-002     1.6098208990207397E-039
  -3.0949999999999998E-002    -2.3187590856911808E-039
  -3.0900000000000000E-002    -1.1549758952073161E-038
  -3.0850000000000002E-002    -1.7890603911951826E-038
  -3.0800000000000001E-002    -9.4099649299990891E-039
  -3.0750000000000000E-002     2.2466327467322755E-038
  -3.0699999999999998E-002     6.7664761940909581E-038
  -3.0650000000000000E-002     9.4758181285641700E-038
  -3.0600000000000002E-002     6.3731360733502844E-038
  -3.0550000000000001E-002    -4.0697425376565145E-038
  -3.0499999999999999E-002    -2.2214022158206039E-037
  -3.0449999999999998E-002    -3.8068728896490618E-037
  -3.0400000000000000E-002    -3.8868146536669842E-037
  -3.0350000000000002E-002    -1.3826216015546158E-037
  -3.0300000000000001E-002     3.7377556291622000E-037
  -3.0249999999999999E-002     9.8449754633031493E-037
  -3.0200000000000001E-002     1.3572399662060558E-036
  -3.0150000000000000E-002     1.1197393972811786E-036
  -3.0100000000000002E-002     7.7479409720230553E-038
  -3.0050000000000000E-002    -1.5444056657928376E-036
  -2.9999999999999999E-002    -3.0319720659165123E-036
  -2.9950000000000001E-002    -3.4146759209881097E-036
  -2.9899999999999999E-002    -1.9854695425353566E-036
  -2.9850000000000002E-002     1.0938747932519277E-036
  -2.9800000000000000E-002     4.4945677274554753E-036
  -2.9749999999999999E-002     6.1179752887636073E-036
  -2.9700000000000001E-002     4.2736095264500999E-036
  -2.9650000000000003E-002    -8.2837257144760533E-037
  -2.9600000000000001E-002    -6.2534382710004302E-036
  -2.9550000000000000E-002    -7.2070587331534392E-036
  -2.9499999999999998E-002    -3.2838553985405920E-038
  -2.9450000000000000E-002     1.3835163928307148E-035
  -2.9400000000000003E-002     2.5424636085084536E-035
  -2.9350000000000001E-002     2.0344553156183056E-035
  -2.9300000000000000E-002    -1.3047965645900276E-035
  -2.9249999999999998E-002    -7.1642818455956163E-035
  -2.9200000000000000E-002    -1.2838816926430167E-034
  -2.9150000000000002E-002    -1.3494682663439078E-034
  -2.9100000000000001E-002    -4.2467761253547680E-035
  -2.9049999999999999E-002     1.6238198300804389E-034
  -2.8999999999999998E-002     4.2184541622762556E-034
  -2.8950000000000000E-002     5.9747214593089588E-034
  -2.8900000000000002E-002     5.0995370804259426E-034
  -2.8850000000000001E-002     3.2395320373779570E-035
  -2.8799999999999999E-002    -7.9270327820851573E-034
  -2.8749999999999998E-002    -1.6757543845255453E-033
  -2.8700000000000000E-002    -2.1149191137255956E-033
  -2.8650000000000002E-002    -1.5845442197603366E-033
  -2.8600000000000000E-002     1.5787634189205377E-034
  -2.8549999999999999E-002     2.7747602444850219E-033
  -2.8500000000000001E-002     5.2492998943252715E-033
  -2.8450000000000000E-002     6.1418858811882453E-033
  -2.8400000000000002E-002     4.2164647659646169E-033
  -2.8350000000000000E-002    -7.6810472497315164E-034
  -2.8299999999999999E-002    -7.4981785964877101E-033
  -2.8250000000000001E-002    -1.3203997120075003E-032
  -2.8200000000000003E-002    -1.4623756921016356E-032
  -2.8150000000000001E-002    -9.6006515494970878E-033
  -2.8100000000000000E-002     1.3920078004647959E-033
  -2.8049999999999999E-002     1.4721234861525326E-032
  -2.8000000000000001E-002     2.4706195734877639E-032
  -2.7950000000000003E-002     2.6222668315087914E-032
  -2.7900000000000001E-002     1.7652244788527867E-032
  -2.7850000000000000E-002     2.4044902332169931E-033
  -2.7799999999999998E-002    -1.2434675565762390E-032
  -2.7750000000000000E-002    -2.0325618681010269E-032
  -2.7700000000000002E-002    -2.0312716164254822E-032
  -2.7650000000000001E-002    -1.9339531688540233E-032
  -2.7600000000000000E-002    -2.8715065650939029E-032
  -2.7549999999999998E-002    -5.4528843967609420E-032
  -2.7500000000000000E-002    -8.6402983726382769E-032
  -2.7450000000000002E-002    -9.2784627970170228E-032
  -2.7400000000000001E-002    -3.0887094479407871E-032
  -2.7349999999999999E-002     1.2664185850452101E-031
  -2.7299999999999998E-002     3.5719108199647656E-031
  -2.7250000000000000E-002     5.6563170977266482E-031
  -2.7200000000000002E-002     5.9714564663467021E-031
  -2.7150000000000001E-002     2.9872081012322183E-031
  -2.7099999999999999E-002    -3.8174686864416525E-031
  -2.7049999999999998E-002    -1.2999977551287627E-030
  -2.7000000000000000E-002    -2.0847321136162165E-030
  -2.6950000000000002E-002    -2.2249964433590394E-030
  -2.6900000000000000E-002    -1.2849040898985726E-030
  -2.6849999999999999E-002     8.1544154312817833E-031
  -2.6800000000000001E-002     3.5807960449590229E-030
  -2.6749999999999999E-002     5.9338359655745738E-030
  -2.6700000000000002E-002     6.5171905784695239E-030
  -2.6650000000000000E-002     4.2709171605158454E-030
  -2.6599999999999999E-002    -9.1135543318098400E-031
  -2.6550000000000001E-002    -7.7615503940177812E-030
  -2.6500000000000003E-002    -1.3754311647403055E-029
  -2.6450000000000001E-002    -1.5886569801174530E-029
  -2.6400000000000000E-002    -1.1939550105032586E-029
  -2.6349999999999998E-002    -1.7389335192398144E-030
  -2.6300000000000000E-002     1.2209587508412319E-029
  -2.6250000000000002E-002     2.5180051659818838E-029
  -2.6200000000000001E-002     3.1810781526634412E-029
  -2.6150000000000000E-002     2.8277252097142025E-029
  -2.6099999999999998E-002     1.4107427557783327E-029
  -2.6050000000000000E-002    -7.2911298577209168E-030
  -2.6000000000000002E-002    -2.9790113517179413E-029
  -2.5950000000000001E-002    -4.6921475861201326E-029
  -2.5899999999999999E-002    -5.4265568176835928E-029
  -2.5849999999999998E-002    -5.0484192652721995E-029
  -2.5800000000000000E-002    -3.6348239027009398E-029
  -2.5750000000000002E-002    -1.2455977462711090E-029
  -2.5700000000000001E-002     2.2403410475966115E-029
  -2.5649999999999999E-002     7.0043202049803424E-029
  -2.5599999999999998E-002     1.2800100200950763E-028
  -2.5550000000000000E-002     1.8288348537254140E-028
  -2.5500000000000002E-002     2.0660797915821060E-028
  -2.5450000000000000E-002     1.6112506127309739E-028
  -2.5399999999999999E-002     1.4670358731323305E-029
  -2.5349999999999998E-002    -2.3345697525105969E-028
  -2.5300000000000000E-002    -5.3001784592841086E-028
  -2.5250000000000002E-002    -7.6210627005704820E-028
  -2.5200000000000000E-002    -7.8183425418591703E-028
  -2.5149999999999999E-002    -4.6391488083088406E-028
  -2.5100000000000001E-002     2.1866069073520929E-028
  -2.5049999999999999E-002     1.1324871141956760E-027
  -2.5000000000000001E-002     1.9736349456427003E-027
  -2.4950000000000000E-002     2.3371792042939159E-027
  -2.4899999999999999E-002     1.8643577366546357E-027
  -2.4850000000000001E-002     4.2561509492597570E-028
  -2.4800000000000003E-002    -1.7350789662497648E-027
  -2.4750000000000001E-002    -3.9761463237302284E-027
  -2.4700000000000000E-002    -5.4051680724370766E-027
  -2.4649999999999998E-002    -5.1822230920063402E-027
  -2.4600000000000000E-002    -2.8887367355647736E-027
  -2.4550000000000002E-002     1.1837135897436508E-027
  -2.4500000000000001E-002     5.9702863571081221E-027
  -2.4450000000000000E-002     9.8736880194320240E-027
  -2.4399999999999998E-002     1.1269301787058032E-026
  -2.4350000000000000E-002     9.1125355757577545E-027
  -2.4299999999999999E-002     3.4164565498158940E-027
  -2.4250000000000001E-002    -4.6072324436095031E-027
  -2.4199999999999999E-002    -1.2828786614028052E-026
  -2.4150000000000001E-002    -1.8815081753277977E-026
  -2.4100000000000000E-002    -2.0547495411796357E-026
  -2.4049999999999998E-002    -1.6973683653598035E-026
  -2.4000000000000000E-002    -8.2192500512513080E-027
  -2.3949999999999999E-002     4.5283100689603733E-027
  -2.3900000000000001E-002     1.9277625445526162E-026
  -2.3850000000000000E-002     3.3402712106216669E-026
  -2.3800000000000002E-002     4.3633873582128206E-026
  -2.3750000000000000E-002     4.6053598401595180E-026
  -2.3699999999999999E-002     3.6520335303978817E-026
  -2.3650000000000001E-002     1.1941315108267305E-026
  -2.3599999999999999E-002    -2.7556617641773846E-026
  -2.3550000000000001E-002    -7.6188394280456344E-026
  -2.3500000000000000E-002    -1.2112496264794779E-025
  -2.3449999999999999E-002    -1.4374006364650280E-025
  -2.3400000000000001E-002    -1.2451390686528096E-025
  -2.3349999999999999E-002    -5.1173104369349784E-026
  -2.3300000000000001E-002     7.2289790333426693E-026
  -2.3250000000000000E-002     2.1966446445325805E-025
  -2.3199999999999998E-002     3.4384849983797556E-025
  -2.3150000000000000E-002     3.8793251324106860E-025
  -2.3099999999999999E-002     3.0492382327422709E-025
  -2.3050000000000001E-002     8.0606715538463982E-026
  -2.3000000000000000E-002    -2.4928553460092129E-025
  -2.2950000000000002E-002    -5.9677669407474494E-025
  -2.2900000000000000E-002    -8.3977655356051560E-025
  -2.2849999999999999E-002    -8.5905262719525376E-025
  -2.2800000000000001E-002    -5.8414321512398631E-025
  -2.2749999999999999E-002    -3.2177872156882234E-026
  -2.2700000000000001E-002     6.7719714776074702E-025
  -2.2650000000000000E-002     1.3415442563638672E-024
  -2.2599999999999999E-002     1.7291987018805006E-024
  -2.2550000000000001E-002     1.6527131193144341E-024
  -2.2499999999999999E-002     1.0387642057753636E-024
  -2.2450000000000001E-002    -3.0292209127374351E-026
  -2.2400000000000000E-002    -1.3199864719282300E-024
  -2.2349999999999998E-002    -2.4943325739963769E-024
  -2.2300000000000000E-002    -3.1995015316699073E-024
  -2.2249999999999999E-002    -3.1562834864884451E-024
  -2.2200000000000001E-002    -2.2363729166649005E-024
  -2.2150000000000000E-002    -5.0597620569820550E-025
  -2.2100000000000002E-002     1.7673406291289644E-024
  -2.2050000000000000E-002     4.1395461173564685E-024
  -2.1999999999999999E-002     6.0411065805626160E-024
  -2.1950000000000001E-002     6.8555236457200036E-024
  -2.1899999999999999E-002     6.0346575962668242E-024
  -2.1850000000000001E-002     3.2575588971174713E-024
  -2.1800000000000000E-002    -1.3807789110323589E-024
  -2.1749999999999999E-002    -7.2003354488290884E-024
  -2.1700000000000001E-002    -1.2872583731512430E-023
  -2.1649999999999999E-002    -1.6560795268484053E-023
  -2.1600000000000001E-002    -1.6327308958077955E-023
  -2.1550000000000000E-002    -1.0781361683487470E-023
  -2.1499999999999998E-002     1.8375362772045089E-025
  -2.1450000000000000E-002     1.4828694964792259E-023
  -2.1399999999999999E-002     2.9487105926559162E-023
  -2.1350000000000001E-002     3.9191726537646231E-023
  -2.1299999999999999E-002     3.9023744733059710E-023
  -2.1250000000000002E-002     2.5909212999563184E-023
  -2.1200000000000000E-002     3.1312784992645937E-025
  -2.1149999999999999E-002    -3.2849689281296891E-023
  -2.1100000000000001E-002    -6.4660278539922808E-023
  -2.1049999999999999E-002    -8.4205404171541009E-023
  -2.1000000000000001E-002    -8.1818613287598488E-023
  -2.0950000000000000E-002    -5.2680654425902866E-023
  -2.0899999999999998E-002     4.1797797733642185E-025
  -2.0850000000000000E-002     6.6292441092875501E-023
  -2.0799999999999999E-002     1.2721165297714750E-022
  -2.0750000000000001E-002     1.6323366924322776E-022
  -2.0700000000000000E-002     1.5801863853583159E-022
  -2.0649999999999998E-002     1.0448484701900524E-022
  -2.0600000000000000E-002     8.5323050062016324E-024
  -2.0549999999999999E-002    -1.1051825880213346E-022
  -2.0500000000000001E-002    -2.2325153025605011E-022
  -2.0449999999999999E-002    -2.9668843397357316E-022
  -2.0400000000000001E-002    -3.0257868074542185E-022
  -2.0350000000000000E-002    -2.2553457599663806E-022
  -2.0299999999999999E-002    -6.9095502182608706E-023
  -2.0250000000000001E-002     1.4179054289490653E-022
  -2.0199999999999999E-002     3.6278429240862991E-022
  -2.0150000000000001E-002     5.3694415864675195E-022
  -2.0100000000000000E-002     6.0589624957791565E-022
  -2.0049999999999998E-002     5.2420537957200253E-022
  -2.0000000000000000E-002     2.7473544444329924E-022
  -1.9949999999999999E-002    -1.1842080534861450E-022
  -1.9900000000000001E-002    -5.8387077714483628E-022
  -1.9850000000000000E-002    -1.0082549294893001E-021
  -1.9799999999999998E-002    -1.2560102950720336E-021
  -1.9750000000000000E-002    -1.2030564901140258E-021
  -1.9699999999999999E-002    -7.7875044602896316E-022
  -1.9650000000000001E-002    -5.1054650453541188E-024
  -1.9599999999999999E-002     9.8111591222971989E-022
  -1.9550000000000001E-002     1.9370022340090905E-021
  -1.9500000000000000E-002     2.5600252799235119E-021
  -1.9449999999999999E-002     2.5684577980718776E-021
  -1.9400000000000001E-002     1.7981845862890063E-021
  -1.9349999999999999E-002     2.8738514455090967E-022
  -1.9300000000000001E-002    -1.6831421670257938E-021
  -1.9250000000000000E-002    -3.6192040294958348E-021
  -1.9199999999999998E-002    -4.9193018171785059E-021
  -1.9150000000000000E-002    -5.0402148640735838E-021
  -1.9099999999999999E-002    -3.6806585401416081E-021
  -1.9050000000000001E-002    -9.2693277785203715E-022
  -1.9000000000000000E-002     2.6938833038130078E-021
  -1.8949999999999998E-002     6.2873918612398638E-021
  -1.8900000000000000E-002     8.7914023955437989E-021
  -1.8849999999999999E-002     9.2611146273633186E-021
  -1.8800000000000001E-002     7.1671948104134859E-021
  -1.8749999999999999E-002     2.6203171532066532E-021
  -1.8700000000000001E-002    -3.5532288805224466E-021
  -1.8650000000000000E-002    -9.9260322730945459E-021
  -1.8599999999999998E-002    -1.4766554162513697E-020
  -1.8550000000000001E-002    -1.6460994272117069E-020
  -1.8499999999999999E-002    -1.3964547660422597E-020
  -1.8450000000000001E-002    -7.1705776678651218E-021
  -1.8400000000000000E-002     2.9043378909593633E-021
  -1.8349999999999998E-002     1.4189046762490151E-020
  -1.8300000000000000E-002     2.3900866818500510E-020
  -1.8249999999999999E-002     2.9126473521323529E-020
  -1.8200000000000001E-002     2.7546504875282618E-020
  -1.8149999999999999E-002     1.8159954411914807E-020
  -1.8100000000000002E-002     1.8318623911753274E-021
  -1.8050000000000000E-002    -1.8515393299175838E-020
  -1.7999999999999999E-002    -3.8208465805941321E-020
  -1.7950000000000001E-002    -5.1679450075756127E-020
  -1.7899999999999999E-002    -5.3789171596741371E-020
  -1.7850000000000001E-002    -4.1374022955668135E-020
  -1.7800000000000000E-002    -1.4630549457301379E-020
  -1.7749999999999998E-002     2.2117545325351812E-020
  -1.7700000000000000E-002     6.0670884125130570E-020
  -1.7649999999999999E-002     9.0422425051874911E-020
  -1.7600000000000001E-002     1.0091015393100401E-019
  -1.7550000000000000E-002     8.4941549289636150E-020
  -1.7499999999999998E-002     4.1461916711456619E-020
  -1.7450000000000000E-002    -2.2783830914710497E-020
  -1.7399999999999999E-002    -9.3584799296348757E-020
  -1.7350000000000001E-002    -1.5192373232607399E-019
  -1.7299999999999999E-002    -1.7862692412246692E-019
  -1.7250000000000001E-002    -1.5997439827774602E-019
  -1.7200000000000000E-002    -9.2743078336363090E-020
  -1.7149999999999999E-002     1.2944434381761991E-020
  -1.7100000000000001E-002     1.3419759875808711E-019
  -1.7049999999999999E-002     2.3975207649804486E-019
  -1.7000000000000001E-002     2.9748461115618613E-019
  -1.6950000000000000E-002     2.8333133670942097E-019
  -1.6899999999999998E-002     1.8925490009531351E-019
  -1.6850000000000000E-002     2.7885392897405698E-020
  -1.6799999999999999E-002    -1.6788037739888040E-019
  -1.6750000000000001E-002    -3.5083293907099424E-019
  -1.6700000000000000E-002    -4.7002080554451147E-019
  -1.6649999999999998E-002    -4.8368888365901167E-019
  -1.6600000000000000E-002    -3.7150951790112507E-019
  -1.6549999999999999E-002    -1.4291701403583790E-019
  -1.6500000000000001E-002     1.6099359524698158E-019
  -1.6449999999999999E-002     4.7325567840978513E-019
  -1.6400000000000001E-002     7.1409071516335181E-019
  -1.6350000000000000E-002     8.0909216123994179E-019
  -1.6299999999999999E-002     7.0892569992996940E-019
  -1.6250000000000001E-002     4.0605336175907095E-019
  -1.6199999999999999E-002    -5.6076486116108877E-020
  -1.6150000000000001E-002    -5.8500594056545807E-019
  -1.6100000000000000E-002    -1.0540859462122390E-018
  -1.6049999999999998E-002    -1.3289933486194648E-018
  -1.6000000000000000E-002    -1.3015589235944911E-018
  -1.5949999999999999E-002    -9.2356446246221622E-019
  -1.5900000000000001E-002    -2.3141863798227981E-019
  -1.5850000000000000E-002     6.4704197704273404E-019
  -1.5799999999999998E-002     1.5094461257262149E-018
  -1.5750000000000000E-002     2.1198840165444461E-018
  -1.5699999999999999E-002     2.2675289938740923E-018
  -1.5650000000000001E-002     1.8298136207500987E-018
  -1.5599999999999999E-002     8.2291620000473742E-019
  -1.5550000000000001E-002    -5.7751243089400541E-019
  -1.5500000000000000E-002    -2.0570444796166521E-018
  -1.5449999999999998E-002    -3.2262102654306638E-018
  -1.5400000000000000E-002    -3.7164326833276044E-018
  -1.5349999999999999E-002    -3.2859419117771489E-018
  -1.5300000000000001E-002    -1.9068585000463915E-018
  -1.5250000000000000E-002     1.9436025843458482E-019
  -1.5199999999999998E-002     2.5614618630983266E-018
  -1.5150000000000000E-002     4.6001134434856991E-018
  -1.5099999999999999E-002     5.7200899902490194E-018
  -1.5050000000000001E-002     5.4949337683457400E-018
  -1.4999999999999999E-002     3.7974209170412410E-018
  -1.4949999999999998E-002     8.7135974669789204E-019
  -1.4900000000000000E-002    -2.6864680128475664E-018
  -1.4849999999999999E-002    -6.0388669374658669E-018
  -1.4800000000000001E-002    -8.2955518056532286E-018
  -1.4749999999999999E-002    -8.7345589127604577E-018
  -1.4700000000000001E-002    -7.0051484479591250E-018
  -1.4650000000000000E-002    -3.2599851015160131E-018
  -1.4599999999999998E-002     1.8226308075255721E-018
  -1.4550000000000000E-002     7.1428059721159722E-018
  -1.4499999999999999E-002     1.1397659886318956E-017
  -1.4450000000000001E-002     1.3375372339774489E-017
  -1.4400000000000000E-002     1.2264370820894356E-017
  -1.4349999999999998E-002     7.9070050323651189E-018
  -1.4300000000000000E-002     9.3056609860261028E-019
  -1.4249999999999999E-002    -7.2931035678870468E-018
  -1.4200000000000001E-002    -1.4876144666267918E-017
  -1.4149999999999999E-002    -1.9806560513811040E-017
  -1.4099999999999998E-002    -2.0434768642185343E-017
  -1.4050000000000000E-002    -1.5949802675142187E-017
  -1.3999999999999999E-002    -6.7221962764398814E-018
  -1.3950000000000001E-002     5.5993299766135821E-018
  -1.3899999999999999E-002     1.8307870079397553E-017
  -1.3850000000000001E-002     2.8174489678865772E-017
  -1.3800000000000000E-002     3.2213710533400338E-017
  -1.3749999999999998E-002     2.8511588042354449E-017
  -1.3700000000000000E-002     1.6901180969816659E-017
  -1.3649999999999999E-002    -7.2587213200177923E-019
  -1.3600000000000001E-002    -2.0616866592166051E-017
  -1.3550000000000000E-002    -3.7890202124281795E-017
  -1.3499999999999998E-002    -4.7680469529576044E-017
  -1.3450000000000000E-002    -4.6439661258990927E-017
  -1.3399999999999999E-002    -3.3057126785812435E-017
  -1.3350000000000001E-002    -9.4663778301510787E-018
  -1.3299999999999999E-002     1.9491199981829874E-017
  -1.3249999999999998E-002     4.6996316186989091E-017
  -1.3200000000000000E-002     6.5812349857495383E-017
  -1.3149999999999998E-002     7.0124114633967053E-017
  -1.3100000000000001E-002     5.7193557794546659E-017
  -1.3049999999999999E-002     2.8379798565564484E-017
  -1.3000000000000001E-002    -1.0797450456953572E-017
  -1.2950000000000000E-002    -5.1646488230225665E-017
  -1.2899999999999998E-002    -8.4176257991909800E-017
  -1.2850000000000000E-002    -9.9451627437821364E-017
  -1.2799999999999999E-002    -9.1887062203746380E-017