  -4.0000000000000001E-002     0.0000000000000000     
  -3.9949999999999999E-002     0.0000000000000000     
  -3.9899999999999998E-002     0.0000000000000000     
  -3.9850000000000003E-002     0.0000000000000000     
  -3.9800000000000002E-002     0.0000000000000000     
  -3.9750000000000001E-002     0.0000000000000000     
  -3.9699999999999999E-002     0.0000000000000000     
  -3.9649999999999998E-002     0.0000000000000000     
  -3.9600000000000003E-002     0.0000000000000000     
  -3.9550000000000002E-002     0.0000000000000000     
  -3.9500000000000000E-002     0.0000000000000000     
  -3.9449999999999999E-002     0.0000000000000000     
  -3.9399999999999998E-002     0.0000000000000000     
  -3.9350000000000003E-002     0.0000000000000000     
  -3.9300000000000002E-002     0.0000000000000000     
  -3.9250000000000000E-002     0.0000000000000000     
  -3.9199999999999999E-002     0.0000000000000000     
  -3.9150000000000004E-002     0.0000000000000000     
  -3.9100000000000003E-002     0.0000000000000000     
  -3.9050000000000001E-002     0.0000000000000000     
  -3.9000000000000000E-002     0.0000000000000000     
  -3.8949999999999999E-002     0.0000000000000000     
  -3.8900000000000004E-002     0.0000000000000000     
  -3.8850000000000003E-002     0.0000000000000000     
  -3.8800000000000001E-002     0.0000000000000000     
  -3.8750000000000000E-002     0.0000000000000000     
  -3.8699999999999998E-002     0.0000000000000000     
  -3.8650000000000004E-002     0.0000000000000000     
  -3.8600000000000002E-002     0.0000000000000000     
  -3.8550000000000001E-002     0.0000000000000000     
  -3.8500000000000000E-002     0.0000000000000000     
  -3.8449999999999998E-002     0.0000000000000000     
  -3.8400000000000004E-002     0.0000000000000000     
  -3.8350000000000002E-002     0.0000000000000000     
  -3.8300000000000001E-002     0.0000000000000000     
  -3.8249999999999999E-002     0.0000000000000000     
  -3.8199999999999998E-002     0.0000000000000000     
  -3.8150000000000003E-002     0.0000000000000000     
  -3.8100000000000002E-002     0.0000000000000000     
  -3.8050000000000000E-002     0.0000000000000000     
  -3.7999999999999999E-002     0.0000000000000000     
  -3.7949999999999998E-002     0.0000000000000000     
  -3.7900000000000003E-002     0.0000000000000000     
  -3.7850000000000002E-002     0.0000000000000000     
  -3.7800000000000000E-002     0.0000000000000000     
  -3.7749999999999999E-002     0.0000000000000000     
  -3.7699999999999997E-002     0.0000000000000000     
  -3.7650000000000003E-002     0.0000000000000000     
  -3.7600000000000001E-002    -4.3688911077956063E-040
  -3.7550000000000000E-002    -3.8976274780213819E-039
  -3.7499999999999999E-002    -1.2394619491184866E-038
  -3.7449999999999997E-002    -2.3152211855858701E-038
  -3.7400000000000003E-002    -1.6451589894734837E-038
  -3.7350000000000001E-002     8.0020316786613418E-038
  -3.7300000000000000E-002     2.7480140405666971E-037
  -3.7249999999999998E-002     5.3194285225569842E-037
  -3.7200000000000004E-002     5.8123872254035256E-037
  -3.7150000000000002E-002    -1.4191782779744242E-037
  -3.7100000000000001E-002    -2.2852459841757695E-036
  -3.7050000000000000E-002    -5.9058205702145943E-036
  -3.6999999999999998E-002    -9.3213825123336597E-036
  -3.6950000000000004E-002    -8.0897012686750985E-036
  -3.6900000000000002E-002     4.4374893819457025E-036
  -3.6850000000000001E-002     3.3252232285271631E-035
  -3.6799999999999999E-002     7.3955281828545589E-035
  -3.6749999999999998E-002     1.0396209001845674E-034
  -3.6700000000000003E-002     8.0036365393904522E-035
  -3.6650000000000002E-002    -4.8039888361384853E-035
  -3.6600000000000001E-002    -3.0208135672444368E-034
  -3.6549999999999999E-002    -6.2598471539000461E-034
  -3.6499999999999998E-002    -8.4780571610927427E-034
  -3.6450000000000003E-002    -6.9141107125100816E-034
  -3.6400000000000002E-002     1.3015951166584827E-034
  -3.6350000000000000E-002     1.7356856232966468E-033
  -3.6299999999999999E-002     3.8494477381573200E-033
  -3.6249999999999998E-002     5.6096884255365044E-033
  -3.6200000000000003E-002     5.5375979675776502E-033
  -3.6150000000000002E-002     1.8434376299275162E-033
  -3.6100000000000000E-002    -6.7227772919258478E-033
  -3.6049999999999999E-002    -1.9382122291106628E-032
  -3.6000000000000004E-002    -3.1569850974726792E-032
  -3.5950000000000003E-002    -3.4175431471116992E-032
  -3.5900000000000001E-002    -1.5930068036913487E-032
  -3.5850000000000000E-002     2.9221106924495693E-032
  -3.5799999999999998E-002     9.0889996360732639E-032
  -3.5750000000000004E-002     1.3405248573689939E-031
  -3.5700000000000003E-002     1.0620818914154358E-031
  -3.5650000000000001E-002    -2.9518235367476905E-032
  -3.5600000000000000E-002    -2.4043829136151632E-031
  -3.5549999999999998E-002    -3.8310121702974974E-031
  -3.5500000000000004E-002    -2.3270323258895966E-031
  -3.5450000000000002E-002     3.6999796276107328E-031
  -3.5400000000000001E-002     1.2796096229599837E-030
  -3.5349999999999999E-002     1.8614554060823264E-030
  -3.5299999999999998E-002     1.1024372048206504E-030
  -3.5250000000000004E-002    -1.7953886636537757E-030
  -3.5200000000000002E-002    -6.4398714028315732E-030
  -3.5150000000000001E-002    -1.0449202166017105E-029
  -3.5099999999999999E-002    -9.7163795312862470E-030
  -3.5049999999999998E-002    -4.1537017563438689E-031
  -3.5000000000000003E-002     1.7579290521688468E-029
  -3.4950000000000002E-002     3.7697864296146631E-029
  -3.4900000000000000E-002     4.6971873131034984E-029
  -3.4849999999999999E-002     3.1736095909142412E-029
  -3.4799999999999998E-002    -1.2320355768871358E-029
  -3.4750000000000003E-002    -7.1306912277783064E-029
  -3.4700000000000002E-002    -1.1377408553464460E-028
  -3.4650000000000000E-002    -1.0639132629058911E-028
  -3.4599999999999999E-002    -4.0583339351416033E-029
  -3.4549999999999997E-002     4.6662520273636229E-029
  -3.4500000000000003E-002     8.1138211601291808E-029
  -3.4450000000000001E-002     2.2542003011151964E-030
  -3.4400000000000000E-002    -1.5976844494876916E-028
  -3.4349999999999999E-002    -2.3347395165036692E-028
  -3.4299999999999997E-002     4.7008133047251563E-029
  -3.4250000000000003E-002     8.5912279366298518E-028
  -3.4200000000000001E-002     2.0236396565989575E-027
  -3.4150000000000000E-002     2.8153963491661435E-027
  -3.4099999999999998E-002     2.0796690825836106E-027
  -3.4049999999999997E-002    -1.1944813093107539E-027
  -3.4000000000000002E-002    -6.9405014609592223E-027
  -3.3950000000000001E-002    -1.3163113723443805E-026
  -3.3900000000000000E-002    -1.5861726280826407E-026
  -3.3849999999999998E-002    -1.0329067770317186E-026
  -3.3799999999999997E-002     6.1514228534003525E-027
  -3.3750000000000002E-002     3.1134098346720223E-026
  -3.3700000000000001E-002     5.5172280285783280E-026
  -3.3649999999999999E-002     6.3302709794893746E-026
  -3.3599999999999998E-002     4.0827715148254211E-026
  -3.3550000000000003E-002    -1.7814240897356538E-026
  -3.3500000000000002E-002    -1.0084057922886763E-025
  -3.3450000000000001E-002    -1.7679539381539814E-025
  -3.3399999999999999E-002    -2.0227919708880222E-025
  -3.3349999999999998E-002    -1.3988330736328378E-025
  -3.3300000000000003E-002     1.9399439201892474E-026
  -3.3250000000000002E-002     2.3993246343622653E-025
  -3.3200000000000000E-002     4.4260476534018735E-025
  -3.3149999999999999E-002     5.2889666518026670E-025
  -3.3099999999999997E-002     4.2231811027636496E-025
  -3.3050000000000003E-002     1.1021963364641815E-025
  -3.3000000000000002E-002    -3.3612397700560614E-025
  -3.2950000000000000E-002    -7.7867618293040629E-025
  -3.2899999999999999E-002    -1.0645875633247253E-024
  -3.2850000000000004E-002    -1.0889299567013914E-024
  -3.2800000000000003E-002    -8.3222894823758543E-025
  -3.2750000000000001E-002    -3.4600537081691638E-025
  -3.2700000000000000E-002     3.0858003648688491E-025
  -3.2649999999999998E-002     1.1233860138091511E-024
  -3.2600000000000004E-002     2.1392848060101352E-024
  -3.2550000000000003E-002     3.3296396083161089E-024
  -3.2500000000000001E-002     4.3990811314319561E-024
  -3.2450000000000000E-002     4.6236423646384424E-024
  -3.2399999999999998E-002     2.9215441385221167E-024
  -3.2350000000000004E-002    -1.6955479609052579E-024
  -3.2300000000000002E-002    -9.3171532716810256E-024
  -3.2250000000000001E-002    -1.8273335483317682E-023
  -3.2199999999999999E-002    -2.4759732509100757E-023
  -3.2149999999999998E-002    -2.3525787154976999E-023
  -3.2100000000000004E-002    -9.8971033102801715E-024
  -3.2050000000000002E-002     1.7242825893378402E-023
  -3.2000000000000001E-002     5.2660377570569287E-023
  -3.1949999999999999E-002     8.3831511825919349E-023
  -3.1899999999999998E-002     9.3349549121311733E-023
  -3.1850000000000003E-002     6.5105998317482223E-023
  -3.1800000000000002E-002    -7.1244240894570359E-024
  -3.1750000000000000E-002    -1.1192805494159254E-022
  -3.1699999999999999E-002    -2.1753970524298026E-022
  -3.1649999999999998E-002    -2.7762571571742150E-022
  -3.1600000000000003E-002    -2.4623729943985225E-022
  -3.1550000000000002E-002    -9.8474489848653605E-023
  -3.1500000000000000E-002     1.5052030572120867E-022
  -3.1449999999999999E-002     4.3736366904326057E-022
  -3.1399999999999997E-002     6.6020333608190890E-022
  -3.1350000000000003E-002     7.0783958263607928E-022
  -3.1300000000000001E-002     5.0154801358306481E-022
  -3.1250000000000000E-002     3.5790141338796810E-023
  -3.1199999999999999E-002    -5.9889292815236368E-022
  -3.1150000000000001E-002    -1.2239521813697916E-021
  -3.1100000000000003E-002    -1.6153353066035490E-021
  -3.1050000000000001E-002    -1.5712357326832558E-021
  -3.1000000000000000E-002    -9.8518498210474996E-022
  -3.0949999999999998E-002     9.9552161510683822E-023
  -3.0900000000000000E-002     1.4737888655109643E-021
  -3.0850000000000002E-002     2.7924138216828040E-021
  -3.0800000000000001E-002     3.6449074591750787E-021
  -3.0750000000000000E-002     3.6506228098749577E-021
  -3.0699999999999998E-002     2.5599710847046086E-021
  -3.0650000000000000E-002     3.4549667130830718E-022
  -3.0600000000000002E-002    -2.7294562627390032E-021
  -3.0550000000000001E-002    -6.0780740187434250E-021
  -3.0499999999999999E-002    -8.8152038066708387E-021
  -3.0449999999999998E-002    -9.8715869600385197E-021
  -3.0400000000000000E-002    -8.2264630409520968E-021
  -3.0350000000000002E-002    -3.2604445910111901E-021
  -3.0300000000000001E-002     4.8274070214473534E-021
  -3.0249999999999999E-002     1.4670033892554712E-020
  -3.0200000000000001E-002     2.3642313214797753E-020
  -3.0150000000000000E-002     2.8222266506508256E-020
  -3.0100000000000002E-002     2.4898336597449641E-020
  -3.0050000000000000E-002     1.1519828068981283E-020
  -2.9999999999999999E-002    -1.1263658450145068E-020
  -2.9950000000000001E-002    -3.9036812629068561E-020
  -2.9899999999999999E-002    -6.3738423034342701E-020
  -2.9850000000000002E-002    -7.5274350507476358E-020
  -2.9800000000000000E-002    -6.4566948550028871E-020
  -2.9749999999999999E-002    -2.7364756713457471E-020
  -2.9700000000000001E-002     3.2424081985862104E-020
  -2.9650000000000003E-002     1.0135146913395724E-019
  -2.9600000000000001E-002     1.5819189459440391E-019
  -2.9550000000000000E-002     1.7917803754571935E-019
  -2.9499999999999998E-002     1.4578959050382606E-019
  -2.9450000000000000E-002     5.2930943610428041E-020
  -2.9400000000000003E-002    -8.5409271284331248E-020
  -2.9350000000000001E-002    -2.3574608185634688E-019
  -2.9300000000000000E-002    -3.5141278469170468E-019
  -2.9249999999999998E-002    -3.8499988866029497E-019
  -2.9200000000000000E-002    -3.0400659655150612E-019
  -2.9150000000000002E-002    -1.0506768374117221E-019
  -2.9100000000000001E-002     1.7829675098020637E-019
  -2.9049999999999999E-002     4.7820637587386207E-019
  -2.8999999999999998E-002     7.0629014588970994E-019
  -2.8950000000000000E-002     7.7651381443083256E-019
  -2.8900000000000002E-002     6.3146042004601454E-019
  -2.8850000000000001E-002     2.6481222841586326E-019
  -2.8799999999999999E-002    -2.6696726452427242E-019
  -2.8749999999999998E-002    -8.4849403966903580E-019
  -2.8700000000000000E-002    -1.3259597249443171E-018
  -2.8650000000000002E-002    -1.5412740456577778E-018
  -2.8600000000000000E-002    -1.3733454918581022E-018
  -2.8549999999999999E-002    -7.7771700689837936E-019
  -2.8500000000000001E-002     1.8496934187526827E-019
  -2.8450000000000000E-002     1.3404117819555915E-018
  -2.8400000000000002E-002     2.4184301488877215E-018
  -2.8350000000000000E-002     3.0996197078697964E-018
  -2.8299999999999999E-002     3.0877131206177884E-018
  -2.8250000000000001E-002     2.1971335708058039E-018
  -2.8200000000000003E-002     4.3723484068210199E-019
  -2.8150000000000001E-002    -1.9316949295933765E-018
  -2.8100000000000000E-002    -4.3971751687413295E-018
  -2.8049999999999999E-002    -6.2680100082111783E-018
  -2.8000000000000001E-002    -6.8261928215117926E-018
  -2.7950000000000003E-002    -5.5363731553286568E-018
  -2.7900000000000001E-002    -2.2650137162737177E-018
  -2.7850000000000000E-002     2.5589420008082194E-018
  -2.7799999999999998E-002     7.9133227655189249E-018
  -2.7750000000000000E-002     1.2332273669454509E-017
  -2.7700000000000002E-002     1.4240617735772872E-017
  -2.7650000000000001E-002     1.2416042610081827E-017
  -2.7600000000000000E-002     6.4626184910245956E-018
  -2.7549999999999998E-002    -2.8561995213822980E-018
  -2.7500000000000000E-002    -1.3569006638428292E-017
  -2.7450000000000002E-002    -2.2817024710340568E-017
  -2.7400000000000001E-002    -2.7526544592557959E-017
  -2.7349999999999999E-002    -2.5297190377382158E-017
  -2.7299999999999998E-002    -1.5271451081386476E-017
  -2.7250000000000000E-002     1.2897216314469109E-018
  -2.7200000000000002E-002     2.0959381196449792E-017
  -2.7150000000000001E-002     3.8735799081610544E-017
  -2.7099999999999999E-002     4.9204798259032166E-017
  -2.7049999999999998E-002     4.8021750164843944E-017
  -2.7000000000000000E-002     3.3329447684314606E-017
  -2.6950000000000002E-002     6.6946746949784509E-018
  -2.6900000000000000E-002    -2.6768248146384549E-017
  -2.6849999999999999E-002    -5.9228739756327469E-017
  -2.6800000000000001E-002    -8.1820916721175771E-017
  -2.6749999999999999E-002    -8.6830602986095462E-017
  -2.6700000000000002E-002    -6.9880534224449314E-017
  -2.6650000000000000E-002    -3.1560205906725921E-017
  -2.6599999999999999E-002     2.1966015663051561E-017
  -2.6550000000000001E-002     7.9639197133706091E-017
  -2.6500000000000003E-002     1.2747185398537515E-016
  -2.6450000000000001E-002     1.5151227794256029E-016
  -2.6400000000000000E-002     1.4127147970277580E-016
  -2.6349999999999998E-002     9.2906335813384554E-017
  -2.6300000000000000E-002     1.1393245078360000E-017
  -2.6250000000000002E-002    -8.8997668229269852E-017
  -2.6200000000000001E-002    -1.8638732159237485E-016
  -2.6150000000000000E-002    -2.5520458052377426E-016
  -2.6099999999999998E-002    -2.7189428490499628E-016
  -2.6050000000000000E-002    -2.2141216317000204E-016
  -2.6000000000000002E-002    -1.0302000822023518E-016
  -2.5950000000000001E-002     6.6333581977962797E-017
  -2.5899999999999999E-002     2.5257863808186469E-016
  -2.5849999999999998E-002     4.0987691331187585E-016
  -2.5800000000000000E-002     4.9045761716704994E-016
  -2.5750000000000002E-002     4.5724417715925227E-016
  -2.5700000000000001E-002     2.9632811011781102E-016
  -2.5649999999999999E-002     2.5665963372199493E-017
  -2.5599999999999998E-002    -3.0335643446180489E-016
  -2.5550000000000000E-002    -6.1348104649963905E-016
  -2.5500000000000002E-002    -8.1795675062238500E-016
  -2.5450000000000000E-002    -8.4275563883396015E-016
  -2.5399999999999999E-002    -6.4932398522075734E-016
  -2.5349999999999998E-002    -2.5142734743644297E-016
  -2.5300000000000000E-002     2.7974967250205372E-016
  -2.5250000000000002E-002     8.2562517663363159E-016
  -2.5200000000000000E-002     1.2448910681807814E-015
  -2.5149999999999999E-002     1.4080890300170407E-015
  -2.5100000000000001E-002     1.2338861232901628E-015
  -2.5049999999999999E-002     7.1732710840382426E-016
  -2.5000000000000001E-002    -5.8583887438523328E-017
  -2.4950000000000000E-002    -9.3299880730869708E-016
  -2.4899999999999999E-002    -1.6987323480714180E-015
  -2.4850000000000001E-002    -2.1491673443350726E-015
  -2.4800000000000003E-002    -2.1300745837839736E-015
  -2.4750000000000001E-002    -1.5838196299665774E-015
  -2.4700000000000000E-002    -5.7444660852879681E-016
  -2.4649999999999998E-002     7.1400051289150819E-016
  -2.4600000000000000E-002     2.0077245251668261E-015
  -2.4550000000000002E-002     2.9973994879186294E-015
  -2.4500000000000001E-002     3.4061984284331624E-015
  -2.4450000000000000E-002     3.0578305820866295E-015
  -2.4399999999999998E-002     1.9297648763578773E-015
  -2.4350000000000000E-002     1.7857561508198300E-016
  -2.4299999999999999E-002    -1.8713886869015627E-015
  -2.4250000000000001E-002    -3.7784938397309579E-015
  -2.4199999999999999E-002    -5.0683243153381842E-015
  -2.4150000000000001E-002    -5.3390981397683264E-015
  -2.4100000000000000E-002    -4.3679322051653109E-015
  -2.4049999999999998E-002    -2.1936396869118659E-015
  -2.4000000000000000E-002     8.4807183709936403E-016
  -2.3949999999999999E-002     4.1550122325746701E-015
  -2.3900000000000001E-002     6.9603076573103867E-015
  -2.3850000000000000E-002     8.4943680122420685E-015
  -2.3800000000000002E-002     8.1775283223769039E-015
  -2.3750000000000000E-002     5.7992095934154047E-015
  -2.3699999999999999E-002     1.6337051183062687E-015
  -2.3650000000000001E-002    -3.5501388063463623E-015
  -2.3599999999999999E-002    -8.6072000146086500E-015
  -2.3550000000000001E-002    -1.2252715396715467E-014
  -2.3500000000000000E-002    -1.3373085468298732E-014
  -2.3449999999999999E-002    -1.1338550026816255E-014
  -2.3400000000000001E-002    -6.2335689056644128E-015
  -2.3349999999999999E-002     1.0689397632515478E-015
  -2.3300000000000001E-002     9.0303558414017611E-015
  -2.3250000000000000E-002     1.5758061113680100E-014
  -2.3199999999999998E-002     1.9445454062933777E-014
  -2.3150000000000000E-002     1.8838222676977687E-014
  -2.3099999999999999E-002     1.3607628216377190E-014
  -2.3050000000000001E-002     4.5254793579043694E-015
  -2.3000000000000000E-002    -6.6209664217741425E-015
  -2.2950000000000002E-002    -1.7373024463062782E-014
  -2.2900000000000000E-002    -2.5136282313826505E-014
  -2.2849999999999999E-002    -2.7789074224624025E-014
  -2.2800000000000001E-002    -2.4221380966850014E-014
  -2.2749999999999999E-002    -1.4673022781434797E-014
  -2.2700000000000001E-002    -7.8269322420750039E-016
  -2.2650000000000000E-002     1.4677074620680030E-014
  -2.2599999999999999E-002     2.8335005342886766E-014
  -2.2550000000000001E-002     3.6923273049571337E-014
  -2.2499999999999999E-002     3.8006491252688355E-014
  -2.2450000000000001E-002     3.0587360280429267E-014
  -2.2400000000000000E-002     1.5456680643397336E-014
  -2.2349999999999998E-002    -4.8032329684891854E-015
  -2.2300000000000000E-002    -2.6193907995563235E-014
  -2.2249999999999999E-002    -4.4018364213846991E-014
  -2.2200000000000001E-002    -5.3834206493545533E-014
  -2.2150000000000000E-002    -5.2473382035034335E-014
  -2.2100000000000002E-002    -3.8918593771472310E-014
  -2.2050000000000000E-002    -1.4820355377217154E-014
  -2.1999999999999999E-002     1.5521624951713960E-014
  -2.1950000000000001E-002     4.5798153510740599E-014
  -2.1899999999999999E-002     6.8903888314367289E-014
  -2.1850000000000001E-002     7.8525433298956122E-014
  -2.1800000000000000E-002     7.0772411763546030E-014
  -2.1749999999999999E-002     4.5448093925623594E-014
  -2.1700000000000001E-002     6.5792629311596640E-015
  -2.1649999999999999E-002    -3.8042127814694557E-014
  -2.1600000000000001E-002    -7.8328256408189541E-014
  -2.1550000000000000E-002    -1.0413072979066716E-013
  -2.1499999999999998E-002    -1.0775688417723412E-013
  -2.1450000000000000E-002    -8.6143781347533991E-014
  -2.1399999999999999E-002    -4.2085146713962163E-014
  -2.1350000000000001E-002     1.5905526269725468E-014
  -2.1299999999999999E-002     7.5188444145468080E-014
  -2.1250000000000002E-002     1.2176147614948810E-013
  -2.1200000000000000E-002     1.4357682453566730E-013
  -2.1149999999999999E-002     1.3360533539575593E-013
  -2.1100000000000001E-002     9.1861950004148665E-014
  -2.1049999999999999E-002     2.5833754756008668E-014
  -2.1000000000000001E-002    -5.0865430786917497E-014
  -2.0950000000000000E-002    -1.2135326745344235E-013
  -2.0899999999999998E-002    -1.6921377924629586E-013
  -2.0850000000000000E-002    -1.8225554464680169E-013
  -2.0799999999999999E-002    -1.5543252909998590E-013
  -2.0750000000000001E-002    -9.2262265139651824E-014
  -2.0700000000000000E-002    -4.4165756901220128E-015
  -2.0649999999999998E-002     9.0444082374572540E-014
  -2.0600000000000000E-002     1.7216073726707325E-013
  -2.0549999999999999E-002     2.2220382784528748E-013
  -2.0500000000000001E-002     2.2763761360613891E-013
  -2.0449999999999999E-002     1.8414843367869960E-013
  -2.0400000000000001E-002     9.7515044529059177E-014
  -2.0350000000000000E-002    -1.6854177698190947E-014
  -2.0299999999999999E-002    -1.3638014451802039E-013
  -2.0250000000000001E-002    -2.3547668842638446E-013
  -2.0199999999999999E-002    -2.9077103798794990E-013
  -2.0150000000000001E-002    -2.8642769134429933E-013
  -2.0100000000000000E-002    -2.1844268424674183E-013
  -2.0049999999999998E-002    -9.6804623521876355E-014
  -2.0000000000000000E-002     5.5287663083527074E-014
  -1.9949999999999999E-002     2.0540169202120623E-013
  -1.9900000000000001E-002     3.1854600577282670E-013
  -1.9850000000000000E-002     3.6527990181940317E-013
  -1.9799999999999998E-002     3.2942136135053359E-013
  -1.9750000000000000E-002     2.1334229489692539E-013
  -1.9699999999999999E-002     3.9194707455647699E-014
  -1.9650000000000001E-002    -1.5472261844564345E-013
  -1.9599999999999999E-002    -3.2204281064740615E-013
  -1.9550000000000001E-002    -4.1920395271851629E-013
  -1.9500000000000000E-002    -4.1655279297737562E-013
  -1.9449999999999999E-002    -3.0682589315818889E-013
  -1.9400000000000001E-002    -1.0862788580413263E-013
  -1.9349999999999999E-002     1.3631492237752087E-013
  -1.9300000000000001E-002     3.7178597684596347E-013
  -1.9250000000000000E-002     5.3971461096991798E-013
  -1.9199999999999998E-002     5.9384276291310664E-013
  -1.9150000000000000E-002     5.1111452336605103E-013
  -1.9099999999999999E-002     2.9800235249220238E-013
  -1.9050000000000001E-002    -9.7853300517776207E-015
  -1.9000000000000000E-002    -3.5417273679428727E-013
  -1.8949999999999998E-002    -6.6657322271091892E-013
  -1.8900000000000000E-002    -8.8204968058228135E-013
  -1.8849999999999999E-002    -9.5268124000196755E-013
  -1.8800000000000001E-002    -8.5734293931835588E-013
  -1.8749999999999999E-002    -6.0599502191100548E-013
  -1.8700000000000001E-002    -2.3777778298726200E-013
  -1.8650000000000000E-002     1.8655497094085075E-013
  -1.8599999999999998E-002     5.9629641159946915E-013
  -1.8550000000000001E-002     9.2428274274183682E-013
  -1.8499999999999999E-002     1.1196665371996343E-012
  -1.8450000000000001E-002     1.1575058629009215E-012
  -1.8400000000000000E-002     1.0431750370454370E-012
  -1.8349999999999998E-002     8.1042596415787947E-013
  -1.8300000000000000E-002     5.1304910267667125E-013
  -1.8249999999999999E-002     2.1140520935580518E-013
  -1.8200000000000001E-002    -4.3599225723379839E-014
  -1.8149999999999999E-002    -2.2552407665655354E-013
  -1.8100000000000002E-002    -3.4247853364244113E-013
  -1.8050000000000000E-002    -4.3890831309751443E-013
  -1.7999999999999999E-002    -5.8724434804585862E-013
  -1.7950000000000001E-002    -8.6985893272409167E-013
  -1.7899999999999999E-002    -1.3543357896458370E-012
  -1.7850000000000001E-002    -2.0672230253444475E-012
  -1.7800000000000000E-002    -2.9725300413739397E-012
  -1.7749999999999998E-002    -3.9608033015423866E-012
  -1.7700000000000000E-002    -4.8525824544730609E-012
  -1.7649999999999999E-002    -5.4168159316462528E-012
  -1.7600000000000001E-002    -5.4011932801431233E-012
  -1.7550000000000000E-002    -4.5682464704783335E-012
  -1.7499999999999998E-002    -2.7294236053808260E-012
  -1.7450000000000000E-002     2.3041838889639722E-013
  -1.7399999999999999E-002     4.3434628819344144E-012
  -1.7350000000000001E-002     9.5661606033069510E-012
  -1.7299999999999999E-002     1.5801024408338029E-011
  -1.7250000000000001E-002     2.2927416674010234E-011
  -1.7200000000000000E-002     3.0833708242190632E-011
  -1.7149999999999999E-002     3.9443175363169175E-011
  -1.7100000000000001E-002     4.8727664448371744E-011
  -1.7049999999999999E-002     5.8706205461275404E-011
  -1.7000000000000001E-002     6.9429417285652846E-011
  -1.6950000000000000E-002     8.0953835661476031E-011
  -1.6899999999999998E-002     9.3312517023283620E-011
  -1.6850000000000000E-002     1.0648907419017837E-010
  -1.6799999999999999E-002     1.2040146932996380E-010
  -1.6750000000000001E-002     1.3489986390754452E-010
  -1.6700000000000000E-002     1.4977989092369387E-010
  -1.6649999999999998E-002     1.6480939310585423E-010
  -1.6600000000000000E-002     1.7976409831833320E-010
  -1.6549999999999999E-002     1.9446502134246698E-010
  -1.6500000000000001E-002     2.0881036899680483E-010
  -1.6449999999999999E-002     2.2279473414957904E-010
  -1.6400000000000001E-002     2.3651105821226336E-010
  -1.6350000000000000E-002     2.5013331219214159E-010
  -1.6299999999999999E-002     2.6388290025882742E-010
  -1.6250000000000001E-002     2.7798408581068405E-010
  -1.6199999999999999E-002     2.9261774126334254E-010
  -1.6150000000000001E-002     3.0788303538851107E-010
  -1.6100000000000000E-002     3.2377643759701887E-010
  -1.6049999999999998E-002     3.4019307604792760E-010
  -1.6000000000000000E-002     3.5695138411388324E-010
  -1.5949999999999999E-002     3.7383688410045598E-010
  -1.5900000000000001E-002     3.9065561879492400E-010
  -1.5850000000000000E-002     4.0728560074471245E-010
  -1.5799999999999998E-002     4.2371450936243649E-010
  -1.5750000000000000E-002     4.4005388504673248E-010
  -1.5699999999999999E-002     4.5652533408661298E-010
  -1.5650000000000001E-002     4.7342135061448158E-010
  -1.5599999999999999E-002     4.9104769945711099E-010
  -1.5550000000000001E-002     5.0966110022380510E-010
  -1.5500000000000000E-002     5.2941514574484885E-010
  -1.5449999999999998E-002     5.5032836339651282E-010
  -1.5400000000000000E-002     5.7228036762504432E-010
  -1.5349999999999999E-002     5.9503925555009965E-010
  -1.5300000000000001E-002     6.1831321818080803E-010
  -1.5250000000000000E-002     6.4181687505887148E-010
  -1.5199999999999998E-002     6.6533647429769886E-010
  -1.5150000000000000E-002     6.8878006205009170E-010
  -1.5099999999999999E-002     7.1220028216016282E-010
  -1.5050000000000001E-002     7.3578569693121956E-010
  -1.4999999999999999E-002     7.5982224967573720E-010
  -1.4949999999999998E-002     7.8463275304570327E-010
  -1.4900000000000000E-002     8.1050937540516189E-010
  -1.4849999999999999E-002     8.3765364234971404E-010
  -1.4800000000000001E-002     8.6613687961666654E-010
  -1.4749999999999999E-002     8.9589124138215329E-010
  -1.4700000000000001E-002     9.2673218087861548E-010
  -1.4650000000000000E-002     9.5840895137850857E-010
  -1.4599999999999998E-002     9.9067003462152858E-010
  -1.4550000000000000E-002     1.0233300385066524E-009
  -1.4499999999999999E-002     1.0563213801202496E-009
  -1.4450000000000001E-002     1.0897194922672773E-009
  -1.4400000000000000E-002     1.1237340488392454E-009
  -1.4349999999999998E-002     1.1586685885908852E-009
  -1.4300000000000000E-002     1.1948573751377803E-009
  -1.4249999999999999E-002     1.2325922487565751E-009
  -1.4200000000000001E-002     1.2720558979632414E-009
  -1.4149999999999999E-002     1.3132775592036291E-009
  -1.4099999999999998E-002     1.3561224498684146E-009
  -1.4050000000000000E-002     1.4003205236634330E-009
  -1.3999999999999999E-002     1.4455262926658922E-009
  -1.3950000000000001E-002     1.4914015605631367E-009
  -1.3899999999999999E-002     1.5376995856666603E-009
  -1.3850000000000001E-002     1.5843363184820141E-009
  -1.3800000000000000E-002     1.6314288799407610E-009
  -1.3749999999999998E-002     1.6792944377781650E-009
  -1.3700000000000000E-002     1.7284047486354579E-009
  -1.3649999999999999E-002     1.7793047300519809E-009
  -1.3600000000000001E-002     1.8325132731781299E-009
  -1.3550000000000000E-002     1.8884245106212763E-009
  -1.3499999999999998E-002     1.9472311194367133E-009
  -1.3450000000000000E-002     2.0088872286831677E-009
  -1.3399999999999999E-002     2.0731199580255552E-009
  -1.3350000000000001E-002     2.1394883249302007E-009
  -1.3299999999999999E-002     2.2074752164329823E-009
  -1.3249999999999998E-002     2.2765994799737109E-009
  -1.3200000000000000E-002     2.3465202660634736E-009
  -1.3149999999999998E-002     2.4171116619040739E-009
  -1.3100000000000001E-002     2.4884936529974902E-009
  -1.3049999999999999E-002     2.5610099960089094E-009
  -1.3000000000000001E-002     2.6351616277577138E-009
  -1.2950000000000000E-002     2.7115086653631207E-009
  -1.2899999999999998E-002     2.7905606260435836E-009
  -1.2850000000000000E-002     2.8726842980157060E-009
  -1.2799999999999999E-002     2.9580431315279225E-009