  -4.0000000000000001E-002     0.0000000000000000     
  -3.9949999999999999E-002     0.0000000000000000     
  -3.9899999999999998E-002     0.0000000000000000     
  -3.9850000000000003E-002     0.0000000000000000     
  -3.9800000000000002E-002     0.0000000000000000     
  -3.9750000000000001E-002     0.0000000000000000     
  -3.9699999999999999E-002     0.0000000000000000     
  -3.9649999999999998E-002     0.0000000000000000     
  -3.9600000000000003E-002     0.0000000000000000     
  -3.9550000000000002E-002     0.0000000000000000     
  -3.9500000000000000E-002     0.0000000000000000     
  -3.9449999999999999E-002     0.0000000000000000     
  -3.9399999999999998E-002     0.0000000000000000     
  -3.9350000000000003E-002     0.0000000000000000     
  -3.9300000000000002E-002     0.0000000000000000     
  -3.9250000000000000E-002     0.0000000000000000     
  -3.9199999999999999E-002     0.0000000000000000     
  -3.9150000000000004E-002     0.0000000000000000     
  -3.9100000000000003E-002     0.0000000000000000     
  -3.9050000000000001E-002     0.0000000000000000     
  -3.9000000000000000E-002     0.0000000000000000     
  -3.8949999999999999E-002     0.0000000000000000     
  -3.8900000000000004E-002     0.0000000000000000     
  -3.8850000000000003E-002     0.0000000000000000     
  -3.8800000000000001E-002     0.0000000000000000     
  -3.8750000000000000E-002     0.0000000000000000     
  -3.8699999999999998E-002     0.0000000000000000     
  -3.8650000000000004E-002     0.0000000000000000     
  -3.8600000000000002E-002     0.0000000000000000     
  -3.8550000000000001E-002     0.0000000000000000     
  -3.8500000000000000E-002     0.0000000000000000     
  -3.8449999999999998E-002     0.0000000000000000     
  -3.8400000000000004E-002     0.0000000000000000     
  -3.8350000000000002E-002     0.0000000000000000     
  -3.8300000000000001E-002     0.0000000000000000     
  -3.8249999999999999E-002     0.0000000000000000     
  -3.8199999999999998E-002     0.0000000000000000     
  -3.8150000000000003E-002     0.0000000000000000     
  -3.8100000000000002E-002     0.0000000000000000     
  -3.8050000000000000E-002     0.0000000000000000     
  -3.7999999999999999E-002     0.0000000000000000     
  -3.7949999999999998E-002     0.0000000000000000     
  -3.7900000000000003E-002     0.0000000000000000     
  -3.7850000000000002E-002     0.0000000000000000     
  -3.7800000000000000E-002     0.0000000000000000     
  -3.7749999999999999E-002     0.0000000000000000     
  -3.7699999999999997E-002     0.0000000000000000     
  -3.7650000000000003E-002     0.0000000000000000     
  -3.7600000000000001E-002     0.0000000000000000     
  -3.7550000000000000E-002     0.0000000000000000     
  -3.7499999999999999E-002     0.0000000000000000     
  -3.7449999999999997E-002     0.0000000000000000     
  -3.7400000000000003E-002     0.0000000000000000     
  -3.7350000000000001E-002     0.0000000000000000     
  -3.7300000000000000E-002     0.0000000000000000     
  -3.7249999999999998E-002     0.0000000000000000     
  -3.7200000000000004E-002     0.0000000000000000     
  -3.7150000000000002E-002     0.0000000000000000     
  -3.7100000000000001E-002     0.0000000000000000     
  -3.7050000000000000E-002     0.0000000000000000     
  -3.6999999999999998E-002     0.0000000000000000     
  -3.6950000000000004E-002     0.0000000000000000     
  -3.6900000000000002E-002     0.0000000000000000     
  -3.6850000000000001E-002     0.0000000000000000     
  -3.6799999999999999E-002     0.0000000000000000     
  -3.6749999999999998E-002     0.0000000000000000     
  -3.6700000000000003E-002     0.0000000000000000     
  -3.6650000000000002E-002     0.0000000000000000     
  -3.6600000000000001E-002     0.0000000000000000     
  -3.6549999999999999E-002     0.0000000000000000     
  -3.6499999999999998E-002     0.0000000000000000     
  -3.6450000000000003E-002     0.0000000000000000     
  -3.6400000000000002E-002     0.0000000000000000     
  -3.6350000000000000E-002     0.0000000000000000     
  -3.6299999999999999E-002     0.0000000000000000     
  -3.6249999999999998E-002     0.0000000000000000     
  -3.6200000000000003E-002     0.0000000000000000     
  -3.6150000000000002E-002     0.0000000000000000     
  -3.6100000000000000E-002     0.0000000000000000     
  -3.6049999999999999E-002     0.0000000000000000     
  -3.6000000000000004E-002     0.0000000000000000     
  -3.5950000000000003E-002     0.0000000000000000     
  -3.5900000000000001E-002     0.0000000000000000     
  -3.5850000000000000E-002     0.0000000000000000     
  -3.5799999999999998E-002     0.0000000000000000     
  -3.5750000000000004E-002     0.0000000000000000     
  -3.5700000000000003E-002     0.0000000000000000     
  -3.5650000000000001E-002     0.0000000000000000     
  -3.5600000000000000E-002     0.0000000000000000     
  -3.5549999999999998E-002     0.0000000000000000     
  -3.5500000000000004E-002     0.0000000000000000     
  -3.5450000000000002E-002     0.0000000000000000     
  -3.5400000000000001E-002     0.0000000000000000     
  -3.5349999999999999E-002     0.0000000000000000     
  -3.5299999999999998E-002     0.0000000000000000     
  -3.5250000000000004E-002     0.0000000000000000     
  -3.5200000000000002E-002     0.0000000000000000     
  -3.5150000000000001E-002     0.0000000000000000     
  -3.5099999999999999E-002     0.0000000000000000     
  -3.5049999999999998E-002     0.0000000000000000     
  -3.5000000000000003E-002     0.0000000000000000     
  -3.4950000000000002E-002     0.0000000000000000     
  -3.4900000000000000E-002     0.0000000000000000     
  -3.4849999999999999E-002     0.0000000000000000     
  -3.4799999999999998E-002     0.0000000000000000     
  -3.4750000000000003E-002     0.0000000000000000     
  -3.4700000000000002E-002     0.0000000000000000     
  -3.4650000000000000E-002     0.0000000000000000     
  -3.4599999999999999E-002     0.0000000000000000     
  -3.4549999999999997E-002     0.0000000000000000     
  -3.4500000000000003E-002     0.0000000000000000     
  -3.4450000000000001E-002     0.0000000000000000     
  -3.4400000000000000E-002     0.0000000000000000     
  -3.4349999999999999E-002     0.0000000000000000     
  -3.4299999999999997E-002     0.0000000000000000     
  -3.4250000000000003E-002     0.0000000000000000     
  -3.4200000000000001E-002     0.0000000000000000     
  -3.4150000000000000E-002     0.0000000000000000     
  -3.4099999999999998E-002     0.0000000000000000     
  -3.4049999999999997E-002     0.0000000000000000     
  -3.4000000000000002E-002     0.0000000000000000     
  -3.3950000000000001E-002     0.0000000000000000     
  -3.3900000000000000E-002     0.0000000000000000     
  -3.3849999999999998E-002     0.0000000000000000     
  -3.3799999999999997E-002     0.0000000000000000     
  -3.3750000000000002E-002     0.0000000000000000     
  -3.3700000000000001E-002     0.0000000000000000     
  -3.3649999999999999E-002     0.0000000000000000     
  -3.3599999999999998E-002     0.0000000000000000     
  -3.3550000000000003E-002     0.0000000000000000     
  -3.3500000000000002E-002     0.0000000000000000     
  -3.3450000000000001E-002     0.0000000000000000     
  -3.3399999999999999E-002     0.0000000000000000     
  -3.3349999999999998E-002     0.0000000000000000     
  -3.3300000000000003E-002     0.0000000000000000     
  -3.3250000000000002E-002     0.0000000000000000     
  -3.3200000000000000E-002     0.0000000000000000     
  -3.3149999999999999E-002     0.0000000000000000     
  -3.3099999999999997E-002     0.0000000000000000     
  -3.3050000000000003E-002     0.0000000000000000     
  -3.3000000000000002E-002     0.0000000000000000     
  -3.2950000000000000E-002     0.0000000000000000     
  -3.2899999999999999E-002     0.0000000000000000     
  -3.2850000000000004E-002     0.0000000000000000     
  -3.2800000000000003E-002     0.0000000000000000     
  -3.2750000000000001E-002     0.0000000000000000     
  -3.2700000000000000E-002     0.0000000000000000     
  -3.2649999999999998E-002     0.0000000000000000     
  -3.2600000000000004E-002     0.0000000000000000     
  -3.2550000000000003E-002     0.0000000000000000     
  -3.2500000000000001E-002     0.0000000000000000     
  -3.2450000000000000E-002     0.0000000000000000     
  -3.2399999999999998E-002     0.0000000000000000     
  -3.2350000000000004E-002     0.0000000000000000     
  -3.2300000000000002E-002     0.0000000000000000     
  -3.2250000000000001E-002     0.0000000000000000     
  -3.2199999999999999E-002     0.0000000000000000     
  -3.2149999999999998E-002     0.0000000000000000     
  -3.2100000000000004E-002     0.0000000000000000     
  -3.2050000000000002E-002     0.0000000000000000     
  -3.2000000000000001E-002     0.0000000000000000     
  -3.1949999999999999E-002     0.0000000000000000     
  -3.1899999999999998E-002     0.0000000000000000     
  -3.1850000000000003E-002     0.0000000000000000     
  -3.1800000000000002E-002     0.0000000000000000     
  -3.1750000000000000E-002     0.0000000000000000     
  -3.1699999999999999E-002     0.0000000000000000     
  -3.1649999999999998E-002     0.0000000000000000     
  -3.1600000000000003E-002     0.0000000000000000     
  -3.1550000000000002E-002     0.0000000000000000     
  -3.1500000000000000E-002     0.0000000000000000     
  -3.1449999999999999E-002     0.0000000000000000     
  -3.1399999999999997E-002     0.0000000000000000     
  -3.1350000000000003E-002     0.0000000000000000     
  -3.1300000000000001E-002     0.0000000000000000     
  -3.1250000000000000E-002     0.0000000000000000     
  -3.1199999999999999E-002     0.0000000000000000     
  -3.1150000000000001E-002     0.0000000000000000     
  -3.1100000000000003E-002     0.0000000000000000     
  -3.1050000000000001E-002     0.0000000000000000     
  -3.1000000000000000E-002     0.0000000000000000     
  -3.0949999999999998E-002     0.0000000000000000     
  -3.0900000000000000E-002     0.0000000000000000     
  -3.0850000000000002E-002     0.0000000000000000     
  -3.0800000000000001E-002     0.0000000000000000     
  -3.0750000000000000E-002     0.0000000000000000     
  -3.0699999999999998E-002     0.0000000000000000     
  -3.0650000000000000E-002     0.0000000000000000     
  -3.0600000000000002E-002     0.0000000000000000     
  -3.0550000000000001E-002     0.0000000000000000     
  -3.0499999999999999E-002     6.5762214573455549E-040
  -3.0449999999999998E-002     1.5848202096352077E-039
  -3.0400000000000000E-002     9.4432053119934879E-040
  -3.0350000000000002E-002    -1.4527474549054971E-039
  -3.0300000000000001E-002    -5.5957442285863980E-039
  -3.0249999999999999E-002    -9.5901964604198233E-039
  -3.0200000000000001E-002    -9.9788048308913656E-039
  -3.0150000000000000E-002    -3.8110264797181619E-039
  -3.0100000000000002E-002     1.1497336348525779E-038
  -3.0050000000000000E-002     3.1418019536803287E-038
  -2.9999999999999999E-002     4.8190762283967044E-038
  -2.9950000000000001E-002     4.1736274271549727E-038
  -2.9899999999999999E-002     2.6572364898090232E-039
  -2.9850000000000002E-002    -6.5018954407724152E-038
  -2.9800000000000000E-002    -1.3469252250118976E-037
  -2.9749999999999999E-002    -1.5086643726666725E-037
  -2.9700000000000001E-002    -7.8980619695361761E-038
  -2.9650000000000003E-002     6.2552402464242779E-038
  -2.9600000000000001E-002     2.0525932483029847E-037
  -2.9550000000000000E-002     2.4760316614914329E-037
  -2.9499999999999998E-002     1.3745423356099558E-037
  -2.9450000000000000E-002    -8.2918904547553127E-038
  -2.9400000000000003E-002    -2.7415861720435792E-037
  -2.9350000000000001E-002    -2.1336292549964567E-037
  -2.9300000000000000E-002     2.4654302229888143E-037
  -2.9249999999999998E-002     9.7174609363251335E-037
  -2.9200000000000000E-002     1.4825053041751664E-036
  -2.9150000000000002E-002     1.0412050048000357E-036
  -2.9100000000000001E-002    -9.2739547921773117E-037
  -2.9049999999999999E-002    -4.2257290776873359E-036
  -2.8999999999999998E-002    -7.4147252617906574E-036
  -2.8950000000000000E-002    -7.9309203818045763E-036
  -2.8900000000000002E-002    -3.1246834432938976E-036
  -2.8850000000000001E-002     7.8964148577888750E-036
  -2.8799999999999999E-002     2.2368313561748764E-035
  -2.8749999999999998E-002     3.3203622499650736E-035
  -2.8700000000000000E-002     3.0798770954192716E-035
  -2.8650000000000002E-002     7.6591679764135864E-036
  -2.8600000000000000E-002    -3.5484144501328855E-035
  -2.8549999999999999E-002    -8.5135263501586117E-035
  -2.8500000000000001E-002    -1.1586271570055463E-034
  -2.8450000000000000E-002    -9.8943229679530516E-035
  -2.8400000000000002E-002    -1.7649795434743853E-035
  -2.8350000000000000E-002     1.1672547168816679E-034
  -2.8299999999999999E-002     2.5742468236470596E-034
  -2.8250000000000001E-002     3.3190886979077278E-034
  -2.8200000000000003E-002     2.7081677156571674E-034
  -2.8150000000000001E-002     4.7676014133933649E-035
  -2.8100000000000000E-002    -2.8929194168528065E-034
  -2.8049999999999999E-002    -6.1494595364695721E-034
  -2.8000000000000001E-002    -7.6717692956502683E-034
  -2.7950000000000003E-002    -6.2110575612853379E-034
  -2.7900000000000001E-002    -1.6590720742970031E-034
  -2.7850000000000000E-002     4.6031192252204740E-034
  -2.7799999999999998E-002     1.0116177683908336E-033
  -2.7750000000000000E-002     1.2487327430044744E-033
  -2.7700000000000002E-002     1.0753082896325573E-033
  -2.7650000000000001E-002     6.1118382509920821E-034
  -2.7600000000000000E-002     1.3015590288548350E-034
  -2.7549999999999998E-002    -1.4070381500953534E-034
  -2.7500000000000000E-002    -2.5948208934080739E-034
  -2.7450000000000002E-002    -6.6541432824444107E-034
  -2.7400000000000001E-002    -1.9669945351127446E-033
  -2.7349999999999999E-002    -4.4045147819861410E-033
  -2.7299999999999998E-002    -7.2146480965286472E-033
  -2.7250000000000000E-002    -8.3446064933566622E-033
  -2.7200000000000002E-002    -4.9871859777537913E-033
  -2.7150000000000001E-002     4.8910515840984123E-033
  -2.7099999999999999E-002     2.0452382854515513E-032
  -2.7049999999999998E-002     3.6399584850940495E-032
  -2.7000000000000000E-002     4.3284181536684236E-032
  -2.6950000000000002E-002     3.0675916626596404E-032
  -2.6900000000000000E-002    -7.1116003574904437E-033
  -2.6849999999999999E-002    -6.4796791630996338E-032
  -2.6800000000000001E-002    -1.2285905548199544E-031
  -2.6749999999999999E-002    -1.5068369926463858E-031
  -2.6700000000000002E-002    -1.1755367754001928E-031
  -2.6650000000000000E-002    -9.1050460431147924E-033
  -2.6599999999999999E-002     1.5730254601966062E-031
  -2.6550000000000001E-002     3.2712106820474501E-031
  -2.6500000000000003E-002     4.2017555977082895E-031
  -2.6450000000000001E-002     3.6006576136766422E-031
  -2.6400000000000000E-002     1.1304813995962297E-031
  -2.6349999999999998E-002    -2.7999939984250985E-031
  -2.6300000000000000E-002    -6.9701630161755900E-031
  -2.6250000000000002E-002    -9.6506988901461217E-031
  -2.6200000000000001E-002    -9.2373360714538057E-031
  -2.6150000000000000E-002    -4.9991642445784215E-031
  -2.6099999999999998E-002     2.3892816661224152E-031
  -2.6050000000000000E-002     1.0834020220920929E-030
  -2.6000000000000002E-002     1.7433048483473230E-030
  -2.5950000000000001E-002     1.9525904531763930E-030
  -2.5899999999999999E-002     1.5740207765719027E-030
  -2.5849999999999998E-002     6.5355096251908083E-031
  -2.5800000000000000E-002    -6.0388542501062676E-031
  -2.5750000000000002E-002    -1.9231658479722790E-030
  -2.5700000000000001E-002    -3.0569537110022451E-030
  -2.5649999999999999E-002    -3.8248104798237567E-030
  -2.5599999999999998E-002    -4.0591248406141565E-030
  -2.5550000000000000E-002    -3.4959876948086632E-030
  -2.5500000000000002E-002    -1.7227140398127577E-030
  -2.5450000000000000E-002     1.6860404331806179E-030
  -2.5399999999999999E-002     6.7864544063040345E-030
  -2.5349999999999998E-002     1.2746510315389267E-029
  -2.5300000000000000E-002     1.7486211919813005E-029
  -2.5250000000000002E-002     1.7866731609764686E-029
  -2.5200000000000000E-002     1.0703513274657628E-029
  -2.5149999999999999E-002    -5.4802920859417565E-030
  -2.5100000000000001E-002    -2.8548252683768596E-029
  -2.5049999999999999E-002    -5.1699174435304905E-029
  -2.5000000000000001E-002    -6.4319978130930745E-029
  -2.4950000000000000E-002    -5.5264880620468063E-029
  -2.4899999999999999E-002    -1.8023878598221086E-029
  -2.4850000000000001E-002     4.3992345625428285E-029
  -2.4800000000000003E-002     1.1464389935157279E-028
  -2.4750000000000001E-002     1.6713092069065945E-028
  -2.4700000000000000E-002     1.7185766391008473E-028
  -2.4649999999999998E-002     1.0852802868865921E-028
  -2.4600000000000000E-002    -2.1658432759117015E-029
  -2.4550000000000002E-002    -1.8924550145687831E-028
  -2.4500000000000001E-002    -3.3992203135119294E-028
  -2.4450000000000000E-002    -4.0954218997725690E-028
  -2.4399999999999998E-002    -3.4738182468682709E-028
  -2.4350000000000000E-002    -1.3975182369723143E-028
  -2.4299999999999999E-002     1.7585637951267825E-028
  -2.4250000000000001E-002     5.1383545927034680E-028
  -2.4199999999999999E-002     7.6254014393762702E-028
  -2.4150000000000001E-002     8.1947221446384426E-028
  -2.4100000000000000E-002     6.2752472760560846E-028
  -2.4049999999999998E-002     1.9877995196117333E-028
  -2.4000000000000000E-002    -3.8319849472717405E-028
  -2.3949999999999999E-002    -9.8292425004793518E-028
  -2.3900000000000001E-002    -1.4458962803741833E-027
  -2.3850000000000000E-002    -1.6320883686463942E-027
  -2.3800000000000002E-002    -1.4402635924171365E-027
  -2.3750000000000000E-002    -8.2222810669441463E-028
  -2.3699999999999999E-002     2.0469140026337653E-028
  -2.3650000000000001E-002     1.5364287422572265E-027
  -2.3599999999999999E-002     2.9510030792344259E-027
  -2.3550000000000001E-002     4.0848765196307997E-027
  -2.3500000000000000E-002     4.4523805237773088E-027
  -2.3449999999999999E-002     3.5465214483222041E-027
  -2.3400000000000001E-002     1.0353359321780620E-027
  -2.3349999999999999E-002    -2.9829361843577393E-027
  -2.3300000000000001E-002    -7.7631650184204022E-027
  -2.3250000000000000E-002    -1.1871438929983841E-026
  -2.3199999999999998E-002    -1.3438312037097027E-026
  -2.3150000000000000E-002    -1.0739082591056893E-026
  -2.3099999999999999E-002    -2.9864237207646474E-027
  -2.3050000000000001E-002     8.9330945371475620E-027
  -2.3000000000000000E-002     2.2133619867303362E-026
  -2.2950000000000002E-002     3.2122195619784983E-026
  -2.2900000000000000E-002     3.4005921571621381E-026
  -2.2849999999999999E-002     2.4286174138880961E-026
  -2.2800000000000001E-002     2.6834685031532117E-027
  -2.2749999999999999E-002    -2.6746855255879915E-026
  -2.2700000000000001E-002    -5.5863420293268908E-026
  -2.2650000000000000E-002    -7.4321633329942552E-026
  -2.2599999999999999E-002    -7.2767351496904101E-026
  -2.2550000000000001E-002    -4.6425477730908131E-026
  -2.2499999999999999E-002     2.1746563590016971E-027
  -2.2450000000000001E-002     6.2498186695554010E-026
  -2.2400000000000000E-002     1.1792128353138272E-025
  -2.2349999999999998E-002     1.4998677850238205E-025
  -2.2300000000000000E-002     1.4386103437575489E-025
  -2.2249999999999999E-002     9.3350981662775145E-026
  -2.2200000000000001E-002     3.9112630294598299E-027
  -2.2150000000000000E-002    -1.0730587483213539E-025
  -2.2100000000000002E-002    -2.1439333001587877E-025
  -2.2050000000000000E-002    -2.8785129166114733E-025
  -2.1999999999999999E-002    -3.0081042338459791E-025
  -2.1950000000000001E-002    -2.3526662728607605E-025
  -2.1899999999999999E-002    -8.7646081599113689E-026
  -2.1850000000000001E-002     1.2677540460568619E-025
  -2.1800000000000000E-002     3.7136966593288003E-025
  -2.1749999999999999E-002     5.8910166263398639E-025
  -2.1700000000000001E-002     7.0914737591847738E-025
  -2.1649999999999999E-002     6.6116103573516886E-025
  -2.1600000000000001E-002     3.9722152909625050E-025
  -2.1550000000000000E-002    -8.2218358915916184E-026
  -2.1499999999999998E-002    -7.0648314625109633E-025
  -2.1450000000000000E-002    -1.3281077800004316E-024
  -2.1399999999999999E-002    -1.7420598818982345E-024
  -2.1350000000000001E-002    -1.7352475782449692E-024
  -2.1299999999999999E-002    -1.1598872130218537E-024
  -2.1250000000000002E-002    -1.1479518949512122E-026
  -2.1200000000000000E-002     1.5174792621388906E-024
  -2.1149999999999999E-002     3.0378632323217960E-024
  -2.1100000000000001E-002     4.0369612866151991E-024
  -2.1049999999999999E-002     4.0202645552864845E-024
  -2.1000000000000001E-002     2.6901355379810688E-024
  -2.0950000000000000E-002     1.0616145079237341E-025
  -2.0899999999999998E-002    -3.2361678402651981E-024
  -2.0850000000000000E-002    -6.4577354916091957E-024
  -2.0799999999999999E-002    -8.4924238892968426E-024
  -2.0750000000000001E-002    -8.3928941657584614E-024
  -2.0700000000000000E-002    -5.6648941393188065E-024
  -2.0649999999999998E-002    -5.2450044940443075E-025
  -2.0600000000000000E-002     6.0196244471828179E-024
  -2.0549999999999999E-002     1.2314973110425617E-023
  -2.0500000000000001E-002     1.6435455996252769E-023
  -2.0449999999999999E-002     1.6694638589003373E-023
  -2.0400000000000001E-002     1.2172903036754080E-023
  -2.0350000000000000E-002     3.1138787603118039E-024
  -2.0299999999999999E-002    -8.9307451876896634E-024
  -2.0250000000000001E-002    -2.1273922995135593E-023
  -2.0199999999999999E-002    -3.0579789358976403E-023
  -2.0150000000000001E-002    -3.3593130530439035E-023
  -2.0100000000000000E-002    -2.7987400690975277E-023
  -2.0049999999999998E-002    -1.3169671249227661E-023
  -2.0000000000000000E-002     9.1412419487725399E-024
  -1.9949999999999999E-002     3.4752500545286568E-023
  -1.9900000000000001E-002     5.7416351936756267E-023
  -1.9850000000000000E-002     6.9923540782973061E-023
  -1.9799999999999998E-002     6.5823149987323790E-023
  -1.9750000000000000E-002     4.1514798000204188E-023
  -1.9699999999999999E-002    -1.7741409988887562E-024
  -1.9650000000000001E-002    -5.6792219745278709E-023
  -1.9599999999999999E-002    -1.1053400717057275E-022
  -1.9550000000000001E-002    -1.4643425687334281E-022
  -1.9500000000000000E-002    -1.4844660233187117E-022
  -1.9449999999999999E-002    -1.0628581762763391E-022
  -1.9400000000000001E-002    -2.0445556983423755E-023
  -1.9349999999999999E-002     9.4785300998055323E-023
  -1.9300000000000001E-002     2.1194605118144103E-022
  -1.9250000000000000E-002     2.9552732700670759E-022
  -1.9199999999999998E-002     3.1113396918131580E-022
  -1.9150000000000000E-002     2.3670720257710887E-022
  -1.9099999999999999E-002     7.2606205838399597E-023
  -1.9050000000000001E-002    -1.5304955953207206E-022
  -1.9000000000000000E-002    -3.8662560812038028E-022
  -1.8949999999999998E-002    -5.5976990838846872E-022
  -1.8900000000000000E-002    -6.0713449012313478E-022
  -1.8849999999999999E-002    -4.8684828383096051E-022
  -1.8800000000000001E-002    -1.9792374772132518E-022
  -1.8749999999999999E-002     2.1127308833580081E-022
  -1.8700000000000001E-002     6.4759248151357295E-022
  -1.8650000000000000E-002     9.9154240250358640E-022
  -1.8599999999999998E-002     1.1265009719908277E-021
  -1.8550000000000001E-002     9.7209976972705910E-022
  -1.8499999999999999E-002     5.1316327980151093E-022
  -1.8450000000000001E-002    -1.8429484683515152E-022
  -1.8400000000000000E-002    -9.7617770232966514E-022
  -1.8349999999999998E-002    -1.6645821561383439E-021
  -1.8300000000000000E-002    -2.0403599741814925E-021
  -1.8249999999999999E-002    -1.9362787652187178E-021
  -1.8200000000000001E-002    -1.2794427198511788E-021
  -1.8149999999999999E-002    -1.2988522801964282E-022
  -1.8100000000000002E-002     1.3070140069337505E-021
  -1.8050000000000000E-002     2.7030804343290387E-021
  -1.7999999999999999E-002     3.6672633692060900E-021
  -1.7950000000000001E-002     3.8365660365441464E-021
  -1.7899999999999999E-002     2.9818210729767780E-021
  -1.7850000000000001E-002     1.1034767263710240E-021
  -1.7800000000000000E-002    -1.5120376912097128E-021
  -1.7749999999999998E-002    -4.3023025230501111E-021
  -1.7700000000000000E-002    -6.5207260982931717E-021
  -1.7649999999999999E-002    -7.4056454791480940E-021
  -1.7600000000000001E-002    -6.3972491758577877E-021
  -1.7550000000000000E-002    -3.3497120859880594E-021
  -1.7499999999999998E-002     1.3270928772113995E-021
  -1.7450000000000000E-002     6.6573794030414182E-021
  -1.7399999999999999E-002     1.1256238608051770E-020
  -1.7350000000000001E-002     1.3645269218919317E-020
  -1.7299999999999999E-002     1.2667106210821248E-020
  -1.7250000000000001E-002     7.8943594966490680E-021
  -1.7200000000000000E-002    -9.2563190847700046E-023
  -1.7149999999999999E-002    -9.6698202320819933E-021
  -1.7100000000000001E-002    -1.8435388861822040E-020
  -1.7049999999999999E-002    -2.3753323455085587E-020
  -1.7000000000000001E-002    -2.3466963278129333E-020
  -1.6950000000000000E-002    -1.6601610251232481E-020
  -1.6899999999999998E-002    -3.8509218109624334E-021
  -1.6850000000000000E-002     1.2327702772951018E-020
  -1.6799999999999999E-002     2.8097076687485679E-020
  -1.6750000000000001E-002     3.9068626735929460E-020
  -1.6700000000000000E-002     4.1411888571002111E-020
  -1.6649999999999998E-002     3.2983320457712427E-020
  -1.6600000000000000E-002     1.4174183686160223E-020
  -1.6549999999999999E-002    -1.1785933589896479E-020
  -1.6500000000000001E-002    -3.9225132501426194E-020
  -1.6449999999999999E-002    -6.1121282356988895E-020
  -1.6400000000000001E-002    -7.0712423643081776E-020
  -1.6350000000000000E-002    -6.3296239779454624E-020
  -1.6299999999999999E-002    -3.7797422918416661E-020
  -1.6250000000000001E-002     2.3252258547228305E-021
  -1.6199999999999999E-002     4.9169375018980831E-020
  -1.6150000000000001E-002     9.1631302478387756E-020
  -1.6100000000000000E-002     1.1770021676456156E-019
  -1.6049999999999998E-002     1.1742511741845586E-019
  -1.6000000000000000E-002     8.5925768689950539E-020
  -1.5949999999999999E-002     2.5672464877183134E-020
  -1.5900000000000001E-002    -5.2722629049311351E-020
  -1.5850000000000000E-002    -1.3173360100259328E-019
  -1.5799999999999998E-002    -1.9027228901103994E-019
  -1.5750000000000000E-002    -2.0870291741684717E-019
  -1.5699999999999999E-002    -1.7448764203039384E-019
  -1.5650000000000001E-002    -8.7018791909079310E-020
  -1.5599999999999999E-002     3.9894529418412960E-020
  -1.5550000000000001E-002     1.7907307671901382E-019
  -1.5500000000000000E-002     2.9496128205825935E-019
  -1.5449999999999998E-002     3.5191949876566576E-019
  -1.5400000000000000E-002     3.2407875954300468E-019
  -1.5349999999999999E-002     2.0423614362592493E-019
  -1.5300000000000001E-002     9.0873113335436011E-021
  -1.5250000000000000E-002    -2.2132282134940621E-019
  -1.5199999999999998E-002    -4.3074034349501756E-019
  -1.5150000000000000E-002    -5.5948432105830539E-019
  -1.5099999999999999E-002    -5.6016909191850950E-019
  -1.5050000000000001E-002    -4.1243997572246869E-019
  -1.4999999999999999E-002    -1.3251696952944909E-019
  -1.4949999999999998E-002     2.2577958025727419E-019
  -1.4900000000000000E-002     5.7994140439028858E-019
  -1.4849999999999999E-002     8.3652446576671861E-019
  -1.4800000000000001E-002     9.1414979191092957E-019
  -1.4749999999999999E-002     7.6636858664804203E-019
  -1.4700000000000001E-002     3.9844750261531816E-019
  -1.4650000000000000E-002    -1.2695767932918504E-019
  -1.4599999999999998E-002    -6.9800527632801451E-019
  -1.4550000000000000E-002    -1.1753560557777200E-018
  -1.4499999999999999E-002    -1.4235998908192944E-018
  -1.4450000000000001E-002    -1.3458855722887101E-018
  -1.4400000000000000E-002    -9.1367928391938932E-019
  -1.4349999999999998E-002    -1.8374279381217330E-019
  -1.4300000000000000E-002     7.0357949004564932E-019
  -1.4249999999999999E-002     1.5470446740146934E-018
  -1.4200000000000001E-002     2.1257728881021929E-018
  -1.4149999999999999E-002     2.2518381619053497E-018
  -1.4099999999999998E-002     1.8229796636855084E-018
  -1.4050000000000000E-002     8.6226185649818205E-019
  -1.3999999999999999E-002    -4.6758038842711044E-019
  -1.3950000000000001E-002    -1.8831805982229899E-018
  -1.3899999999999999E-002    -3.0339313748125454E-018
  -1.3850000000000001E-002    -3.5818865550302340E-018
  -1.3800000000000000E-002    -3.2918364148994639E-018
  -1.3749999999999998E-002    -2.1094597362203293E-018
  -1.3700000000000000E-002    -2.0459871170610156E-019
  -1.3649999999999999E-002     2.0379264797055320E-018
  -1.3600000000000001E-002     4.0862790029122663E-018
  -1.3550000000000000E-002     5.3795590468071491E-018
  -1.3499999999999998E-002     5.4717175955670588E-018
  -1.3450000000000000E-002     4.1663806562920915E-018
  -1.3399999999999999E-002     1.6046494390848986E-018
  -1.3350000000000001E-002    -1.7247059698211561E-018
  -1.3299999999999999E-002    -5.0662159972949512E-018
  -1.3249999999999998E-002    -7.5602670471105873E-018
  -1.3200000000000000E-002    -8.4541912803623665E-018
  -1.3149999999999998E-002    -7.3116676597928858E-018
  -1.3100000000000001E-002    -4.1647751382887691E-018
  -1.3049999999999999E-002     4.3778878792326909E-019
  -1.3000000000000001E-002     5.5103166939961110E-018
  -1.2950000000000000E-002     9.8305008896976053E-018
  -1.2899999999999998E-002     1.2221728058001985E-017
  -1.2850000000000000E-002     1.1853904494761748E-017
  -1.2799999999999999E-002     8.4891806878750921E-018