  -4.0000000000000001E-002     0.0000000000000000     
  -3.9949999999999999E-002     0.0000000000000000     
  -3.9899999999999998E-002     0.0000000000000000     
  -3.9850000000000003E-002     0.0000000000000000     
  -3.9800000000000002E-002     0.0000000000000000     
  -3.9750000000000001E-002     0.0000000000000000     
  -3.9699999999999999E-002     0.0000000000000000     
  -3.9649999999999998E-002     0.0000000000000000     
  -3.9600000000000003E-002     0.0000000000000000     
  -3.9550000000000002E-002     0.0000000000000000     
  -3.9500000000000000E-002     0.0000000000000000     
  -3.9449999999999999E-002     0.0000000000000000     
  -3.9399999999999998E-002     0.0000000000000000     
  -3.9350000000000003E-002     0.0000000000000000     
  -3.9300000000000002E-002     0.0000000000000000     
  -3.9250000000000000E-002     0.0000000000000000     
  -3.9199999999999999E-002     0.0000000000000000     
  -3.9150000000000004E-002     0.0000000000000000     
  -3.9100000000000003E-002     0.0000000000000000     
  -3.9050000000000001E-002     0.0000000000000000     
  -3.9000000000000000E-002     0.0000000000000000     
  -3.8949999999999999E-002     0.0000000000000000     
  -3.8900000000000004E-002     0.0000000000000000     
  -3.8850000000000003E-002     0.0000000000000000     
  -3.8800000000000001E-002     0.0000000000000000     
  -3.8750000000000000E-002     0.0000000000000000     
  -3.8699999999999998E-002     0.0000000000000000     
  -3.8650000000000004E-002     0.0000000000000000     
  -3.8600000000000002E-002     0.0000000000000000     
  -3.8550000000000001E-002     0.0000000000000000     
  -3.8500000000000000E-002     0.0000000000000000     
  -3.8449999999999998E-002     0.0000000000000000     
  -3.8400000000000004E-002     0.0000000000000000     
  -3.8350000000000002E-002     0.0000000000000000     
  -3.8300000000000001E-002     0.0000000000000000     
  -3.8249999999999999E-002     0.0000000000000000     
  -3.8199999999999998E-002     0.0000000000000000     
  -3.8150000000000003E-002     0.0000000000000000     
  -3.8100000000000002E-002     0.0000000000000000     
  -3.8050000000000000E-002     0.0000000000000000     
  -3.7999999999999999E-002     0.0000000000000000     
  -3.7949999999999998E-002     0.0000000000000000     
  -3.7900000000000003E-002     0.0000000000000000     
  -3.7850000000000002E-002     0.0000000000000000     
  -3.7800000000000000E-002     0.0000000000000000     
  -3.7749999999999999E-002     0.0000000000000000     
  -3.7699999999999997E-002     0.0000000000000000     
  -3.7650000000000003E-002     0.0000000000000000     
  -3.7600000000000001E-002     0.0000000000000000     
  -3.7550000000000000E-002     0.0000000000000000     
  -3.7499999999999999E-002     0.0000000000000000     
  -3.7449999999999997E-002     0.0000000000000000     
  -3.7400000000000003E-002     0.0000000000000000     
  -3.7350000000000001E-002     0.0000000000000000     
  -3.7300000000000000E-002     0.0000000000000000     
  -3.7249999999999998E-002     0.0000000000000000     
  -3.7200000000000004E-002     0.0000000000000000     
  -3.7150000000000002E-002     0.0000000000000000     
  -3.7100000000000001E-002     0.0000000000000000     
  -3.7050000000000000E-002     0.0000000000000000     
  -3.6999999999999998E-002     0.0000000000000000     
  -3.6950000000000004E-002     0.0000000000000000     
  -3.6900000000000002E-002     0.0000000000000000     
  -3.6850000000000001E-002     0.0000000000000000     
  -3.6799999999999999E-002     0.0000000000000000     
  -3.6749999999999998E-002     0.0000000000000000     
  -3.6700000000000003E-002     0.0000000000000000     
  -3.6650000000000002E-002     0.0000000000000000     
  -3.6600000000000001E-002     0.0000000000000000     
  -3.6549999999999999E-002     0.0000000000000000     
  -3.6499999999999998E-002     0.0000000000000000     
  -3.6450000000000003E-002     0.0000000000000000     
  -3.6400000000000002E-002     0.0000000000000000     
  -3.6350000000000000E-002     0.0000000000000000     
  -3.6299999999999999E-002     0.0000000000000000     
  -3.6249999999999998E-002     0.0000000000000000     
  -3.6200000000000003E-002     0.0000000000000000     
  -3.6150000000000002E-002     0.0000000000000000     
  -3.6100000000000000E-002     0.0000000000000000     
  -3.6049999999999999E-002     0.0000000000000000     
  -3.6000000000000004E-002     0.0000000000000000     
  -3.5950000000000003E-002     0.0000000000000000     
  -3.5900000000000001E-002     0.0000000000000000     
  -3.5850000000000000E-002     0.0000000000000000     
  -3.5799999999999998E-002     0.0000000000000000     
  -3.5750000000000004E-002     0.0000000000000000     
  -3.5700000000000003E-002     0.0000000000000000     
  -3.5650000000000001E-002     0.0000000000000000     
  -3.5600000000000000E-002     0.0000000000000000     
  -3.5549999999999998E-002     0.0000000000000000     
  -3.5500000000000004E-002     0.0000000000000000     
  -3.5450000000000002E-002     0.0000000000000000     
  -3.5400000000000001E-002     0.0000000000000000     
  -3.5349999999999999E-002     0.0000000000000000     
  -3.5299999999999998E-002     0.0000000000000000     
  -3.5250000000000004E-002     0.0000000000000000     
  -3.5200000000000002E-002     0.0000000000000000     
  -3.5150000000000001E-002     0.0000000000000000     
  -3.5099999999999999E-002     0.0000000000000000     
  -3.5049999999999998E-002     0.0000000000000000     
  -3.5000000000000003E-002     0.0000000000000000     
  -3.4950000000000002E-002     0.0000000000000000     
  -3.4900000000000000E-002     0.0000000000000000     
  -3.4849999999999999E-002     0.0000000000000000     
  -3.4799999999999998E-002     0.0000000000000000     
  -3.4750000000000003E-002     0.0000000000000000     
  -3.4700000000000002E-002     0.0000000000000000     
  -3.4650000000000000E-002     0.0000000000000000     
  -3.4599999999999999E-002     0.0000000000000000     
  -3.4549999999999997E-002     0.0000000000000000     
  -3.4500000000000003E-002     0.0000000000000000     
  -3.4450000000000001E-002     0.0000000000000000     
  -3.4400000000000000E-002     0.0000000000000000     
  -3.4349999999999999E-002     0.0000000000000000     
  -3.4299999999999997E-002     0.0000000000000000     
  -3.4250000000000003E-002     0.0000000000000000     
  -3.4200000000000001E-002     0.0000000000000000     
  -3.4150000000000000E-002     0.0000000000000000     
  -3.4099999999999998E-002     0.0000000000000000     
  -3.4049999999999997E-002     0.0000000000000000     
  -3.4000000000000002E-002     0.0000000000000000     
  -3.3950000000000001E-002     0.0000000000000000     
  -3.3900000000000000E-002     0.0000000000000000     
  -3.3849999999999998E-002     0.0000000000000000     
  -3.3799999999999997E-002     0.0000000000000000     
  -3.3750000000000002E-002     0.0000000000000000     
  -3.3700000000000001E-002     0.0000000000000000     
  -3.3649999999999999E-002     0.0000000000000000     
  -3.3599999999999998E-002     0.0000000000000000     
  -3.3550000000000003E-002     0.0000000000000000     
  -3.3500000000000002E-002     0.0000000000000000     
  -3.3450000000000001E-002     0.0000000000000000     
  -3.3399999999999999E-002     0.0000000000000000     
  -3.3349999999999998E-002     0.0000000000000000     
  -3.3300000000000003E-002     0.0000000000000000     
  -3.3250000000000002E-002     0.0000000000000000     
  -3.3200000000000000E-002     0.0000000000000000     
  -3.3149999999999999E-002     0.0000000000000000     
  -3.3099999999999997E-002     0.0000000000000000     
  -3.3050000000000003E-002     0.0000000000000000     
  -3.3000000000000002E-002     0.0000000000000000     
  -3.2950000000000000E-002     0.0000000000000000     
  -3.2899999999999999E-002     0.0000000000000000     
  -3.2850000000000004E-002     0.0000000000000000     
  -3.2800000000000003E-002     0.0000000000000000     
  -3.2750000000000001E-002     0.0000000000000000     
  -3.2700000000000000E-002     0.0000000000000000     
  -3.2649999999999998E-002     0.0000000000000000     
  -3.2600000000000004E-002     0.0000000000000000     
  -3.2550000000000003E-002     0.0000000000000000     
  -3.2500000000000001E-002     0.0000000000000000     
  -3.2450000000000000E-002     0.0000000000000000     
  -3.2399999999999998E-002     0.0000000000000000     
  -3.2350000000000004E-002     0.0000000000000000     
  -3.2300000000000002E-002     0.0000000000000000     
  -3.2250000000000001E-002     0.0000000000000000     
  -3.2199999999999999E-002     0.0000000000000000     
  -3.2149999999999998E-002     0.0000000000000000     
  -3.2100000000000004E-002     0.0000000000000000     
  -3.2050000000000002E-002     0.0000000000000000     
  -3.2000000000000001E-002     0.0000000000000000     
  -3.1949999999999999E-002     0.0000000000000000     
  -3.1899999999999998E-002     0.0000000000000000     
  -3.1850000000000003E-002     0.0000000000000000     
  -3.1800000000000002E-002     0.0000000000000000     
  -3.1750000000000000E-002     0.0000000000000000     
  -3.1699999999999999E-002     0.0000000000000000     
  -3.1649999999999998E-002     0.0000000000000000     
  -3.1600000000000003E-002     0.0000000000000000     
  -3.1550000000000002E-002     0.0000000000000000     
  -3.1500000000000000E-002     0.0000000000000000     
  -3.1449999999999999E-002     0.0000000000000000     
  -3.1399999999999997E-002     0.0000000000000000     
  -3.1350000000000003E-002     0.0000000000000000     
  -3.1300000000000001E-002     0.0000000000000000     
  -3.1250000000000000E-002     0.0000000000000000     
  -3.1199999999999999E-002     0.0000000000000000     
  -3.1150000000000001E-002     0.0000000000000000     
  -3.1100000000000003E-002     0.0000000000000000     
  -3.1050000000000001E-002     0.0000000000000000     
  -3.1000000000000000E-002     0.0000000000000000     
  -3.0949999999999998E-002     0.0000000000000000     
  -3.0900000000000000E-002     0.0000000000000000     
  -3.0850000000000002E-002     0.0000000000000000     
  -3.0800000000000001E-002     0.0000000000000000     
  -3.0750000000000000E-002     0.0000000000000000     
  -3.0699999999999998E-002     0.0000000000000000     
  -3.0650000000000000E-002     0.0000000000000000     
  -3.0600000000000002E-002     0.0000000000000000     
  -3.0550000000000001E-002     0.0000000000000000     
  -3.0499999999999999E-002     0.0000000000000000     
  -3.0449999999999998E-002     0.0000000000000000     
  -3.0400000000000000E-002     0.0000000000000000     
  -3.0350000000000002E-002     0.0000000000000000     
  -3.0300000000000001E-002     0.0000000000000000     
  -3.0249999999999999E-002     0.0000000000000000     
  -3.0200000000000001E-002     0.0000000000000000     
  -3.0150000000000000E-002     0.0000000000000000     
  -3.0100000000000002E-002     0.0000000000000000     
  -3.0050000000000000E-002     0.0000000000000000     
  -2.9999999999999999E-002     0.0000000000000000     
  -2.9950000000000001E-002     0.0000000000000000     
  -2.9899999999999999E-002     0.0000000000000000     
  -2.9850000000000002E-002     0.0000000000000000     
  -2.9800000000000000E-002     0.0000000000000000     
  -2.9749999999999999E-002     0.0000000000000000     
  -2.9700000000000001E-002     0.0000000000000000     
  -2.9650000000000003E-002     0.0000000000000000     
  -2.9600000000000001E-002     0.0000000000000000     
  -2.9550000000000000E-002     0.0000000000000000     
  -2.9499999999999998E-002     0.0000000000000000     
  -2.9450000000000000E-002     0.0000000000000000     
  -2.9400000000000003E-002     0.0000000000000000     
  -2.9350000000000001E-002     0.0000000000000000     
  -2.9300000000000000E-002     0.0000000000000000     
  -2.9249999999999998E-002     0.0000000000000000     
  -2.9200000000000000E-002     0.0000000000000000     
  -2.9150000000000002E-002     0.0000000000000000     
  -2.9100000000000001E-002     0.0000000000000000     
  -2.9049999999999999E-002     0.0000000000000000     
  -2.8999999999999998E-002     0.0000000000000000     
  -2.8950000000000000E-002     0.0000000000000000     
  -2.8900000000000002E-002     0.0000000000000000     
  -2.8850000000000001E-002     0.0000000000000000     
  -2.8799999999999999E-002     0.0000000000000000     
  -2.8749999999999998E-002     0.0000000000000000     
  -2.8700000000000000E-002     0.0000000000000000     
  -2.8650000000000002E-002     0.0000000000000000     
  -2.8600000000000000E-002     0.0000000000000000     
  -2.8549999999999999E-002     0.0000000000000000     
  -2.8500000000000001E-002     0.0000000000000000     
  -2.8450000000000000E-002     0.0000000000000000     
  -2.8400000000000002E-002     0.0000000000000000     
  -2.8350000000000000E-002     0.0000000000000000     
  -2.8299999999999999E-002     0.0000000000000000     
  -2.8250000000000001E-002     0.0000000000000000     
  -2.8200000000000003E-002     0.0000000000000000     
  -2.8150000000000001E-002     0.0000000000000000     
  -2.8100000000000000E-002     0.0000000000000000     
  -2.8049999999999999E-002     0.0000000000000000     
  -2.8000000000000001E-002     0.0000000000000000     
  -2.7950000000000003E-002     0.0000000000000000     
  -2.7900000000000001E-002     0.0000000000000000     
  -2.7850000000000000E-002     0.0000000000000000     
  -2.7799999999999998E-002     0.0000000000000000     
  -2.7750000000000000E-002     0.0000000000000000     
  -2.7700000000000002E-002     0.0000000000000000     
  -2.7650000000000001E-002     0.0000000000000000     
  -2.7600000000000000E-002     0.0000000000000000     
  -2.7549999999999998E-002     0.0000000000000000     
  -2.7500000000000000E-002     0.0000000000000000     
  -2.7450000000000002E-002     0.0000000000000000     
  -2.7400000000000001E-002     0.0000000000000000     
  -2.7349999999999999E-002     0.0000000000000000     
  -2.7299999999999998E-002     0.0000000000000000     
  -2.7250000000000000E-002     0.0000000000000000     
  -2.7200000000000002E-002     0.0000000000000000     
  -2.7150000000000001E-002     0.0000000000000000     
  -2.7099999999999999E-002     0.0000000000000000     
  -2.7049999999999998E-002     0.0000000000000000     
  -2.7000000000000000E-002     0.0000000000000000     
  -2.6950000000000002E-002     0.0000000000000000     
  -2.6900000000000000E-002     0.0000000000000000     
  -2.6849999999999999E-002     0.0000000000000000     
  -2.6800000000000001E-002     0.0000000000000000     
  -2.6749999999999999E-002     0.0000000000000000     
  -2.6700000000000002E-002     0.0000000000000000     
  -2.6650000000000000E-002     0.0000000000000000     
  -2.6599999999999999E-002     0.0000000000000000     
  -2.6550000000000001E-002     0.0000000000000000     
  -2.6500000000000003E-002     0.0000000000000000     
  -2.6450000000000001E-002     0.0000000000000000     
  -2.6400000000000000E-002     0.0000000000000000     
  -2.6349999999999998E-002     0.0000000000000000     
  -2.6300000000000000E-002     0.0000000000000000     
  -2.6250000000000002E-002     0.0000000000000000     
  -2.6200000000000001E-002     0.0000000000000000     
  -2.6150000000000000E-002     0.0000000000000000     
  -2.6099999999999998E-002     0.0000000000000000     
  -2.6050000000000000E-002     0.0000000000000000     
  -2.6000000000000002E-002     0.0000000000000000     
  -2.5950000000000001E-002     0.0000000000000000     
  -2.5899999999999999E-002     0.0000000000000000     
  -2.5849999999999998E-002     0.0000000000000000     
  -2.5800000000000000E-002     0.0000000000000000     
  -2.5750000000000002E-002     0.0000000000000000     
  -2.5700000000000001E-002     0.0000000000000000     
  -2.5649999999999999E-002     0.0000000000000000     
  -2.5599999999999998E-002     0.0000000000000000     
  -2.5550000000000000E-002     1.6108658514475972E-039
  -2.5500000000000002E-002     1.6108658514475972E-039
  -2.5450000000000000E-002     1.6108658514475972E-039
  -2.5399999999999999E-002    -1.5763563700918690E-039
  -2.5349999999999998E-002    -7.2246024884227991E-039
  -2.5300000000000000E-002    -1.3270972530391508E-038
  -2.5250000000000002E-002    -1.1777982861528505E-038
  -2.5200000000000000E-002     0.0000000000000000     
  -2.5149999999999999E-002     2.0589921498429674E-038
  -2.5100000000000001E-002     5.0339518097027892E-038
  -2.5049999999999999E-002     6.1889045725004311E-038
  -2.5000000000000001E-002     5.0221554376543861E-038
  -2.4950000000000000E-002    -1.5930645204721042E-038
  -2.4899999999999999E-002    -1.0620219166566182E-037
  -2.4850000000000001E-002    -1.9540094512723640E-037
  -2.4800000000000003E-002    -2.0683020756661805E-037
  -2.4750000000000001E-002    -1.1951606917653534E-037
  -2.4700000000000000E-002     5.6710874032109106E-038
  -2.4649999999999998E-002     2.6395765586291953E-037
  -2.4600000000000000E-002     4.4182117200460786E-037
  -2.4550000000000002E-002     4.8201427022638581E-037
  -2.4500000000000001E-002     3.2661398043282806E-037
  -2.4450000000000000E-002     8.3185611611802867E-039
  -2.4399999999999998E-002    -3.9826772625704146E-037
  -2.4350000000000000E-002    -7.6247310683440938E-037
  -2.4299999999999999E-002    -9.5118343375374895E-037
  -2.4250000000000001E-002    -8.5936928416808017E-037
  -2.4199999999999999E-002    -4.8396255324390155E-037
  -2.4150000000000001E-002     9.7402227866670344E-038
  -2.4100000000000000E-002     7.5311180041892823E-037
  -2.4049999999999998E-002     1.3433390714180566E-036
  -2.4000000000000000E-002     1.7684416102366824E-036
  -2.3949999999999999E-002     1.9489446434999048E-036
  -2.3900000000000001E-002     1.8210146598069339E-036
  -2.3850000000000000E-002     1.2338703273527358E-036
  -2.3800000000000002E-002    -2.6700267963657024E-038
  -2.3750000000000000E-002    -2.1236584097071606E-036
  -2.3699999999999999E-002    -4.9431769763227968E-036
  -2.3650000000000001E-002    -7.8371808284889475E-036
  -2.3599999999999999E-002    -9.5049425682789940E-036
  -2.3550000000000001E-002    -8.2138755600680432E-036
  -2.3500000000000000E-002    -2.4712418460616096E-036
  -2.3449999999999999E-002     7.9639538228370317E-036
  -2.3400000000000001E-002     2.1110430824376285E-035
  -2.3349999999999999E-002     3.2417366697083741E-035
  -2.3300000000000001E-002     3.5592068137704954E-035
  -2.3250000000000000E-002     2.4794679400230458E-035
  -2.3199999999999998E-002    -2.2476076464816086E-036
  -2.3150000000000000E-002    -4.1364557334622032E-035
  -2.3099999999999999E-002    -8.0876811411067891E-035
  -2.3050000000000001E-002    -1.0368191855072008E-034
  -2.3000000000000000E-002    -9.2818376192799641E-035
  -2.2950000000000002E-002    -3.9232387793491228E-035
  -2.2900000000000000E-002     5.1103472424266086E-035
  -2.2849999999999999E-002     1.5431578129567470E-034
  -2.2800000000000001E-002     2.3282309283034593E-034
  -2.2749999999999999E-002     2.4700100681866266E-034
  -2.2700000000000001E-002     1.7132522372175086E-034
  -2.2650000000000000E-002     9.0075131066016684E-036
  -2.2599999999999999E-002    -2.0183206661453789E-034
  -2.2550000000000001E-002    -3.9529758729967454E-034
  -2.2499999999999999E-002    -4.9800102339956121E-034
  -2.2450000000000001E-002    -4.5622013779311331E-034
  -2.2400000000000000E-002    -2.5921237652809322E-034
  -2.2349999999999998E-002     5.2119073555266198E-035
  -2.2300000000000000E-002     3.9669817884258580E-034
  -2.2249999999999999E-002     6.8126075478833373E-034
  -2.2200000000000001E-002     8.3242377691458295E-034
  -2.2150000000000000E-002     8.1693208985995600E-034
  -2.2100000000000002E-002     6.3931924953288618E-034
  -2.2050000000000000E-002     3.1911871013256069E-034
  -2.1999999999999999E-002    -1.3542887759485824E-034
  -2.1950000000000001E-002    -7.3245976847772985E-034
  -2.1899999999999999E-002    -1.4626424341206922E-033
  -2.1850000000000001E-002    -2.2317203109521496E-033
  -2.1800000000000000E-002    -2.7954432597882432E-033
  -2.1749999999999999E-002    -2.7544546965399296E-033
  -2.1700000000000001E-002    -1.6607852011639494E-033
  -2.1649999999999999E-002     7.5534927983846433E-034
  -2.1600000000000001E-002     4.3011698421405664E-033
  -2.1550000000000000E-002     8.1127708096797215E-033
  -2.1499999999999998E-002     1.0684134580688723E-032
  -2.1450000000000000E-002     1.0246281244603595E-032
  -2.1399999999999999E-002     5.4754040357723738E-033
  -2.1350000000000001E-002    -3.6728235036649199E-033
  -2.1299999999999999E-002    -1.5358433886828434E-032
  -2.1250000000000002E-002    -2.5870706112133864E-032
  -2.1200000000000000E-002    -3.0500114762889199E-032
  -2.1149999999999999E-002    -2.5186984369990139E-032
  -2.1100000000000001E-002    -8.4704943714974934E-033
  -2.1049999999999999E-002     1.7036216189506778E-032
  -2.1000000000000001E-002     4.4444586069668588E-032
  -2.0950000000000000E-002     6.4121336665501748E-032
  -2.0899999999999998E-002     6.6760296977182215E-032
  -2.0850000000000000E-002     4.7072020633595316E-032
  -2.0799999999999999E-002     6.6797622305058774E-033
  -2.0750000000000001E-002    -4.5143241879394138E-032
  -2.0700000000000000E-002    -9.3579439526654101E-032
  -2.0649999999999998E-002    -1.2277437916809095E-031
  -2.0600000000000000E-002    -1.2118827757397523E-031
  -2.0549999999999999E-002    -8.5675196999103028E-032
  -2.0500000000000001E-002    -2.2551290355736375E-032
  -2.0449999999999999E-002     5.4798446365313225E-032
  -2.0400000000000001E-002     1.3054855271808176E-031
  -2.0350000000000000E-002     1.9085169825057991E-031
  -2.0299999999999999E-002     2.2563394115559721E-031
  -2.0250000000000001E-002     2.2690171302186094E-031
  -2.0199999999999999E-002     1.8520352336197537E-031
  -2.0150000000000001E-002     8.8046602971470666E-032
  -2.0100000000000000E-002    -7.5665039477561180E-032
  -2.0049999999999998E-002    -3.0365876747259409E-031
  -2.0000000000000000E-002    -5.6422192533664662E-031
  -1.9949999999999999E-002    -7.8474807139980076E-031
  -1.9900000000000001E-002    -8.5614320784175193E-031
  -1.9850000000000000E-002    -6.6132055962486579E-031
  -1.9799999999999998E-002    -1.2668105304053244E-031
  -1.9750000000000000E-002     7.1778756036202336E-031
  -1.9699999999999999E-002     1.6958702980515761E-030
  -1.9650000000000001E-002     2.4893989869157765E-030
  -1.9599999999999999E-002     2.7088989741215570E-030
  -1.9550000000000001E-002     2.0265691010813423E-030
  -1.9500000000000000E-002     3.3708161405062402E-031
  -1.9449999999999999E-002    -2.1136497337899763E-030
  -1.9400000000000001E-002    -4.6982506817143716E-030
  -1.9349999999999999E-002    -6.5218051484880868E-030
  -1.9300000000000001E-002    -6.6782482713823948E-030
  -1.9250000000000000E-002    -4.5876697629222687E-030
  -1.9199999999999998E-002    -3.0333720122748260E-031
  -1.9150000000000000E-002     5.3381314113514639E-030
  -1.9099999999999999E-002     1.0816833918540576E-029
  -1.9050000000000001E-002     1.4295585416651524E-029
  -1.9000000000000000E-002     1.4169380175877975E-029
  -1.8949999999999998E-002     9.6345603131661711E-030
  -1.8900000000000000E-002     1.0850848924489651E-030
  -1.8849999999999999E-002    -9.8150540916277464E-030
  -1.8800000000000001E-002    -2.0433064882040763E-029
  -1.8749999999999999E-002    -2.7769049351604614E-029
  -1.8700000000000001E-002    -2.9190465982115652E-029
  -1.8650000000000000E-002    -2.3104786950157640E-029
  -1.8599999999999998E-002    -9.4240112003605287E-030
  -1.8550000000000001E-002     1.0233672599916162E-029
  -1.8499999999999999E-002     3.2581513724135540E-029
  -1.8450000000000001E-002     5.2904507503521840E-029
  -1.8400000000000000E-002     6.5529121663537951E-029
  -1.8349999999999998E-002     6.4642095051455751E-029
  -1.8300000000000000E-002     4.5605879681426710E-029
  -1.8249999999999999E-002     6.7879254368131057E-030
  -1.8200000000000001E-002    -4.8396923195633293E-029
  -1.8149999999999999E-002    -1.0995058972379458E-028
  -1.8100000000000002E-002    -1.6129656814405002E-028
  -1.8050000000000000E-002    -1.8181235490982341E-028
  -1.7999999999999999E-002    -1.5227931748045230E-028
  -1.7950000000000001E-002    -6.2511084629066155E-029
  -1.7899999999999999E-002     8.0934804702306819E-029
  -1.7850000000000001E-002     2.5009103306507820E-028
  -1.7800000000000000E-002     3.9717182004857968E-028
  -1.7749999999999998E-002     4.6434260691705308E-028
  -1.7700000000000000E-002     4.0097320608472181E-028
  -1.7649999999999999E-002     1.8440072058886706E-028
  -1.7600000000000001E-002    -1.6254011360429474E-028
  -1.7550000000000000E-002    -5.6489861250086445E-028
  -1.7499999999999998E-002    -9.0574733624392624E-028
  -1.7450000000000000E-002    -1.0542740421247189E-027
  -1.7399999999999999E-002    -9.0664975547327926E-028
  -1.7350000000000001E-002    -4.2846779123015013E-028
  -1.7299999999999999E-002     3.1574287212134029E-028
  -1.7250000000000001E-002     1.1591393154149904E-027
  -1.7200000000000000E-002     1.8622304598441106E-027
  -1.7149999999999999E-002     2.1725754126194346E-027
  -1.7100000000000001E-002     1.9009245182353712E-027
  -1.7049999999999999E-002     9.9259474524649803E-028
  -1.7000000000000001E-002    -4.2880554020044751E-028
  -1.6950000000000000E-002    -2.0627661581825277E-027
  -1.6899999999999998E-002    -3.4845256664398283E-027
  -1.6850000000000000E-002    -4.2411569769693767E-027
  -1.6799999999999999E-002    -3.9707591251582268E-027
  -1.6750000000000001E-002    -2.5168756052231137E-027
  -1.6700000000000000E-002    -9.3721980146081975E-030
  -1.6649999999999998E-002     3.1116394712141007E-027
  -1.6600000000000000E-002     6.1426100208691753E-027
  -1.6549999999999999E-002     8.2360003875801186E-027
  -1.6500000000000001E-002     8.5814501863161649E-027
  -1.6449999999999999E-002     6.6239816786359030E-027
  -1.6400000000000001E-002     2.2798582016553708E-027
  -1.6350000000000000E-002    -3.9031904892284655E-027
  -1.6299999999999999E-002    -1.0703001460624600E-026
  -1.6250000000000001E-002    -1.6353740339403034E-026
  -1.6199999999999999E-002    -1.8880158622844771E-026
  -1.6150000000000001E-002    -1.6613485286280246E-026
  -1.6100000000000000E-002    -8.7967884428602720E-027
  -1.6049999999999998E-002     3.8824674373818593E-027
  -1.6000000000000000E-002     1.9036364515194950E-026
  -1.5949999999999999E-002     3.2783532247665354E-026
  -1.5900000000000001E-002     4.0512088671347816E-026
  -1.5850000000000000E-002     3.8127810699243140E-026
  -1.5799999999999998E-002     2.3521036907292213E-026
  -1.5750000000000000E-002    -2.1778913721062982E-027
  -1.5699999999999999E-002    -3.4043907889285908E-026
  -1.5650000000000001E-002    -6.3892297759026834E-026
  -1.5599999999999999E-002    -8.2024468287688713E-026
  -1.5550000000000001E-002    -7.9921226792109448E-026
  -1.5500000000000000E-002    -5.3230696915733788E-026
  -1.5449999999999998E-002    -4.1403454161098143E-027
  -1.5400000000000000E-002     5.7781262785408491E-026
  -1.5349999999999999E-002     1.1688127181265110E-025
  -1.5300000000000001E-002     1.5489499679701901E-025
  -1.5250000000000000E-002     1.5593857417063855E-025
  -1.5199999999999998E-002     1.1176407819847062E-025
  -1.5150000000000000E-002     2.5719191843639591E-026
  -1.5099999999999999E-002    -8.6003745541036960E-026
  -1.5050000000000001E-002    -1.9664708772044785E-025
  -1.4999999999999999E-002    -2.7459398823671860E-025
  -1.4949999999999998E-002    -2.9140139880535271E-025
  -1.4900000000000000E-002    -2.3026868329274590E-025
  -1.4849999999999999E-002    -9.2701369812741943E-026
  -1.4800000000000001E-002     9.8656407216641989E-026
  -1.4749999999999999E-002     3.0230332790934607E-025
  -1.4700000000000001E-002     4.6544235024230028E-025
  -1.4650000000000000E-002     5.3574119588925309E-025
  -1.4599999999999998E-002     4.7508451111467902E-025
  -1.4550000000000000E-002     2.7232116180811539E-025
  -1.4499999999999999E-002    -4.8273664663411071E-026
  -1.4450000000000001E-002    -4.2576514235480947E-025
  -1.4400000000000000E-002    -7.7046718486905577E-025
  -1.4349999999999998E-002    -9.8118393619605232E-025
  -1.4300000000000000E-002    -9.6969765179124286E-025
  -1.4249999999999999E-002    -6.8792750823719101E-025
  -1.4200000000000001E-002    -1.5108782821983117E-025
  -1.4149999999999999E-002     5.5075887283901150E-025
  -1.4099999999999998E-002     1.2593477945561082E-024
  -1.4050000000000000E-002     1.7762765036836647E-024
  -1.3999999999999999E-002     1.9101800883604682E-024
  -1.3950000000000001E-002     1.5341255325166344E-024
  -1.3899999999999999E-002     6.3856090866220261E-025
  -1.3850000000000001E-002    -6.3755774626866809E-025
  -1.3800000000000000E-002    -2.0126566305524412E-024
  -1.3749999999999998E-002    -3.1128618395089074E-024
  -1.3700000000000000E-002    -3.5619070431908917E-024
  -1.3649999999999999E-002    -3.0920695710405728E-024
  -1.3600000000000001E-002    -1.6466447946223622E-024
  -1.3550000000000000E-002     5.5935111784725216E-025
  -1.3499999999999998E-002     3.0474548464421122E-024
  -1.3450000000000000E-002     5.1641515543806763E-024
  -1.3399999999999999E-002     6.2378854976457649E-024
  -1.3350000000000001E-002     5.7700565759737810E-024
  -1.3299999999999999E-002     3.6091548123298961E-024
  -1.3249999999999998E-002     5.4010943215334717E-026
  -1.3200000000000000E-002    -4.1550433115412857E-024
  -1.3149999999999998E-002    -7.9714438284793540E-024
  -1.3100000000000001E-002    -1.0283917323500410E-023
  -1.3049999999999999E-002    -1.0211371121432386E-023
  -1.3000000000000001E-002    -7.3770579543910382E-024
  -1.2950000000000000E-002    -2.0851664034329362E-024
  -1.2899999999999998E-002     4.6591735808521910E-024
  -1.2850000000000000E-002     1.1310705467295726E-023
  -1.2799999999999999E-002     1.6106157655280338E-023