  -4.0000000000000001E-002     0.0000000000000000     
  -3.9949999999999999E-002     0.0000000000000000     
  -3.9899999999999998E-002     0.0000000000000000     
  -3.9850000000000003E-002     0.0000000000000000     
  -3.9800000000000002E-002     0.0000000000000000     
  -3.9750000000000001E-002     0.0000000000000000     
  -3.9699999999999999E-002     0.0000000000000000     
  -3.9649999999999998E-002     0.0000000000000000     
  -3.9600000000000003E-002     0.0000000000000000     
  -3.9550000000000002E-002     0.0000000000000000     
  -3.9500000000000000E-002     0.0000000000000000     
  -3.9449999999999999E-002     0.0000000000000000     
  -3.9399999999999998E-002     0.0000000000000000     
  -3.9350000000000003E-002     0.0000000000000000     
  -3.9300000000000002E-002     0.0000000000000000     
  -3.9250000000000000E-002     0.0000000000000000     
  -3.9199999999999999E-002     0.0000000000000000     
  -3.9150000000000004E-002     0.0000000000000000     
  -3.9100000000000003E-002     0.0000000000000000     
  -3.9050000000000001E-002     0.0000000000000000     
  -3.9000000000000000E-002     0.0000000000000000     
  -3.8949999999999999E-002     0.0000000000000000     
  -3.8900000000000004E-002     0.0000000000000000     
  -3.8850000000000003E-002     0.0000000000000000     
  -3.8800000000000001E-002     0.0000000000000000     
  -3.8750000000000000E-002     0.0000000000000000     
  -3.8699999999999998E-002     0.0000000000000000     
  -3.8650000000000004E-002     0.0000000000000000     
  -3.8600000000000002E-002     0.0000000000000000     
  -3.8550000000000001E-002     0.0000000000000000     
  -3.8500000000000000E-002     0.0000000000000000     
  -3.8449999999999998E-002     0.0000000000000000     
  -3.8400000000000004E-002     0.0000000000000000     
  -3.8350000000000002E-002     0.0000000000000000     
  -3.8300000000000001E-002     0.0000000000000000     
  -3.8249999999999999E-002     0.0000000000000000     
  -3.8199999999999998E-002     0.0000000000000000     
  -3.8150000000000003E-002     0.0000000000000000     
  -3.8100000000000002E-002     0.0000000000000000     
  -3.8050000000000000E-002     0.0000000000000000     
  -3.7999999999999999E-002     0.0000000000000000     
  -3.7949999999999998E-002     0.0000000000000000     
  -3.7900000000000003E-002     0.0000000000000000     
  -3.7850000000000002E-002     0.0000000000000000     
  -3.7800000000000000E-002     0.0000000000000000     
  -3.7749999999999999E-002     0.0000000000000000     
  -3.7699999999999997E-002     0.0000000000000000     
  -3.7650000000000003E-002     0.0000000000000000     
  -3.7600000000000001E-002     0.0000000000000000     
  -3.7550000000000000E-002     0.0000000000000000     
  -3.7499999999999999E-002     0.0000000000000000     
  -3.7449999999999997E-002     0.0000000000000000     
  -3.7400000000000003E-002     0.0000000000000000     
  -3.7350000000000001E-002     0.0000000000000000     
  -3.7300000000000000E-002     0.0000000000000000     
  -3.7249999999999998E-002     0.0000000000000000     
  -3.7200000000000004E-002     0.0000000000000000     
  -3.7150000000000002E-002     0.0000000000000000     
  -3.7100000000000001E-002     0.0000000000000000     
  -3.7050000000000000E-002     0.0000000000000000     
  -3.6999999999999998E-002     0.0000000000000000     
  -3.6950000000000004E-002     0.0000000000000000     
  -3.6900000000000002E-002     0.0000000000000000     
  -3.6850000000000001E-002     0.0000000000000000     
  -3.6799999999999999E-002     0.0000000000000000     
  -3.6749999999999998E-002     0.0000000000000000     
  -3.6700000000000003E-002     0.0000000000000000     
  -3.6650000000000002E-002     0.0000000000000000     
  -3.6600000000000001E-002     0.0000000000000000     
  -3.6549999999999999E-002     0.0000000000000000     
  -3.6499999999999998E-002     0.0000000000000000     
  -3.6450000000000003E-002     0.0000000000000000     
  -3.6400000000000002E-002     0.0000000000000000     
  -3.6350000000000000E-002     0.0000000000000000     
  -3.6299999999999999E-002     0.0000000000000000     
  -3.6249999999999998E-002     0.0000000000000000     
  -3.6200000000000003E-002     0.0000000000000000     
  -3.6150000000000002E-002     0.0000000000000000     
  -3.6100000000000000E-002     0.0000000000000000     
  -3.6049999999999999E-002     0.0000000000000000     
  -3.6000000000000004E-002     0.0000000000000000     
  -3.5950000000000003E-002     0.0000000000000000     
  -3.5900000000000001E-002     0.0000000000000000     
  -3.5850000000000000E-002     0.0000000000000000     
  -3.5799999999999998E-002     0.0000000000000000     
  -3.5750000000000004E-002     0.0000000000000000     
  -3.5700000000000003E-002     0.0000000000000000     
  -3.5650000000000001E-002     0.0000000000000000     
  -3.5600000000000000E-002     0.0000000000000000     
  -3.5549999999999998E-002     0.0000000000000000     
  -3.5500000000000004E-002     0.0000000000000000     
  -3.5450000000000002E-002     0.0000000000000000     
  -3.5400000000000001E-002     0.0000000000000000     
  -3.5349999999999999E-002     0.0000000000000000     
  -3.5299999999999998E-002     0.0000000000000000     
  -3.5250000000000004E-002     0.0000000000000000     
  -3.5200000000000002E-002     0.0000000000000000     
  -3.5150000000000001E-002     0.0000000000000000     
  -3.5099999999999999E-002     0.0000000000000000     
  -3.5049999999999998E-002     0.0000000000000000     
  -3.5000000000000003E-002     0.0000000000000000     
  -3.4950000000000002E-002     0.0000000000000000     
  -3.4900000000000000E-002     0.0000000000000000     
  -3.4849999999999999E-002     0.0000000000000000     
  -3.4799999999999998E-002     0.0000000000000000     
  -3.4750000000000003E-002     0.0000000000000000     
  -3.4700000000000002E-002     0.0000000000000000     
  -3.4650000000000000E-002     0.0000000000000000     
  -3.4599999999999999E-002     0.0000000000000000     
  -3.4549999999999997E-002     0.0000000000000000     
  -3.4500000000000003E-002     0.0000000000000000     
  -3.4450000000000001E-002     0.0000000000000000     
  -3.4400000000000000E-002     0.0000000000000000     
  -3.4349999999999999E-002     0.0000000000000000     
  -3.4299999999999997E-002     2.2983537266028044E-039
  -3.4250000000000003E-002     4.4468267541970075E-039
  -3.4200000000000001E-002     0.0000000000000000     
  -3.4150000000000000E-002    -9.9697866874378615E-039
  -3.4099999999999998E-002    -1.3506404782445508E-038
  -3.4049999999999997E-002    -2.8785654443786363E-039
  -3.4000000000000002E-002     1.5488325973382505E-038
  -3.3950000000000001E-002     4.1073884113320195E-038
  -3.3900000000000000E-002     4.8476562748008830E-038
  -3.3849999999999998E-002    -4.4474748333681709E-039
  -3.3799999999999997E-002    -1.0693973978317007E-037
  -3.3750000000000002E-002    -1.4544200070924340E-037
  -3.3700000000000001E-002    -4.9216225940399865E-039
  -3.3649999999999999E-002     3.1032948949379128E-037
  -3.3599999999999998E-002     6.0367941844415378E-037
  -3.3550000000000003E-002     5.5343493567287453E-037
  -3.3500000000000002E-002    -1.5354406470974430E-037
  -3.3450000000000001E-002    -1.6221140099670978E-036
  -3.3399999999999999E-002    -3.3996117744729407E-036
  -3.3349999999999998E-002    -4.2581364061909435E-036
  -3.3300000000000003E-002    -2.3736281633965119E-036
  -3.3250000000000002E-002     3.7645034073082321E-036
  -3.3200000000000000E-002     1.3687198487303365E-035
  -3.3149999999999999E-002     2.3300710372494245E-035
  -3.3099999999999997E-002     2.4675301782359413E-035
  -3.3050000000000003E-002     8.7184620525890480E-036
  -3.3000000000000002E-002    -2.8888459716806115E-035
  -3.2950000000000000E-002    -8.0310571734570030E-035
  -3.2899999999999999E-002    -1.2108408426577926E-034
  -3.2850000000000004E-002    -1.1413021631862337E-034
  -3.2800000000000003E-002    -2.5896535207232617E-035
  -3.2750000000000001E-002     1.4780868022638607E-034
  -3.2700000000000000E-002     3.5751336322568051E-034
  -3.2649999999999998E-002     4.9548332285190155E-034
  -3.2600000000000004E-002     4.2760363629249109E-034
  -3.2550000000000003E-002     6.3913200424563225E-035
  -3.2500000000000001E-002    -5.5613349755494462E-034
  -3.2450000000000000E-002    -1.2134381671647830E-033
  -3.2399999999999998E-002    -1.5498115714165131E-033
  -3.2350000000000004E-002    -1.2235861678718493E-033
  -3.2300000000000002E-002    -1.3524457068110321E-034
  -3.2250000000000001E-002     1.4001709252589579E-033
  -3.2199999999999999E-002     2.6889282510100369E-033
  -3.2149999999999998E-002     2.9878823556473403E-033
  -3.2100000000000004E-002     2.0298465383585108E-033
  -3.2050000000000002E-002     4.2616308757096308E-034
  -3.2000000000000001E-002    -4.7683605484032503E-034
  -3.1949999999999999E-002     4.7128175734045559E-034
  -3.1899999999999998E-002     2.7864923043421432E-033
  -3.1850000000000003E-002     3.3522031219549501E-033
  -3.1800000000000002E-002    -2.8280453923023191E-033
  -3.1750000000000000E-002    -1.9295689988476152E-032
  -3.1699999999999999E-002    -4.2950432343816154E-032
  -3.1649999999999998E-002    -5.9928427475786917E-032
  -3.1600000000000003E-002    -4.6978736629768786E-032
  -3.1550000000000002E-002     1.8090393686730911E-032
  -3.1500000000000000E-002     1.3765019510072123E-031
  -3.1449999999999999E-002     2.7492267661247214E-031
  -3.1399999999999997E-002     3.4812601404150957E-031
  -3.1350000000000003E-002     2.5258492192594306E-031
  -3.1300000000000001E-002    -8.4409603964546002E-032
  -3.1250000000000000E-002    -6.3088352223583455E-031
  -3.1199999999999999E-002    -1.1967678459082137E-030
  -3.1150000000000001E-002    -1.4480313972354628E-030
  -3.1100000000000003E-002    -1.0220833205816869E-030
  -3.1050000000000001E-002     2.6736830077908112E-031
  -3.1000000000000000E-002     2.2120341484788932E-030
  -3.0949999999999998E-002     4.1045838793411631E-030
  -3.0900000000000000E-002     4.8732915300065286E-030
  -3.0850000000000002E-002     3.4994281993831706E-030
  -3.0800000000000001E-002    -3.8848609079152142E-031
  -3.0750000000000000E-002    -6.0056327043425881E-030
  -3.0699999999999998E-002    -1.1317207737442183E-029
  -3.0650000000000000E-002    -1.3588260721005638E-029
  -3.0600000000000002E-002    -1.0522869942861251E-029
  -3.0550000000000001E-002    -1.5761504884661029E-030
  -3.0499999999999999E-002     1.1225915578898564E-029
  -3.0449999999999998E-002     2.3558958046580636E-029
  -3.0400000000000000E-002     3.0310610430110048E-029
  -3.0350000000000002E-002     2.7780595931751068E-029
  -3.0300000000000001E-002     1.5458631510290410E-029
  -3.0249999999999999E-002    -3.7379050896711466E-030
  -3.0200000000000001E-002    -2.5120999883421302E-029
  -3.0150000000000000E-002    -4.4854014603350803E-029
  -3.0100000000000002E-002    -6.1543227960685645E-029
  -3.0050000000000000E-002    -7.4879147172660375E-029
  -2.9999999999999999E-002    -8.1141046407713957E-029
  -2.9950000000000001E-002    -6.8287705876640218E-029
  -2.9899999999999999E-002    -1.5798725559451721E-029
  -2.9850000000000002E-002     9.5824186028126129E-029
  -2.9800000000000000E-002     2.6543367360542428E-028
  -2.9749999999999999E-002     4.4895164765130769E-028
  -2.9700000000000001E-002     5.4962591270445759E-028
  -2.9650000000000003E-002     4.3792265516571928E-028
  -2.9600000000000001E-002     9.2905316464505990E-030
  -2.9550000000000000E-002    -7.3198244536537524E-028
  -2.9499999999999998E-002    -1.5990476452357766E-027
  -2.9450000000000000E-002    -2.2107926475778472E-027
  -2.9400000000000003E-002    -2.0863201728082453E-027
  -2.9350000000000001E-002    -8.5117289226721759E-028
  -2.9300000000000000E-002     1.5010329556844272E-027
  -2.9249999999999998E-002     4.4080315082765440E-027
  -2.9200000000000000E-002     6.7386298410613781E-027
  -2.9150000000000002E-002     7.0877128346313260E-027
  -2.9100000000000001E-002     4.3459534123266189E-027
  -2.9049999999999999E-002    -1.6291572089766883E-027
  -2.8999999999999998E-002    -9.5365500047396566E-027
  -2.8950000000000000E-002    -1.6659536307363477E-026
  -2.8900000000000002E-002    -1.9570286145830500E-026
  -2.8850000000000001E-002    -1.5410476934270407E-026
  -2.8799999999999999E-002    -3.3388630815467688E-027
  -2.8749999999999998E-002     1.4463480870209833E-026
  -2.8700000000000000E-002     3.2800454881573191E-026
  -2.8650000000000002E-002     4.4731266027720230E-026
  -2.8600000000000000E-002     4.3846725981047699E-026
  -2.8549999999999999E-002     2.6808489016699719E-026
  -2.8500000000000001E-002    -4.8152225983005239E-027
  -2.8450000000000000E-002    -4.4197872433873592E-026
  -2.8400000000000002E-002    -8.0616719097535370E-026
  -2.8350000000000000E-002    -1.0209219813261581E-025
  -2.8299999999999999E-002    -9.8428135849043816E-026
  -2.8250000000000001E-002    -6.3807295858771243E-026
  -2.8200000000000003E-002     1.4290209112708055E-027
  -2.8150000000000001E-002     8.9617225477933794E-026
  -2.8100000000000000E-002     1.8485536378287683E-025
  -2.8049999999999999E-002     2.6253442467126091E-025
  -2.8000000000000001E-002     2.9065354319749164E-025
  -2.7950000000000003E-002     2.3518985514406229E-025
  -2.7900000000000001E-002     7.1422553285479633E-026
  -2.7850000000000000E-002    -1.9935363980084723E-025
  -2.7799999999999998E-002    -5.3257922409871392E-025
  -2.7750000000000000E-002    -8.3188472389607528E-025
  -2.7700000000000002E-002    -9.6013474932587505E-025
  -2.7650000000000001E-002    -7.7712621566719245E-025
  -2.7600000000000000E-002    -2.0082596442248486E-025
  -2.7549999999999998E-002     7.2514126091502423E-025
  -2.7500000000000000E-002     1.7874226403448945E-024
  -2.7450000000000002E-002     2.6150462810176896E-024
  -2.7400000000000001E-002     2.7684254143182858E-024
  -2.7349999999999999E-002     1.8983811506612233E-024
  -2.7299999999999998E-002    -6.7452519753431603E-026
  -2.7250000000000000E-002    -2.7831337226256146E-024
  -2.7200000000000002E-002    -5.4671728457150252E-024
  -2.7150000000000001E-002    -7.0621313654622955E-024
  -2.7099999999999999E-002    -6.5641797688543318E-024
  -2.7049999999999998E-002    -3.4403703737810773E-024
  -2.7000000000000000E-002     2.0108747458732261E-024
  -2.6950000000000002E-002     8.5185779766262965E-024
  -2.6900000000000000E-002     1.4034379210503463E-023
  -2.6849999999999999E-002     1.6275976566547481E-023
  -2.6800000000000001E-002     1.3496919337972400E-023
  -2.6749999999999999E-002     5.2473719267723929E-024
  -2.6700000000000002E-002    -7.1528695144193303E-024
  -2.6650000000000000E-002    -2.0652721604904156E-023
  -2.6599999999999999E-002    -3.1097664626468450E-023
  -2.6550000000000001E-002    -3.4334567656619620E-023
  -2.6500000000000003E-002    -2.7511828114304387E-023
  -2.6450000000000001E-002    -1.0206435984053139E-023
  -2.6400000000000000E-002     1.4965184125987878E-023
  -2.6349999999999998E-002     4.2472697724391557E-023
  -2.6300000000000000E-002     6.4781778306375149E-023
  -2.6250000000000002E-002     7.3931861171593374E-023
  -2.6200000000000001E-002     6.3541728776429190E-023
  -2.6150000000000000E-002     3.0916975487132119E-023
  -2.6099999999999998E-002    -2.1146011650371194E-023
  -2.6050000000000000E-002    -8.3357406783067125E-023
  -2.6000000000000002E-002    -1.4030576849754095E-022
  -2.5950000000000001E-002    -1.7273613438585261E-022
  -2.5899999999999999E-002    -1.6197414829429176E-022
  -2.5849999999999998E-002    -9.6107380726600145E-023
  -2.5800000000000000E-002     2.3370810652095094E-023
  -2.5750000000000002E-002     1.7665776860370628E-022
  -2.5700000000000001E-002     3.2514033689829077E-022
  -2.5649999999999999E-002     4.1749076257552039E-022
  -2.5599999999999998E-002     4.0289721772270077E-022
  -2.5550000000000000E-002     2.4931436150052019E-022
  -2.5500000000000002E-002    -3.8283009289523490E-023
  -2.5450000000000000E-002    -4.0662946788332375E-022
  -2.5399999999999999E-002    -7.5670176593426907E-022
  -2.5349999999999998E-002    -9.6385718207053501E-022
  -2.5300000000000000E-002    -9.1380901897698995E-022
  -2.5250000000000002E-002    -5.4601741172664233E-022
  -2.5200000000000000E-002     1.0927870569276664E-022
  -2.5149999999999999E-002     9.1570319863686385E-022
  -2.5100000000000001E-002     1.6484734658030213E-021
  -2.5049999999999999E-002     2.0474460913220035E-021
  -2.5000000000000001E-002     1.8955079767068543E-021
  -2.4950000000000000E-002     1.1010831435650935E-021
  -2.4899999999999999E-002    -2.4242817426469492E-022
  -2.4850000000000001E-002    -1.8449620150735879E-021
  -2.4800000000000003E-002    -3.2690544015640841E-021
  -2.4750000000000001E-002    -4.0354715431812699E-021
  -2.4700000000000000E-002    -3.7617889354938685E-021
  -2.4649999999999998E-002    -2.2968069323006741E-021
  -2.4600000000000000E-002     1.8997895966790483E-022
  -2.4550000000000002E-002     3.1964069181957799E-021
  -2.4500000000000001E-002     5.9675105898963934E-021
  -2.4450000000000000E-002     7.6582452325421041E-021
  -2.4399999999999998E-002     7.5479657007649661E-021
  -2.4350000000000000E-002     5.2598041991924630E-021
  -2.4299999999999999E-002     9.3191124608400086E-022
  -2.4250000000000001E-002    -4.7086148897659377E-021
  -2.4199999999999999E-002    -1.0405196496118275E-020
  -2.4150000000000001E-002    -1.4579563075097402E-020
  -2.4100000000000000E-002    -1.5674253554091329E-020
  -2.4049999999999998E-002    -1.2581488953972548E-020
  -2.4000000000000000E-002    -5.0729730708863493E-021
  -2.3949999999999999E-002     5.8858404396240469E-021
  -2.3900000000000001E-002     1.8064780249764285E-020
  -2.3850000000000000E-002     2.8245691239188688E-020
  -2.3800000000000002E-002     3.2882863504100380E-020
  -2.3750000000000000E-002     2.9073170878253559E-020
  -2.3699999999999999E-002     1.5632013214535140E-020
  -2.3650000000000001E-002    -6.0370820629619875E-021
  -2.3599999999999999E-002    -3.1629212928836878E-020
  -2.3550000000000001E-002    -5.4457405733764238E-020
  -2.3500000000000000E-002    -6.6883951849310291E-020
  -2.3449999999999999E-002    -6.2456368671232469E-020
  -2.3400000000000001E-002    -3.8241003325178024E-020
  -2.3349999999999999E-002     3.3586343485711935E-021
  -2.3300000000000001E-002     5.4025225611432566E-020
  -2.3250000000000000E-002     1.0068501602168026E-019
  -2.3199999999999998E-002     1.2843386494195755E-019
  -2.3150000000000000E-002     1.2469459049789091E-019
  -2.3099999999999999E-002     8.3554429098592389E-020
  -2.3050000000000001E-002     8.9620369646755047E-021
  -2.3000000000000000E-002    -8.4427671208429995E-020
  -2.2950000000000002E-002    -1.7345732116383307E-019
  -2.2900000000000000E-002    -2.3159972463014928E-019
  -2.2849999999999999E-002    -2.3599838146093149E-019
  -2.2800000000000001E-002    -1.7467710561451624E-019
  -2.2749999999999999E-002    -5.1885003147569474E-020
  -2.2700000000000001E-002     1.1020432506063917E-019
  -2.2650000000000000E-002     2.7444258479396731E-019
  -2.2599999999999999E-002     3.9618410941888004E-019
  -2.2550000000000001E-002     4.3396992667934432E-019
  -2.2499999999999999E-002     3.6112439002274318E-019
  -2.2450000000000001E-002     1.7545685437440508E-019
  -2.2400000000000000E-002    -9.5649798349374845E-020
  -2.2349999999999998E-002    -3.9677872979028235E-019
  -2.2300000000000000E-002    -6.5343138798327319E-019
  -2.2249999999999999E-002    -7.8759190474205281E-019
  -2.2200000000000001E-002    -7.3739555828803818E-019
  -2.2150000000000000E-002    -4.7687138125338114E-019
  -2.2100000000000002E-002    -3.0754220798894910E-020
  -2.2050000000000000E-002     5.2066611062288542E-019
  -2.1999999999999999E-002     1.0504356669502141E-018
  -2.1950000000000001E-002     1.4086896964701458E-018
  -2.1899999999999999E-002     1.4585768685787146E-018
  -2.1850000000000001E-002     1.1174370962956263E-018
  -2.1800000000000000E-002     3.9282239765519253E-019
  -2.1749999999999999E-002    -5.9841921346807765E-019
  -2.1700000000000001E-002    -1.6379271675780199E-018
  -2.1649999999999999E-002    -2.4449222048372536E-018
  -2.1600000000000001E-002    -2.7426621680562276E-018
  -2.1550000000000000E-002    -2.3389647442792592E-018
  -2.1499999999999998E-002    -1.1999981419142969E-018
  -2.1450000000000000E-002     5.0622614200096189E-019
  -2.1399999999999999E-002     2.4161867152511846E-018
  -2.1350000000000001E-002     4.0355409001613184E-018
  -2.1299999999999999E-002     4.8547420923824502E-018
  -2.1250000000000002E-002     4.4913882532885591E-018
  -2.1200000000000000E-002     2.8225864027739962E-018
  -2.1149999999999999E-002     6.7062244525925228E-020
  -2.1100000000000001E-002    -3.2153364519283449E-018
  -2.1049999999999999E-002    -6.2203225168865427E-018
  -2.1000000000000001E-002    -8.0800892109317192E-018
  -2.0950000000000000E-002    -8.0908570444165991E-018
  -2.0899999999999998E-002    -5.9311154856224693E-018
  -2.0850000000000000E-002    -1.8096136248233519E-018
  -2.0799999999999999E-002     3.5067210644494912E-018
  -2.0750000000000001E-002     8.8090005084887970E-018
  -2.0700000000000000E-002     1.2695907114302015E-017
  -2.0649999999999998E-002     1.3910014383587766E-017
  -2.0600000000000000E-002     1.1686607488373445E-017
  -2.0549999999999999E-002     6.0284281607729459E-018
  -2.0500000000000001E-002    -2.1730102443885018E-018
  -2.0449999999999999E-002    -1.1222112308917874E-017
  -2.0400000000000001E-002    -1.8920044815981987E-017
  -2.0350000000000000E-002    -2.3041385765026740E-017
  -2.0299999999999999E-002    -2.1897630001276085E-017
  -2.0250000000000001E-002    -1.4862516326650298E-017
  -2.0199999999999999E-002    -2.7211414546830693E-018
  -2.0150000000000001E-002     1.2277781036093002E-017
  -2.0100000000000000E-002     2.6736530096921297E-017
  -2.0049999999999998E-002     3.6780613640847643E-017
  -2.0000000000000000E-002     3.8984785902083167E-017
  -1.9949999999999999E-002     3.1359787348349041E-017
  -1.9900000000000001E-002     1.4149038357906542E-017
  -1.9850000000000000E-002    -9.8179256548537468E-018
  -1.9799999999999998E-002    -3.5400657127777915E-017
  -1.9750000000000000E-002    -5.6101819592155776E-017
  -1.9699999999999999E-002    -6.5570592498630306E-017
  -1.9650000000000001E-002    -5.9345352172212188E-017
  -1.9599999999999999E-002    -3.6396636569930107E-017
  -1.9550000000000001E-002    -4.2167018910737309E-021
  -1.9500000000000000E-002     4.2395291422379142E-017
  -1.9449999999999999E-002     8.0526792391164605E-017
  -1.9400000000000001E-002     1.0359086996816933E-016
  -1.9349999999999999E-002     1.0309394687325079E-016
  -1.9300000000000001E-002     7.5493701846947114E-017
  -1.9250000000000000E-002     2.3903228798618732E-017
  -1.9199999999999998E-002    -4.1750510277138430E-017
  -1.9150000000000000E-002    -1.0637616714768810E-016
  -1.9099999999999999E-002    -1.5297651110105499E-016
  -1.9050000000000001E-002    -1.6685487654158673E-016
  -1.9000000000000000E-002    -1.3977196803188729E-016
  -1.8949999999999998E-002    -7.2950860250149359E-017
  -1.8900000000000000E-002     2.1993745650497986E-017
  -1.8849999999999999E-002     1.2468676219155968E-016
  -1.8800000000000001E-002     2.1006321172213514E-016
  -1.8749999999999999E-002     2.5412422662303093E-016
  -1.8700000000000001E-002     2.4012408967748038E-016
  -1.8650000000000000E-002     1.6369735437591043E-016
  -1.8599999999999998E-002     3.5538612723883468E-017
  -1.8550000000000001E-002    -1.1930719974337257E-016
  -1.8499999999999999E-002    -2.6577630023493286E-016
  -1.8450000000000001E-002    -3.6613371629192521E-016
  -1.8400000000000000E-002    -3.8894287921516647E-016
  -1.8349999999999998E-002    -3.1770019015010414E-016
  -1.8300000000000000E-002    -1.5699811244854047E-016
  -1.8249999999999999E-002     6.5631012486570687E-017
  -1.8200000000000001E-002     3.0327037750603249E-016
  -1.8149999999999999E-002     4.9850884222673306E-016
  -1.8100000000000002E-002     5.9628000066518428E-016
  -1.8050000000000000E-002     5.5805975900507569E-016
  -1.7999999999999999E-002     3.7405514127655419E-016
  -1.7950000000000001E-002     6.9962475041719012E-017
  -1.7899999999999999E-002    -2.9430836392575944E-016
  -1.7850000000000001E-002    -6.3489903017866082E-016
  -1.7800000000000000E-002    -8.6201278932745315E-016
  -1.7749999999999998E-002    -9.0216793236146045E-016
  -1.7700000000000000E-002    -7.1949796289058281E-016
  -1.7649999999999999E-002    -3.3032978620074927E-016
  -1.7600000000000001E-002     1.9381235919734710E-016
  -1.7550000000000000E-002     7.3723395675417346E-016
  -1.7499999999999998E-002     1.1641587352185847E-015
  -1.7450000000000000E-002     1.3512508915251841E-015
  -1.7399999999999999E-002     1.2210536474771922E-015
  -1.7350000000000001E-002     7.6761934312305670E-016
  -1.7299999999999999E-002     6.6632723934156386E-017
  -1.7250000000000001E-002    -7.3443299590602454E-016
  -1.7200000000000000E-002    -1.4457913700426590E-015
  -1.7149999999999999E-002    -1.8788965401235649E-015
  -1.7100000000000001E-002    -1.8942923887244350E-015
  -1.7049999999999999E-002    -1.4419154472782626E-015
  -1.7000000000000001E-002    -5.8289037200302357E-016
  -1.6950000000000000E-002     5.1439233190664568E-016
  -1.6899999999999998E-002     1.6052403089530202E-015
  -1.6850000000000000E-002     2.4213581047433275E-015
  -1.6799999999999999E-002     2.7342156014858026E-015
  -1.6750000000000001E-002     2.4145865687571176E-015
  -1.6700000000000000E-002     1.4735824198227036E-015
  -1.6649999999999998E-002     7.3791421701343121E-017
  -1.6600000000000000E-002    -1.4947304006086366E-015
  -1.6549999999999999E-002    -2.8711078219263674E-015
  -1.6500000000000001E-002    -3.7026723429351481E-015
  -1.6449999999999999E-002    -3.7300541066991819E-015
  -1.6400000000000001E-002    -2.8590767763106211E-015
  -1.6350000000000000E-002    -1.2012606945561009E-015
  -1.6299999999999999E-002     9.3003136380276750E-016
  -1.6250000000000001E-002     3.0720030106028495E-015
  -1.6199999999999999E-002     4.7067633038892020E-015
  -1.6150000000000001E-002     5.3802286330824051E-015
  -1.6100000000000000E-002     4.8200463046345221E-015
  -1.6049999999999998E-002     3.0237273043767715E-015
  -1.6000000000000000E-002     2.9144195576236100E-016
  -1.5949999999999999E-002    -2.8119165122881407E-015
  -1.5900000000000001E-002    -5.5652371751856286E-015
  -1.5850000000000000E-002    -7.2521551557297010E-015
  -1.5799999999999998E-002    -7.3404206834459055E-015
  -1.5750000000000000E-002    -5.6362240589380315E-015
  -1.5699999999999999E-002    -2.3708341125104015E-015
  -1.5650000000000001E-002     1.8108745159973191E-015
  -1.5599999999999999E-002     5.9684344987992841E-015
  -1.5550000000000001E-002     9.0717761680356353E-015
  -1.5500000000000000E-002     1.0251383981047772E-014
  -1.5449999999999998E-002     9.0325431236900169E-015
  -1.5400000000000000E-002     5.4917036456041545E-015
  -1.5349999999999999E-002     2.8755700673777225E-016
  -1.5300000000000001E-002    -5.4521430140472987E-015
  -1.5250000000000000E-002    -1.0371108785878088E-014
  -1.5199999999999998E-002    -1.3201385461908210E-014
  -1.5150000000000000E-002    -1.3082398217007035E-014
  -1.5099999999999999E-002    -9.8026360193066498E-015
  -1.5050000000000001E-002    -3.8991039214824715E-015
  -1.4999999999999999E-002     3.4186292047544365E-015
  -1.4949999999999998E-002     1.0511622655556989E-014
  -1.4900000000000000E-002     1.5672956346708579E-014
  -1.4849999999999999E-002     1.7527954794823376E-014
  -1.4800000000000001E-002     1.5381256062584773E-014
  -1.4749999999999999E-002     9.4272210681824432E-015
  -1.4700000000000001E-002     7.6766619913188697E-016
  -1.4650000000000000E-002    -8.7782579070145697E-015
  -1.4599999999999998E-002    -1.7041884668113498E-014
  -1.4550000000000000E-002    -2.1979582741119805E-014
  -1.4499999999999999E-002    -2.2155308208886461E-014
  -1.4450000000000001E-002    -1.7123653249115476E-014
  -1.4400000000000000E-002    -7.6189294673947350E-015
  -1.4349999999999998E-002     4.5100199896950065E-015
  -1.4300000000000000E-002     1.6629216063820239E-014
  -1.4249999999999999E-002     2.5864531161808424E-014
  -1.4200000000000001E-002     2.9758617625018295E-014
  -1.4149999999999999E-002     2.6897369663336207E-014
  -1.4099999999999998E-002     1.7352735489642553E-014
  -1.4050000000000000E-002     2.8134434739901811E-015
  -1.3999999999999999E-002    -1.3664687902092609E-014
  -1.3950000000000001E-002    -2.8270913998647812E-014
  -1.3899999999999999E-002    -3.7302294019241333E-014
  -1.3850000000000001E-002    -3.8087211899497589E-014
  -1.3800000000000000E-002    -2.9741787648828264E-014
  -1.3749999999999998E-002    -1.3548882256596544E-014
  -1.3700000000000000E-002     7.1743581316487308E-015
  -1.3649999999999999E-002     2.7733998794582222E-014
  -1.3600000000000001E-002     4.3118706523783531E-014
  -1.3550000000000000E-002     4.9221528692587557E-014
  -1.3499999999999998E-002     4.3922799506595409E-014
  -1.3450000000000000E-002     2.7747565038298160E-014
  -1.3399999999999999E-002     3.9028947680601174E-015
  -1.3350000000000001E-002    -2.2350123268207051E-014
  -1.3299999999999999E-002    -4.4866231363632489E-014
  -1.3249999999999998E-002    -5.8060804323078288E-014
  -1.3200000000000000E-002    -5.8283863432172535E-014
  -1.3149999999999998E-002    -4.4784846941245631E-014
  -1.3100000000000001E-002    -2.0021914114940097E-014
  -1.3049999999999999E-002     1.0776546995539291E-014
  -1.3000000000000001E-002     4.0714563350487811E-014
  -1.2950000000000000E-002     6.2756182635038048E-014
  -1.2899999999999998E-002     7.1339855278673429E-014
  -1.2850000000000000E-002     6.3719374119393749E-014
  -1.2799999999999999E-002     4.0726908289766112E-014