  -4.0000000000000001E-002     0.0000000000000000     
  -3.9949999999999999E-002     0.0000000000000000     
  -3.9899999999999998E-002     0.0000000000000000     
  -3.9850000000000003E-002     0.0000000000000000     
  -3.9800000000000002E-002     0.0000000000000000     
  -3.9750000000000001E-002     0.0000000000000000     
  -3.9699999999999999E-002     0.0000000000000000     
  -3.9649999999999998E-002     0.0000000000000000     
  -3.9600000000000003E-002     0.0000000000000000     
  -3.9550000000000002E-002     0.0000000000000000     
  -3.9500000000000000E-002     0.0000000000000000     
  -3.9449999999999999E-002     0.0000000000000000     
  -3.9399999999999998E-002     0.0000000000000000     
  -3.9350000000000003E-002     0.0000000000000000     
  -3.9300000000000002E-002     0.0000000000000000     
  -3.9250000000000000E-002     0.0000000000000000     
  -3.9199999999999999E-002     0.0000000000000000     
  -3.9150000000000004E-002     0.0000000000000000     
  -3.9100000000000003E-002     0.0000000000000000     
  -3.9050000000000001E-002     0.0000000000000000     
  -3.9000000000000000E-002     0.0000000000000000     
  -3.8949999999999999E-002     0.0000000000000000     
  -3.8900000000000004E-002     0.0000000000000000     
  -3.8850000000000003E-002     0.0000000000000000     
  -3.8800000000000001E-002     0.0000000000000000     
  -3.8750000000000000E-002     0.0000000000000000     
  -3.8699999999999998E-002     0.0000000000000000     
  -3.8650000000000004E-002     0.0000000000000000     
  -3.8600000000000002E-002     0.0000000000000000     
  -3.8550000000000001E-002     0.0000000000000000     
  -3.8500000000000000E-002     0.0000000000000000     
  -3.8449999999999998E-002     0.0000000000000000     
  -3.8400000000000004E-002     0.0000000000000000     
  -3.8350000000000002E-002     0.0000000000000000     
  -3.8300000000000001E-002     0.0000000000000000     
  -3.8249999999999999E-002     0.0000000000000000     
  -3.8199999999999998E-002     0.0000000000000000     
  -3.8150000000000003E-002     0.0000000000000000     
  -3.8100000000000002E-002     0.0000000000000000     
  -3.8050000000000000E-002     0.0000000000000000     
  -3.7999999999999999E-002     0.0000000000000000     
  -3.7949999999999998E-002     0.0000000000000000     
  -3.7900000000000003E-002     0.0000000000000000     
  -3.7850000000000002E-002     0.0000000000000000     
  -3.7800000000000000E-002     0.0000000000000000     
  -3.7749999999999999E-002     0.0000000000000000     
  -3.7699999999999997E-002     0.0000000000000000     
  -3.7650000000000003E-002     0.0000000000000000     
  -3.7600000000000001E-002     0.0000000000000000     
  -3.7550000000000000E-002     0.0000000000000000     
  -3.7499999999999999E-002     0.0000000000000000     
  -3.7449999999999997E-002     0.0000000000000000     
  -3.7400000000000003E-002     0.0000000000000000     
  -3.7350000000000001E-002     0.0000000000000000     
  -3.7300000000000000E-002     0.0000000000000000     
  -3.7249999999999998E-002     0.0000000000000000     
  -3.7200000000000004E-002     0.0000000000000000     
  -3.7150000000000002E-002     0.0000000000000000     
  -3.7100000000000001E-002     0.0000000000000000     
  -3.7050000000000000E-002     0.0000000000000000     
  -3.6999999999999998E-002     0.0000000000000000     
  -3.6950000000000004E-002     0.0000000000000000     
  -3.6900000000000002E-002     0.0000000000000000     
  -3.6850000000000001E-002     0.0000000000000000     
  -3.6799999999999999E-002     0.0000000000000000     
  -3.6749999999999998E-002     0.0000000000000000     
  -3.6700000000000003E-002     0.0000000000000000     
  -3.6650000000000002E-002     0.0000000000000000     
  -3.6600000000000001E-002     0.0000000000000000     
  -3.6549999999999999E-002     0.0000000000000000     
  -3.6499999999999998E-002     0.0000000000000000     
  -3.6450000000000003E-002     0.0000000000000000     
  -3.6400000000000002E-002     0.0000000000000000     
  -3.6350000000000000E-002     0.0000000000000000     
  -3.6299999999999999E-002     0.0000000000000000     
  -3.6249999999999998E-002     0.0000000000000000     
  -3.6200000000000003E-002     0.0000000000000000     
  -3.6150000000000002E-002     0.0000000000000000     
  -3.6100000000000000E-002     0.0000000000000000     
  -3.6049999999999999E-002     0.0000000000000000     
  -3.6000000000000004E-002     0.0000000000000000     
  -3.5950000000000003E-002     0.0000000000000000     
  -3.5900000000000001E-002     0.0000000000000000     
  -3.5850000000000000E-002     0.0000000000000000     
  -3.5799999999999998E-002     0.0000000000000000     
  -3.5750000000000004E-002     0.0000000000000000     
  -3.5700000000000003E-002     0.0000000000000000     
  -3.5650000000000001E-002     0.0000000000000000     
  -3.5600000000000000E-002     0.0000000000000000     
  -3.5549999999999998E-002     0.0000000000000000     
  -3.5500000000000004E-002     0.0000000000000000     
  -3.5450000000000002E-002     0.0000000000000000     
  -3.5400000000000001E-002     0.0000000000000000     
  -3.5349999999999999E-002     0.0000000000000000     
  -3.5299999999999998E-002     0.0000000000000000     
  -3.5250000000000004E-002     0.0000000000000000     
  -3.5200000000000002E-002     0.0000000000000000     
  -3.5150000000000001E-002     0.0000000000000000     
  -3.5099999999999999E-002     0.0000000000000000     
  -3.5049999999999998E-002     0.0000000000000000     
  -3.5000000000000003E-002     0.0000000000000000     
  -3.4950000000000002E-002     0.0000000000000000     
  -3.4900000000000000E-002     0.0000000000000000     
  -3.4849999999999999E-002     0.0000000000000000     
  -3.4799999999999998E-002     0.0000000000000000     
  -3.4750000000000003E-002     0.0000000000000000     
  -3.4700000000000002E-002     0.0000000000000000     
  -3.4650000000000000E-002     0.0000000000000000     
  -3.4599999999999999E-002     0.0000000000000000     
  -3.4549999999999997E-002     0.0000000000000000     
  -3.4500000000000003E-002     0.0000000000000000     
  -3.4450000000000001E-002     0.0000000000000000     
  -3.4400000000000000E-002     0.0000000000000000     
  -3.4349999999999999E-002     0.0000000000000000     
  -3.4299999999999997E-002     0.0000000000000000     
  -3.4250000000000003E-002     0.0000000000000000     
  -3.4200000000000001E-002     0.0000000000000000     
  -3.4150000000000000E-002     0.0000000000000000     
  -3.4099999999999998E-002     0.0000000000000000     
  -3.4049999999999997E-002     0.0000000000000000     
  -3.4000000000000002E-002     0.0000000000000000     
  -3.3950000000000001E-002     0.0000000000000000     
  -3.3900000000000000E-002     0.0000000000000000     
  -3.3849999999999998E-002     0.0000000000000000     
  -3.3799999999999997E-002     0.0000000000000000     
  -3.3750000000000002E-002     0.0000000000000000     
  -3.3700000000000001E-002     0.0000000000000000     
  -3.3649999999999999E-002     0.0000000000000000     
  -3.3599999999999998E-002     0.0000000000000000     
  -3.3550000000000003E-002     0.0000000000000000     
  -3.3500000000000002E-002     0.0000000000000000     
  -3.3450000000000001E-002     0.0000000000000000     
  -3.3399999999999999E-002     0.0000000000000000     
  -3.3349999999999998E-002     0.0000000000000000     
  -3.3300000000000003E-002     0.0000000000000000     
  -3.3250000000000002E-002     0.0000000000000000     
  -3.3200000000000000E-002     0.0000000000000000     
  -3.3149999999999999E-002     0.0000000000000000     
  -3.3099999999999997E-002     0.0000000000000000     
  -3.3050000000000003E-002     0.0000000000000000     
  -3.3000000000000002E-002     0.0000000000000000     
  -3.2950000000000000E-002     0.0000000000000000     
  -3.2899999999999999E-002     0.0000000000000000     
  -3.2850000000000004E-002     0.0000000000000000     
  -3.2800000000000003E-002     0.0000000000000000     
  -3.2750000000000001E-002     0.0000000000000000     
  -3.2700000000000000E-002     0.0000000000000000     
  -3.2649999999999998E-002     0.0000000000000000     
  -3.2600000000000004E-002     0.0000000000000000     
  -3.2550000000000003E-002     0.0000000000000000     
  -3.2500000000000001E-002     0.0000000000000000     
  -3.2450000000000000E-002     0.0000000000000000     
  -3.2399999999999998E-002     0.0000000000000000     
  -3.2350000000000004E-002     0.0000000000000000     
  -3.2300000000000002E-002     0.0000000000000000     
  -3.2250000000000001E-002     0.0000000000000000     
  -3.2199999999999999E-002     0.0000000000000000     
  -3.2149999999999998E-002     0.0000000000000000     
  -3.2100000000000004E-002     0.0000000000000000     
  -3.2050000000000002E-002     0.0000000000000000     
  -3.2000000000000001E-002     0.0000000000000000     
  -3.1949999999999999E-002     0.0000000000000000     
  -3.1899999999999998E-002     0.0000000000000000     
  -3.1850000000000003E-002     0.0000000000000000     
  -3.1800000000000002E-002     0.0000000000000000     
  -3.1750000000000000E-002     0.0000000000000000     
  -3.1699999999999999E-002     0.0000000000000000     
  -3.1649999999999998E-002     2.2372497015601562E-039
  -3.1600000000000003E-002     5.1977545363070187E-039
  -3.1550000000000002E-002     2.0559887010618082E-039
  -3.1500000000000000E-002    -8.6456233692418701E-039
  -3.1449999999999999E-002    -1.6259246466949491E-038
  -3.1399999999999997E-002    -7.9138491352294142E-039
  -3.1350000000000003E-002     1.9468084669180604E-038
  -3.1300000000000001E-002     4.7132402246976527E-038
  -3.1250000000000000E-002     5.9377221979547261E-038
  -3.1199999999999999E-002     4.4474125868640603E-039
  -3.1150000000000001E-002    -1.2323015643177872E-037
  -3.1100000000000003E-002    -2.5755516650844603E-037
  -3.1050000000000001E-002    -2.7893517740670677E-037
  -3.1000000000000000E-002    -1.2115687856201618E-037
  -3.0949999999999998E-002     2.2990052086440582E-037
  -3.0900000000000000E-002     7.0816162341742626E-037
  -3.0850000000000002E-002     1.1480047743051350E-036
  -3.0800000000000001E-002     1.2074595022696447E-036
  -3.0750000000000000E-002     4.8473287910809503E-037
  -3.0699999999999998E-002    -1.1882163762057967E-036
  -3.0650000000000000E-002    -3.4170921877318730E-036
  -3.0600000000000002E-002    -5.0842364754057082E-036
  -3.0550000000000001E-002    -4.6710367986442916E-036
  -3.0499999999999999E-002    -1.0222358326897568E-036
  -3.0449999999999998E-002     5.6602950472239095E-036
  -3.0400000000000000E-002     1.3134374467735463E-035
  -3.0350000000000002E-002     1.7365558345856618E-035
  -3.0300000000000001E-002     1.4032312253679792E-035
  -3.0249999999999999E-002     1.0317221797222014E-036
  -3.0200000000000001E-002    -1.9104399744304970E-035
  -3.0150000000000000E-002    -3.8482429823702628E-035
  -3.0100000000000002E-002    -4.6127850594829655E-035
  -3.0050000000000000E-002    -3.3250233090004103E-035
  -2.9999999999999999E-002     5.8187059053674777E-037
  -2.9950000000000001E-002     4.4075418627829663E-035
  -2.9899999999999999E-002     7.7192919641924561E-035
  -2.9850000000000002E-002     8.1158032271921928E-035
  -2.9800000000000000E-002     5.1350230759050810E-035
  -2.9749999999999999E-002     4.7325684760872452E-036
  -2.9700000000000001E-002    -2.6639815953115783E-035
  -2.9650000000000003E-002    -1.8045250878839831E-035
  -2.9600000000000001E-002     1.9299119464282708E-035
  -2.9550000000000000E-002     2.4359819573990376E-035
  -2.9499999999999998E-002    -9.0514303532220556E-035
  -2.9450000000000000E-002    -3.7246854431941898E-034
  -2.9400000000000003E-002    -7.4149751638396869E-034
  -2.9350000000000001E-002    -9.4186505178858507E-034
  -2.9300000000000000E-002    -6.0032338760304327E-034
  -2.9249999999999998E-002     5.7362194680864157E-034
  -2.9200000000000000E-002     2.4922942137660172E-033
  -2.9150000000000002E-002     4.4483413200462566E-033
  -2.9100000000000001E-002     5.1381638971643017E-033
  -2.9049999999999999E-002     3.1148692722283887E-033
  -2.8999999999999998E-002    -2.3527968213023689E-033
  -2.8950000000000000E-002    -1.0325105983381426E-032
  -2.8900000000000002E-002    -1.7698668233264587E-032
  -2.8850000000000001E-002    -1.9764286642505072E-032
  -2.8799999999999999E-002    -1.2072179520093629E-032
  -2.8749999999999998E-002     6.8090773827890502E-033
  -2.8700000000000000E-002     3.2816175785649625E-032
  -2.8650000000000002E-002     5.5800020214323634E-032
  -2.8600000000000000E-002     6.2088579834663684E-032
  -2.8549999999999999E-002     4.0225164289377184E-032
  -2.8500000000000001E-002    -1.1916476996638932E-032
  -2.8450000000000000E-002    -8.1993537897592622E-032
  -2.8400000000000002E-002    -1.4364151735140149E-031
  -2.8350000000000000E-002    -1.6440080641739177E-031
  -2.8299999999999999E-002    -1.1957553054017415E-031
  -2.8250000000000001E-002    -6.6922597629720641E-033
  -2.8200000000000003E-002     1.4680357054998136E-031
  -2.8150000000000001E-002     2.8846080267045691E-031
  -2.8100000000000000E-002     3.5887991991209123E-031
  -2.8049999999999999E-002     3.1634030764503673E-031
  -2.8000000000000001E-002     1.5631832171111608E-031
  -2.7950000000000003E-002    -8.5094574633536538E-032
  -2.7900000000000001E-002    -3.4708070994576554E-031
  -2.7850000000000000E-002    -5.7061473825086094E-031
  -2.7799999999999998E-002    -7.1784557201781366E-031
  -2.7750000000000000E-002    -7.6789289921149916E-031
  -2.7700000000000002E-002    -6.8758014522733837E-031
  -2.7650000000000001E-002    -3.9893898737594960E-031
  -2.7600000000000000E-002     2.1713254143612543E-031
  -2.7549999999999998E-002     1.2468380924231246E-030
  -2.7500000000000000E-002     2.6019228075884931E-030
  -2.7450000000000002E-002     3.8732898230528389E-030
  -2.7400000000000001E-002     4.2946472003987738E-030
  -2.7349999999999999E-002     2.9335262920797294E-030
  -2.7299999999999998E-002    -8.5142017985297503E-031
  -2.7250000000000000E-002    -6.8012393406420460E-030
  -2.7200000000000002E-002    -1.3280340086562027E-029
  -2.7150000000000001E-002    -1.7306136038189300E-029
  -2.7099999999999999E-002    -1.5366423437299948E-029
  -2.7049999999999998E-002    -4.9987522751375361E-030
  -2.7000000000000000E-002     1.3342022867533350E-029
  -2.6950000000000002E-002     3.4997808617921217E-029
  -2.6900000000000000E-002     5.1368587860092006E-029
  -2.6849999999999999E-002     5.2297445462802804E-029
  -2.6800000000000001E-002     3.0292586446442627E-029
  -2.6749999999999999E-002    -1.4764334260811848E-029
  -2.6700000000000002E-002    -7.2549751408209643E-029
  -2.6650000000000000E-002    -1.2297346881127230E-028
  -2.6599999999999999E-002    -1.4161346301686192E-028
  -2.6550000000000001E-002    -1.0897606014317544E-028
  -2.6500000000000003E-002    -2.0545568796610760E-029
  -2.6450000000000001E-002     1.0666274354572558E-028
  -2.6400000000000000E-002     2.3488518702995265E-028
  -2.6349999999999998E-002     3.1521054853114514E-028
  -2.6300000000000000E-002     3.0391760380180917E-028
  -2.6250000000000002E-002     1.8015521557701802E-028
  -2.6200000000000001E-002    -4.1859168643238025E-029
  -2.6150000000000000E-002    -3.1152002629716286E-028
  -2.6099999999999998E-002    -5.5283376383664574E-028
  -2.6050000000000000E-002    -6.8438092091431642E-028
  -2.6000000000000002E-002    -6.4158208944668261E-028
  -2.5950000000000001E-002    -3.9455554665102289E-028
  -2.5899999999999999E-002     4.1938604926124514E-029
  -2.5849999999999998E-002     6.0559038909672384E-028
  -2.5800000000000000E-002     1.1874644763677770E-027
  -2.5750000000000002E-002     1.6357000182023236E-027
  -2.5700000000000001E-002     1.7670916352121372E-027
  -2.5649999999999999E-002     1.3976566296627266E-027
  -2.5599999999999998E-002     4.0273109476034244E-028
  -2.5550000000000000E-002    -1.1950086722510147E-027
  -2.5500000000000002E-002    -3.1341397953450618E-027
  -2.5450000000000000E-002    -4.8688480656531243E-027
  -2.5399999999999999E-002    -5.6287357247362090E-027
  -2.5349999999999998E-002    -4.6245144831681683E-027
  -2.5300000000000000E-002    -1.3851536818284770E-027
  -2.5250000000000002E-002     3.8662129255684573E-027
  -2.5200000000000000E-002     9.9603143474074184E-027
  -2.5149999999999999E-002     1.4836272153897483E-026
  -2.5100000000000001E-002     1.6021611975607773E-026
  -2.5049999999999999E-002     1.1506009457688629E-026
  -2.5000000000000001E-002     7.7893760206803102E-028
  -2.4950000000000000E-002    -1.4365373565083225E-026
  -2.4899999999999999E-002    -2.9696043825982603E-026
  -2.4850000000000001E-002    -3.9384357178533506E-026
  -2.4800000000000003E-002    -3.7786516217665199E-026
  -2.4750000000000001E-002    -2.1729337490388194E-026
  -2.4700000000000000E-002     7.4864546273044174E-027
  -2.4649999999999998E-002     4.3253349654248264E-026
  -2.4600000000000000E-002     7.4637654804151864E-026
  -2.4550000000000002E-002     8.9246106833482872E-026
  -2.4500000000000001E-002     7.7327041483677035E-026
  -2.4450000000000000E-002     3.5846780441468009E-026
  -2.4399999999999998E-002    -2.8939811278650242E-026
  -2.4350000000000000E-002    -1.0159454611370473E-025
  -2.4299999999999999E-002    -1.6066055773249561E-025
  -2.4250000000000001E-002    -1.8426707138013184E-025
  -2.4199999999999999E-002    -1.5670395895398885E-025
  -2.4150000000000001E-002    -7.4114511547639376E-026
  -2.4100000000000000E-002     5.2332960246491480E-026
  -2.4049999999999998E-002     1.9675464980777707E-025
  -2.4000000000000000E-002     3.2246507843378200E-025
  -2.3949999999999999E-002     3.8894565877603047E-025
  -2.3900000000000001E-002     3.6094841915692355E-025
  -2.3850000000000000E-002     2.1862504186920893E-025
  -2.3800000000000002E-002    -3.2747037023033487E-026
  -2.3750000000000000E-002    -3.5555277917820228E-025
  -2.3699999999999999E-002    -6.7817727263111605E-025
  -2.3650000000000001E-002    -9.0246965671695130E-025
  -2.3599999999999999E-002    -9.2310091183573884E-025
  -2.3550000000000001E-002    -6.5863582810694724E-025
  -2.3500000000000000E-002    -8.9071257691449409E-026
  -2.3449999999999999E-002     7.1126577248314711E-025
  -2.3400000000000001E-002     1.5606317554012311E-024
  -2.3349999999999999E-002     2.1910250880316473E-024
  -2.3300000000000001E-002     2.3104236928939765E-024
  -2.3250000000000000E-002     1.6988711854510209E-024
  -2.3199999999999998E-002     3.1429544430046439E-025
  -2.3150000000000000E-002    -1.6293681404921030E-024
  -2.3099999999999999E-002    -3.6517266500088943E-024
  -2.3050000000000001E-002    -5.0901273216874533E-024
  -2.3000000000000000E-002    -5.2772731969949528E-024
  -2.2950000000000002E-002    -3.7746063059952183E-024
  -2.2900000000000000E-002    -5.9174647623242666E-025
  -2.2849999999999999E-002     3.6915925647082647E-024
  -2.2800000000000001E-002     7.9702940164400810E-024
  -2.2749999999999999E-002     1.0850449203135187E-023
  -2.2700000000000001E-002     1.1040530808415180E-023
  -2.2650000000000000E-002     7.7978791658586244E-024
  -2.2599999999999999E-002     1.2929240810731358E-024
  -2.2550000000000001E-002    -7.2437029034710702E-024
  -2.2499999999999999E-002    -1.5677446285085906E-023
  -2.2450000000000001E-002    -2.1432601510055287E-023
  -2.2400000000000000E-002    -2.2171084796955306E-023
  -2.2349999999999998E-002    -1.6521662206089580E-023
  -2.2300000000000000E-002    -4.6614921305145521E-024
  -2.2249999999999999E-002     1.1428460437517480E-023
  -2.2200000000000001E-002     2.8146411903668175E-023
  -2.2150000000000000E-002     4.0909068144032969E-023
  -2.2100000000000002E-002     4.5164415563500051E-023
  -2.2050000000000000E-002     3.7605566502845979E-023
  -2.1999999999999999E-002     1.7344405759234381E-023
  -2.1950000000000001E-002    -1.3238343150352577E-023
  -2.1899999999999999E-002    -4.8256927125103426E-023
  -2.1850000000000001E-002    -7.8942025019372778E-023
  -2.1800000000000000E-002    -9.5239763970124570E-023
  -2.1749999999999999E-002    -8.8289214271520725E-023
  -2.1700000000000001E-002    -5.3380372591522729E-023
  -2.1649999999999999E-002     7.3240244514486072E-024
  -2.1600000000000001E-002     8.3242487193743398E-023
  -2.1550000000000000E-002     1.5593549541728120E-022
  -2.1499999999999998E-002     2.0235306665782729E-022
  -2.1450000000000000E-002     2.0064102680401514E-022
  -2.1399999999999999E-002     1.3744003553037727E-022
  -2.1350000000000001E-002     1.4716067524373706E-023
  -2.1299999999999999E-002    -1.4632913925180378E-022
  -2.1250000000000002E-002    -3.0648394880661557E-022
  -2.1200000000000000E-002    -4.1599720484666529E-022
  -2.1149999999999999E-002    -4.2756921591668329E-022
  -2.1100000000000001E-002    -3.1204719163866162E-022
  -2.1049999999999999E-002    -7.2346878998647283E-023
  -2.1000000000000001E-002     2.4941222593761211E-022
  -2.0950000000000000E-002     5.7551257267367725E-022
  -2.0899999999999998E-002     8.0831777472479565E-022
  -2.0850000000000000E-002     8.5572441516997359E-022
  -2.0799999999999999E-002     6.6048513940867137E-022
  -2.0750000000000001E-002     2.2511083175003543E-022
  -2.0700000000000000E-002    -3.7612380615718446E-022
  -2.0649999999999998E-002    -1.0041469934743314E-021
  -2.0600000000000000E-002    -1.4824604587348053E-021
  -2.0549999999999999E-002    -1.6406117190841706E-021
  -2.0500000000000001E-002    -1.3641499507662251E-021
  -2.0449999999999999E-002    -6.3814212566472475E-022
  -2.0400000000000001E-002     4.2888340855621507E-022
  -2.0350000000000000E-002     1.6104444648135315E-021
  -2.0299999999999999E-002     2.6007308855344572E-021
  -2.0250000000000001E-002     3.0820892456384905E-021
  -2.0199999999999999E-002     2.8090606601628110E-021
  -2.0150000000000001E-002     1.6903500616824410E-021
  -2.0100000000000000E-002    -1.5296356187123374E-022
  -2.0049999999999998E-002    -2.3731905922662493E-021
  -2.0000000000000000E-002    -4.4393833226815551E-021
  -1.9949999999999999E-002    -5.7403680889702943E-021
  -1.9900000000000001E-002    -5.7344061675132937E-021
  -1.9850000000000000E-002    -4.1165263057521303E-021
  -1.9799999999999998E-002    -9.6171605117788225E-022
  -1.9750000000000000E-002     3.2027391562111443E-021
  -1.9699999999999999E-002     7.4354309484892215E-021
  -1.9650000000000001E-002     1.0548081344600787E-020
  -1.9599999999999999E-002     1.1387356862458509E-020
  -1.9550000000000001E-002     9.1781116121695124E-021
  -1.9500000000000000E-002     3.8416221851766715E-021
  -1.9449999999999999E-002    -3.8132911758052938E-021
  -1.9400000000000001E-002    -1.2116082182053626E-020
  -1.9349999999999999E-002    -1.8823069726950770E-020
  -1.9300000000000001E-002    -2.1644741999804717E-020
  -1.9250000000000000E-002    -1.8908176636329361E-020
  -1.9199999999999998E-002    -1.0185132914167749E-020
  -1.9150000000000000E-002     3.3113069153843503E-021
  -1.9099999999999999E-002     1.8730684868964557E-020
  -1.9050000000000001E-002     3.2072613202031166E-020
  -1.9000000000000000E-002     3.9110957215507665E-020
  -1.8949999999999998E-002     3.6567920320526920E-020
  -1.8900000000000000E-002     2.3241350941620316E-020
  -1.8849999999999999E-002     7.4836310154719388E-022
  -1.8800000000000001E-002    -2.6399224444310045E-020
  -1.8749999999999999E-002    -5.1527227938038044E-020
  -1.8700000000000001E-002    -6.7271448369472264E-020
  -1.8650000000000000E-002    -6.7501597491653910E-020
  -1.8599999999999998E-002    -4.9237056399542711E-020
  -1.8550000000000001E-002    -1.4025815467385610E-020
  -1.8499999999999999E-002     3.1676710231918412E-020
  -1.8450000000000001E-002     7.7393343307552785E-020
  -1.8400000000000000E-002     1.1074275696760884E-019
  -1.8349999999999998E-002     1.2042821857832734E-019
  -1.8300000000000000E-002     9.9452463549926054E-020
  -1.8249999999999999E-002     4.7753522031252782E-020
  -1.8200000000000001E-002    -2.6525515336971498E-020
  -1.8149999999999999E-002    -1.0770218149516624E-019
  -1.8100000000000002E-002    -1.7532870606702166E-019
  -1.8050000000000000E-002    -2.0873595861537897E-019
  -1.7999999999999999E-002    -1.9249130653240297E-019
  -1.7950000000000001E-002    -1.2151108179200172E-019
  -1.7899999999999999E-002    -4.4091983115703896E-021
  -1.7850000000000001E-002     1.3615940762124837E-019
  -1.7800000000000000E-002     2.6685913025828845E-019
  -1.7749999999999998E-002     3.5058544281691795E-019
  -1.7700000000000000E-002     3.5577837263022219E-019
  -1.7649999999999999E-002     2.6608354972792354E-019
  -1.7600000000000001E-002     8.7774670605834548E-020
  -1.7550000000000000E-002    -1.4757207759896427E-019
  -1.7499999999999998E-002    -3.8685507601419064E-019
  -1.7450000000000000E-002    -5.6591084736213463E-019
  -1.7399999999999999E-002    -6.2505634812090334E-019
  -1.7350000000000001E-002    -5.2633536991637725E-019
  -1.7299999999999999E-002    -2.6795878814853314E-019
  -1.7250000000000001E-002     1.0863921987500599E-019
  -1.7200000000000000E-002     5.2245643677709959E-019
  -1.7149999999999999E-002     8.6817883226446506E-019
  -1.7100000000000001E-002     1.0408037158683654E-018
  -1.7049999999999999E-002     9.6436048226321681E-019
  -1.7000000000000001E-002     6.1744275111724796E-019
  -1.6950000000000000E-002     4.7979907858664082E-020
  -1.6899999999999998E-002    -6.2851986108154647E-019
  -1.6850000000000000E-002    -1.2493277773464437E-018
  -1.6799999999999999E-002    -1.6407259816963274E-018
  -1.6750000000000001E-002    -1.6626734967828922E-018
  -1.6700000000000000E-002    -1.2511316731203469E-018
  -1.6649999999999998E-002    -4.4644403636432403E-019
  -1.6600000000000000E-002     6.0170648195638254E-019
  -1.6549999999999999E-002     1.6573052730132988E-018
  -1.6500000000000001E-002     2.4468134688870053E-018
  -1.6449999999999999E-002     2.7246482509575616E-018
  -1.6400000000000001E-002     2.3407509601651820E-018
  -1.6350000000000000E-002     1.2932327088017585E-018
  -1.6299999999999999E-002    -2.4936195556460349E-019
  -1.6250000000000001E-002    -1.9660434616693131E-018
  -1.6199999999999999E-002    -3.4427528338549430E-018
  -1.6150000000000001E-002    -4.2640754787901749E-018
  -1.6100000000000000E-002    -4.1189343348830646E-018
  -1.6049999999999998E-002    -2.8957251920775147E-018
  -1.6000000000000000E-002    -7.4133654148859775E-019
  -1.5949999999999999E-002     1.9364227332990497E-018
  -1.5900000000000001E-002     4.5324755959322391E-018
  -1.5850000000000000E-002     6.3685343839455328E-018
  -1.5799999999999998E-002     6.8556232082498268E-018
  -1.5750000000000000E-002     5.6596286573576434E-018
  -1.5699999999999999E-002     2.8276552388630681E-018
  -1.5650000000000001E-002    -1.1639967642493384E-018
  -1.5599999999999999E-002    -5.4656293877630520E-018
  -1.5550000000000001E-002    -9.0161275632559154E-018
  -1.5500000000000000E-002    -1.0785935779470786E-017
  -1.5449999999999998E-002    -1.0050039107298490E-017
  -1.5400000000000000E-002    -6.6235925571015400E-018
  -1.5349999999999999E-002    -9.9187255545005650E-019
  -1.5300000000000001E-002     5.7162651422210497E-018
  -1.5250000000000000E-002     1.1928211046630326E-017
  -1.5199999999999998E-002     1.5973449436320770E-017
  -1.5150000000000000E-002     1.6504841945318926E-017
  -1.5099999999999999E-002     1.2894496442984518E-017
  -1.5050000000000001E-002     5.4959534208661203E-018
  -1.4999999999999999E-002    -4.3145387283124376E-018
  -1.4949999999999998E-002    -1.4357615599426120E-017
  -1.4900000000000000E-002    -2.2107158352564958E-017
  -1.4849999999999999E-002    -2.5294113379408356E-017
  -1.4800000000000001E-002    -2.2519064810735939E-017
  -1.4749999999999999E-002    -1.3716625355206854E-017
  -1.4700000000000001E-002    -3.3544044405498457E-019
  -1.4650000000000000E-002     1.4844352949400761E-017
  -1.4599999999999998E-002     2.8250454460360267E-017
  -1.4550000000000000E-002     3.6318204051848918E-017
  -1.4499999999999999E-002     3.6379415846254794E-017
  -1.4450000000000001E-002     2.7429621736338372E-017
  -1.4400000000000000E-002     1.0571678781235081E-017
  -1.4349999999999998E-002    -1.1007890717818548E-017
  -1.4300000000000000E-002    -3.2574950025427391E-017
  -1.4249999999999999E-002    -4.8822868783728757E-017
  -1.4200000000000001E-002    -5.5100641355611052E-017
  -1.4149999999999999E-002    -4.8627107346951362E-017
  -1.4099999999999998E-002    -2.9397839347280009E-017
  -1.4050000000000000E-002    -5.2975758918356031E-019
  -1.3999999999999999E-002     3.2108899271089658E-017
  -1.3950000000000001E-002     6.0984196597191973E-017
  -1.3899999999999999E-002     7.8527608193249537E-017
  -1.3850000000000001E-002     7.8987943404977585E-017
  -1.3800000000000000E-002     6.0081434290497536E-017
  -1.3749999999999998E-002     2.4006708154983884E-017
  -1.3700000000000000E-002    -2.2513440397662925E-017
  -1.3649999999999999E-002    -6.9308463548136008E-017
  -1.3600000000000001E-002    -1.0484017063641858E-016
  -1.3550000000000000E-002    -1.1890276620537524E-016
  -1.3499999999999998E-002    -1.0534518215743164E-016
  -1.3450000000000000E-002    -6.4128353848289919E-017
  -1.3399999999999999E-002    -2.1045954522452160E-018
  -1.3350000000000001E-002     6.7847746128738145E-017
  -1.3299999999999999E-002     1.2932421758780821E-016
  -1.3249999999999998E-002     1.6609304731235567E-016
  -1.3200000000000000E-002     1.6619198530985064E-016
  -1.3149999999999998E-002     1.2542054097778784E-016
  -1.3100000000000001E-002     4.9265332518055608E-017
  -1.3049999999999999E-002    -4.7406151634574245E-017
  -1.3000000000000001E-002    -1.4304481087621598E-016
  -1.2950000000000000E-002    -2.1407421860052306E-016
  -1.2899999999999998E-002    -2.4052105033940131E-016
  -1.2850000000000000E-002    -2.1130198688657677E-016
  -1.2799999999999999E-002    -1.2781690697454265E-016