  -4.0000000000000001E-002     0.0000000000000000     
  -3.9949999999999999E-002     0.0000000000000000     
  -3.9899999999999998E-002     0.0000000000000000     
  -3.9850000000000003E-002     0.0000000000000000     
  -3.9800000000000002E-002     0.0000000000000000     
  -3.9750000000000001E-002     0.0000000000000000     
  -3.9699999999999999E-002     0.0000000000000000     
  -3.9649999999999998E-002     0.0000000000000000     
  -3.9600000000000003E-002     0.0000000000000000     
  -3.9550000000000002E-002     0.0000000000000000     
  -3.9500000000000000E-002     0.0000000000000000     
  -3.9449999999999999E-002     0.0000000000000000     
  -3.9399999999999998E-002     0.0000000000000000     
  -3.9350000000000003E-002     0.0000000000000000     
  -3.9300000000000002E-002     0.0000000000000000     
  -3.9250000000000000E-002     0.0000000000000000     
  -3.9199999999999999E-002     0.0000000000000000     
  -3.9150000000000004E-002     0.0000000000000000     
  -3.9100000000000003E-002     0.0000000000000000     
  -3.9050000000000001E-002     0.0000000000000000     
  -3.9000000000000000E-002     0.0000000000000000     
  -3.8949999999999999E-002     0.0000000000000000     
  -3.8900000000000004E-002     0.0000000000000000     
  -3.8850000000000003E-002     0.0000000000000000     
  -3.8800000000000001E-002     0.0000000000000000     
  -3.8750000000000000E-002     0.0000000000000000     
  -3.8699999999999998E-002     0.0000000000000000     
  -3.8650000000000004E-002     0.0000000000000000     
  -3.8600000000000002E-002     0.0000000000000000     
  -3.8550000000000001E-002     0.0000000000000000     
  -3.8500000000000000E-002     0.0000000000000000     
  -3.8449999999999998E-002     0.0000000000000000     
  -3.8400000000000004E-002     0.0000000000000000     
  -3.8350000000000002E-002     0.0000000000000000     
  -3.8300000000000001E-002     0.0000000000000000     
  -3.8249999999999999E-002     0.0000000000000000     
  -3.8199999999999998E-002     0.0000000000000000     
  -3.8150000000000003E-002     0.0000000000000000     
  -3.8100000000000002E-002     0.0000000000000000     
  -3.8050000000000000E-002     0.0000000000000000     
  -3.7999999999999999E-002     0.0000000000000000     
  -3.7949999999999998E-002     0.0000000000000000     
  -3.7900000000000003E-002     0.0000000000000000     
  -3.7850000000000002E-002     0.0000000000000000     
  -3.7800000000000000E-002     0.0000000000000000     
  -3.7749999999999999E-002     0.0000000000000000     
  -3.7699999999999997E-002     0.0000000000000000     
  -3.7650000000000003E-002     0.0000000000000000     
  -3.7600000000000001E-002     0.0000000000000000     
  -3.7550000000000000E-002     0.0000000000000000     
  -3.7499999999999999E-002     0.0000000000000000     
  -3.7449999999999997E-002     0.0000000000000000     
  -3.7400000000000003E-002     0.0000000000000000     
  -3.7350000000000001E-002     0.0000000000000000     
  -3.7300000000000000E-002     0.0000000000000000     
  -3.7249999999999998E-002     0.0000000000000000     
  -3.7200000000000004E-002     0.0000000000000000     
  -3.7150000000000002E-002     0.0000000000000000     
  -3.7100000000000001E-002     0.0000000000000000     
  -3.7050000000000000E-002     0.0000000000000000     
  -3.6999999999999998E-002     0.0000000000000000     
  -3.6950000000000004E-002     0.0000000000000000     
  -3.6900000000000002E-002     0.0000000000000000     
  -3.6850000000000001E-002     0.0000000000000000     
  -3.6799999999999999E-002     0.0000000000000000     
  -3.6749999999999998E-002     0.0000000000000000     
  -3.6700000000000003E-002     0.0000000000000000     
  -3.6650000000000002E-002     0.0000000000000000     
  -3.6600000000000001E-002     0.0000000000000000     
  -3.6549999999999999E-002     0.0000000000000000     
  -3.6499999999999998E-002     0.0000000000000000     
  -3.6450000000000003E-002     0.0000000000000000     
  -3.6400000000000002E-002     0.0000000000000000     
  -3.6350000000000000E-002     0.0000000000000000     
  -3.6299999999999999E-002     0.0000000000000000     
  -3.6249999999999998E-002     0.0000000000000000     
  -3.6200000000000003E-002     0.0000000000000000     
  -3.6150000000000002E-002     0.0000000000000000     
  -3.6100000000000000E-002     0.0000000000000000     
  -3.6049999999999999E-002     0.0000000000000000     
  -3.6000000000000004E-002     0.0000000000000000     
  -3.5950000000000003E-002     0.0000000000000000     
  -3.5900000000000001E-002     0.0000000000000000     
  -3.5850000000000000E-002     0.0000000000000000     
  -3.5799999999999998E-002     0.0000000000000000     
  -3.5750000000000004E-002     0.0000000000000000     
  -3.5700000000000003E-002     0.0000000000000000     
  -3.5650000000000001E-002     0.0000000000000000     
  -3.5600000000000000E-002     0.0000000000000000     
  -3.5549999999999998E-002     0.0000000000000000     
  -3.5500000000000004E-002     0.0000000000000000     
  -3.5450000000000002E-002     0.0000000000000000     
  -3.5400000000000001E-002     0.0000000000000000     
  -3.5349999999999999E-002     0.0000000000000000     
  -3.5299999999999998E-002     0.0000000000000000     
  -3.5250000000000004E-002     0.0000000000000000     
  -3.5200000000000002E-002     0.0000000000000000     
  -3.5150000000000001E-002     0.0000000000000000     
  -3.5099999999999999E-002     0.0000000000000000     
  -3.5049999999999998E-002     0.0000000000000000     
  -3.5000000000000003E-002     0.0000000000000000     
  -3.4950000000000002E-002     0.0000000000000000     
  -3.4900000000000000E-002     0.0000000000000000     
  -3.4849999999999999E-002     0.0000000000000000     
  -3.4799999999999998E-002     0.0000000000000000     
  -3.4750000000000003E-002     0.0000000000000000     
  -3.4700000000000002E-002     0.0000000000000000     
  -3.4650000000000000E-002     0.0000000000000000     
  -3.4599999999999999E-002     0.0000000000000000     
  -3.4549999999999997E-002     0.0000000000000000     
  -3.4500000000000003E-002     0.0000000000000000     
  -3.4450000000000001E-002     0.0000000000000000     
  -3.4400000000000000E-002     0.0000000000000000     
  -3.4349999999999999E-002     0.0000000000000000     
  -3.4299999999999997E-002     0.0000000000000000     
  -3.4250000000000003E-002     0.0000000000000000     
  -3.4200000000000001E-002     0.0000000000000000     
  -3.4150000000000000E-002     0.0000000000000000     
  -3.4099999999999998E-002     0.0000000000000000     
  -3.4049999999999997E-002     0.0000000000000000     
  -3.4000000000000002E-002     0.0000000000000000     
  -3.3950000000000001E-002     0.0000000000000000     
  -3.3900000000000000E-002     0.0000000000000000     
  -3.3849999999999998E-002     0.0000000000000000     
  -3.3799999999999997E-002     0.0000000000000000     
  -3.3750000000000002E-002     0.0000000000000000     
  -3.3700000000000001E-002     0.0000000000000000     
  -3.3649999999999999E-002     0.0000000000000000     
  -3.3599999999999998E-002     0.0000000000000000     
  -3.3550000000000003E-002     0.0000000000000000     
  -3.3500000000000002E-002     0.0000000000000000     
  -3.3450000000000001E-002     0.0000000000000000     
  -3.3399999999999999E-002     0.0000000000000000     
  -3.3349999999999998E-002     0.0000000000000000     
  -3.3300000000000003E-002     0.0000000000000000     
  -3.3250000000000002E-002     0.0000000000000000     
  -3.3200000000000000E-002    -3.3974471936399034E-040
  -3.3149999999999999E-002    -6.2551944665510066E-040
  -3.3099999999999997E-002     7.5669677164390879E-040
  -3.3050000000000003E-002     3.5846080624471428E-039
  -3.3000000000000002E-002     5.6358438734169664E-039
  -3.2950000000000000E-002     3.5571319351887961E-039
  -3.2899999999999999E-002    -5.6716522771382131E-039
  -3.2850000000000004E-002    -2.2943299283509044E-038
  -3.2800000000000003E-002    -2.2989075207276863E-038
  -3.2750000000000001E-002    -1.4911204863051246E-038
  -3.2700000000000000E-002    -2.4121113055786144E-038
  -3.2649999999999998E-002    -1.4935037934029603E-038
  -3.2600000000000004E-002     1.5695718485046227E-038
  -3.2550000000000003E-002     7.8861007308091290E-038
  -3.2500000000000001E-002     1.5238577287508876E-037
  -3.2450000000000000E-002     2.2276470022099835E-037
  -3.2399999999999998E-002     2.0849114783400087E-037
  -3.2350000000000004E-002     3.0527626028448738E-038
  -3.2300000000000002E-002    -3.2707828704117343E-037
  -3.2250000000000001E-002    -7.4530377180544878E-037
  -3.2199999999999999E-002    -9.8779962249966045E-037
  -3.2149999999999998E-002    -7.9280322216109923E-037
  -3.2100000000000004E-002    -3.3725012430505918E-038
  -3.2050000000000002E-002     1.1344190227015097E-036
  -3.2000000000000001E-002     2.2244975775986717E-036
  -3.1949999999999999E-002     2.5621433560765918E-036
  -3.1899999999999998E-002     1.6425027016644621E-036
  -3.1850000000000003E-002    -4.1174056084725178E-037
  -3.1800000000000002E-002    -2.5855276338570107E-036
  -3.1750000000000000E-002    -3.2661375123159804E-036
  -3.1699999999999999E-002    -1.2833183701282130E-036
  -3.1649999999999998E-002     2.6345701899726145E-036
  -3.1600000000000003E-002     4.9841675589899990E-036
  -3.1550000000000002E-002     4.9981541222877723E-037
  -3.1500000000000000E-002    -1.4205544719066155E-035
  -3.1449999999999999E-002    -3.5344723880287435E-035
  -3.1399999999999997E-002    -4.8239562709750073E-035
  -3.1350000000000003E-002    -2.9810228289457833E-035
  -3.1300000000000001E-002     3.9388898521614459E-035
  -3.1250000000000000E-002     1.5523046996463108E-034
  -3.1199999999999999E-002     2.7144779468748220E-034
  -3.1150000000000001E-002     2.9809900350813372E-034
  -3.1100000000000003E-002     1.3206056526115049E-034
  -3.1050000000000001E-002    -2.7788123530436698E-034
  -3.1000000000000000E-002    -8.5228966134499435E-034
  -3.0949999999999998E-002    -1.3349056357160330E-033
  -3.0900000000000000E-002    -1.3351698333870429E-033
  -3.0850000000000002E-002    -4.9255785020171357E-034
  -3.0800000000000001E-002     1.2657005484728862E-033
  -3.0750000000000000E-002     3.4839968629722659E-033
  -3.0699999999999998E-002     5.1240714742900160E-033
  -3.0650000000000000E-002     4.8473096017305515E-033
  -3.0600000000000002E-002     1.6533480653598189E-033
  -3.0550000000000001E-002    -4.3243626693234636E-033
  -3.0499999999999999E-002    -1.1276941206566311E-032
  -3.0449999999999998E-002    -1.5902565364127610E-032
  -3.0400000000000000E-002    -1.4569324562417529E-032
  -3.0350000000000002E-002    -5.2257647916941383E-033
  -3.0300000000000001E-002     1.0754717151534752E-032
  -3.0249999999999999E-002     2.7944590508027068E-032
  -3.0200000000000001E-002     3.8342884199075193E-032
  -3.0150000000000000E-002     3.4904270405114350E-032
  -3.0100000000000002E-002     1.5708169794344052E-032
  -3.0050000000000000E-002    -1.3640398443650827E-032
  -2.9999999999999999E-002    -4.1581381943213995E-032
  -2.9950000000000001E-002    -5.6498098360143830E-032
  -2.9899999999999999E-002    -5.4333010266703552E-032
  -2.9850000000000002E-002    -4.2825296596046993E-032
  -2.9800000000000000E-002    -3.7372885778027233E-032
  -2.9749999999999999E-002    -4.7539158579571825E-032
  -2.9700000000000001E-002    -6.0333737439689482E-032
  -2.9650000000000003E-002    -3.2992749402252453E-032
  -2.9600000000000001E-002     9.1263796706302921E-032
  -2.9550000000000000E-002     3.4027916155501099E-031
  -2.9499999999999998E-002     6.5720069231079105E-031
  -2.9450000000000000E-002     8.6641209695311935E-031
  -2.9400000000000003E-002     7.0365617943942485E-031
  -2.9350000000000001E-002    -6.4466124246520416E-032
  -2.9300000000000000E-002    -1.4524938120679691E-030
  -2.9249999999999998E-002    -3.0811199531978623E-030
  -2.9200000000000000E-002    -4.1399232116797203E-030
  -2.9150000000000002E-002    -3.5997615903805664E-030
  -2.9100000000000001E-002    -6.9484326878309538E-031
  -2.9049999999999999E-002     4.4615887825569084E-030
  -2.8999999999999998E-002     1.0421074003342654E-029
  -2.8950000000000000E-002     1.4458262245321925E-029
  -2.8900000000000002E-002     1.3380574920581896E-029
  -2.8850000000000001E-002     5.0108258087526730E-030
  -2.8799999999999999E-002    -1.0154544805416647E-029
  -2.8749999999999998E-002    -2.7935050129138605E-029
  -2.8700000000000000E-002    -4.0932347223809725E-029
  -2.8650000000000002E-002    -4.0848825087405928E-029
  -2.8600000000000000E-002    -2.2193627597922997E-029
  -2.8549999999999999E-002     1.3997637917733106E-029
  -2.8500000000000001E-002     5.8301383403366615E-029
  -2.8450000000000000E-002     9.4442992702379306E-029
  -2.8400000000000002E-002     1.0451666741363721E-028
  -2.8350000000000000E-002     7.6388779548984215E-029
  -2.8299999999999999E-002     1.0295462849776559E-029
  -2.8250000000000001E-002    -7.8645021676103818E-029
  -2.8200000000000003E-002    -1.6389512084757238E-028
  -2.8150000000000001E-002    -2.1612226724888893E-028
  -2.8100000000000000E-002    -2.1340476455358469E-028
  -2.8049999999999999E-002    -1.4825066226199294E-028
  -2.8000000000000001E-002    -2.8167363228785398E-029
  -2.7950000000000003E-002     1.2958703725648308E-028
  -2.7900000000000001E-002     3.0418234767645332E-028
  -2.7850000000000000E-002     4.7181553341377394E-028
  -2.7799999999999998E-002     5.9753821201591958E-028
  -2.7750000000000000E-002     6.2305309924803750E-028
  -2.7700000000000002E-002     4.6388766402186748E-028
  -2.7650000000000001E-002     3.2322587193372088E-029
  -2.7600000000000000E-002    -7.0601686671786792E-028
  -2.7549999999999998E-002    -1.6546490654236802E-027
  -2.7500000000000000E-002    -2.5261543421940264E-027
  -2.7450000000000002E-002    -2.8538528870685154E-027
  -2.7400000000000001E-002    -2.1198111800313694E-027
  -2.7349999999999999E-002     6.9480899533262845E-032
  -2.7299999999999998E-002     3.3425984283817967E-027
  -2.7250000000000000E-002     7.0511972719198468E-027
  -2.7200000000000002E-002     9.6173489853809200E-027
  -2.7150000000000001E-002     9.2772706226041257E-027
  -2.7099999999999999E-002     4.7355371403125948E-027
  -2.7049999999999998E-002    -3.9954345326951065E-027
  -2.7000000000000000E-002    -1.5003416224337121E-026
  -2.6950000000000002E-002    -2.4525108787165124E-026
  -2.6900000000000000E-002    -2.7873169399428299E-026
  -2.6849999999999999E-002    -2.1147419447955604E-026
  -2.6800000000000001E-002    -3.2312589627757423E-027
  -2.6749999999999999E-002     2.2730033421593774E-026
  -2.6700000000000002E-002     4.9196712316698009E-026
  -2.6650000000000000E-002     6.5923144842985422E-026
  -2.6599999999999999E-002     6.3273327060285253E-026
  -2.6550000000000001E-002     3.6210484977517116E-026
  -2.6500000000000003E-002    -1.2513628443319992E-026
  -2.6450000000000001E-002    -7.1435709628586342E-026
  -2.6400000000000000E-002    -1.2254899819075203E-025
  -2.6349999999999998E-002    -1.4628679178688029E-025
  -2.6300000000000000E-002    -1.2790304894153966E-025
  -2.6250000000000002E-002    -6.3147898113739926E-026
  -2.6200000000000001E-002     3.8745806259012010E-026
  -2.6150000000000000E-002     1.5583546510611701E-025
  -2.6099999999999998E-002     2.5776444485384234E-025
  -2.6050000000000000E-002     3.1226758481899050E-025
  -2.6000000000000002E-002     2.9224464021831628E-025
  -2.5950000000000001E-002     1.8226393201945487E-025
  -2.5899999999999999E-002    -1.5782746797127775E-026
  -2.5849999999999998E-002    -2.7776234200153941E-025
  -2.5800000000000000E-002    -5.5376651896870550E-025
  -2.5750000000000002E-002    -7.6843634349695383E-025
  -2.5700000000000001E-002    -8.2944074269604634E-025
  -2.5649999999999999E-002    -6.4838395527084785E-025
  -2.5599999999999998E-002    -1.7492276434048183E-025
  -2.5550000000000000E-002     5.6227390028402956E-025
  -2.5500000000000002E-002     1.4227695362255124E-024
  -2.5450000000000000E-002     2.1506976549907814E-024
  -2.5399999999999999E-002     2.4190227347034872E-024
  -2.5349999999999998E-002     1.9274182169574398E-024
  -2.5300000000000000E-002     5.3657743928694853E-025
  -2.5250000000000002E-002    -1.6036828669188415E-024
  -2.5200000000000000E-002    -3.9916873518341811E-024
  -2.5149999999999999E-002    -5.8313659486984900E-024
  -2.5100000000000001E-002    -6.2334562149513455E-024
  -2.5049999999999999E-002    -4.5301283231409546E-024
  -2.5000000000000001E-002    -6.1310601470230194E-025
  -2.4950000000000000E-002     4.8351532983444559E-024
  -2.4899999999999999E-002     1.0344927437959510E-023
  -2.4850000000000001E-002     1.3967467684267029E-023
  -2.4800000000000003E-002     1.3854986679576555E-023
  -2.4750000000000001E-002     8.9625294347466772E-024
  -2.4700000000000000E-002    -3.6333429205700737E-025
  -2.4649999999999998E-002    -1.2155058515657882E-023
  -2.4600000000000000E-002    -2.3117113199069979E-023
  -2.4550000000000002E-002    -2.9443168606992340E-023
  -2.4500000000000001E-002    -2.7969678592756320E-023
  -2.4450000000000000E-002    -1.7329862409223519E-023
  -2.4399999999999998E-002     1.2732360458537894E-024
  -2.4350000000000000E-002     2.3971331427200065E-023
  -2.4299999999999999E-002     4.4918561910926200E-023
  -2.4250000000000001E-002     5.7634280224019762E-023
  -2.4199999999999999E-002     5.6681156922797505E-023
  -2.4150000000000001E-002     3.9270135428494998E-023
  -2.4100000000000000E-002     6.4154568507789058E-024
  -2.4049999999999998E-002    -3.6623335938686171E-023
  -2.4000000000000000E-002    -8.0742902897561407E-023
  -2.3949999999999999E-002    -1.1427418745388935E-022
  -2.3900000000000001E-002    -1.2510900990705884E-022
  -2.3850000000000000E-002    -1.0356541252118169E-022
  -2.3800000000000002E-002    -4.5699648384790942E-023
  -2.3750000000000000E-002     4.3551005484271154E-023
  -2.3699999999999999E-002     1.4840336289020218E-022
  -2.3650000000000001E-002     2.4271208269968779E-022
  -2.3599999999999999E-002     2.9402694555217563E-022
  -2.3550000000000001E-002     2.7157330387404988E-022
  -2.3500000000000000E-002     1.5710298816351526E-022
  -2.3449999999999999E-002    -4.4131952642654152E-023
  -2.3400000000000001E-002    -2.9636225472469609E-022
  -2.3349999999999999E-002    -5.3450929661018625E-022
  -2.3300000000000001E-002    -6.7635585334270405E-022
  -2.3250000000000000E-002    -6.4515035329045808E-022
  -2.3199999999999998E-002    -3.9786908409065575E-022
  -2.3150000000000000E-002     4.9428693254964611E-023
  -2.3099999999999999E-002     6.0933554013761301E-022
  -2.3050000000000001E-002     1.1322346409199522E-021
  -2.3000000000000000E-002     1.4395647997621091E-021
  -2.2950000000000002E-002     1.3758276335202006E-021
  -2.2900000000000000E-002     8.6585085219974992E-022
  -2.2849999999999999E-002    -4.1180234544980359E-023
  -2.2800000000000001E-002    -1.1587933566802369E-021
  -2.2749999999999999E-002    -2.1921691273501501E-021
  -2.2700000000000001E-002    -2.8075797860063443E-021
  -2.2650000000000000E-002    -2.7273239610048810E-021
  -2.2599999999999999E-002    -1.8245852738483288E-021
  -2.2550000000000001E-002    -1.8911971574479135E-022
  -2.2499999999999999E-002     1.8599603170896748E-021
  -2.2450000000000001E-002     3.8249133076231281E-021
  -2.2400000000000000E-002     5.1371052279212255E-021
  -2.2349999999999998E-002     5.2992411926332122E-021
  -2.2300000000000000E-002     4.0292568928051296E-021
  -2.2249999999999999E-002     1.3707975505625709E-021
  -2.2200000000000001E-002    -2.2591896197160008E-021
  -2.2150000000000000E-002    -6.1040967146462707E-021
  -2.2100000000000002E-002    -9.1870573452621669E-021
  -2.2050000000000000E-002    -1.0506027521226671E-020
  -2.1999999999999999E-002    -9.2792994644705678E-021
  -2.1950000000000001E-002    -5.2003441944462066E-021
  -2.1899999999999999E-002     1.3546587183889479E-021
  -2.1850000000000001E-002     9.2339493315889052E-021
  -2.1800000000000000E-002     1.6597316868377927E-020
  -2.1749999999999999E-002     2.1224901059334705E-020
  -2.1700000000000001E-002     2.1038998196973253E-020
  -2.1649999999999999E-002     1.4757763229634685E-020
  -2.1600000000000001E-002     2.5226581804469726E-021
  -2.1550000000000000E-002    -1.3711604502190028E-020
  -2.1499999999999998E-002    -3.0233199651147951E-020
  -2.1450000000000000E-002    -4.2204359432649025E-020
  -2.1399999999999999E-002    -4.4841278985940762E-020
  -2.1350000000000001E-002    -3.4918872764943623E-020
  -2.1299999999999999E-002    -1.2197049569780118E-020
  -2.1250000000000002E-002     1.9723648087256215E-020
  -2.1200000000000000E-002     5.3549167925238872E-020
  -2.1149999999999999E-002     7.9647044632412716E-020
  -2.1100000000000001E-002     8.8461377903197193E-020
  -2.1049999999999999E-002     7.3454925090215205E-020
  -2.1000000000000001E-002     3.3758119902727769E-020
  -2.0950000000000000E-002    -2.4368685808276706E-020
  -2.0899999999999998E-002    -8.7946034696650675E-020
  -2.0850000000000000E-002    -1.3978216318757234E-019
  -2.0799999999999999E-002    -1.6268857295396681E-019
  -2.0750000000000001E-002    -1.4443751787763843E-019
  -2.0700000000000000E-002    -8.2132879706444226E-020
  -2.0649999999999998E-002     1.5345549577760925E-020
  -2.0600000000000000E-002     1.2778660699907645E-019
  -2.0549999999999999E-002     2.2725827073798541E-019
  -2.0500000000000001E-002     2.8434006520057295E-019
  -2.0449999999999999E-002     2.7569175562663533E-019
  -2.0400000000000001E-002     1.9120033907193231E-019
  -2.0350000000000000E-002     3.8864423650989127E-020
  -2.0299999999999999E-002    -1.5409350121892410E-019
  -2.0250000000000001E-002    -3.4471504758159821E-019
  -2.0199999999999999E-002    -4.8230465028257445E-019
  -2.0150000000000001E-002    -5.1983750650647073E-019
  -2.0100000000000000E-002    -4.2672068532622600E-019
  -2.0049999999999998E-002    -2.0012040052900671E-019
  -2.0000000000000000E-002     1.2824927450036828E-019
  -1.9949999999999999E-002     4.9267793331266235E-019
  -1.9900000000000001E-002     8.0307208502409568E-019
  -1.9850000000000000E-002     9.6346039925750077E-019
  -1.9799999999999998E-002     8.9673927679703614E-019
  -1.9750000000000000E-002     5.7045210334470719E-019
  -1.9699999999999999E-002     1.6546824956522604E-020
  -1.9650000000000001E-002    -6.6222495966708435E-019
  -1.9599999999999999E-002    -1.3046855961611535E-018
  -1.9550000000000001E-002    -1.7235865270898150E-018
  -1.9500000000000000E-002    -1.7533364425295953E-018
  -1.9449999999999999E-002    -1.3025555607803504E-018
  -1.9400000000000001E-002    -3.9679953446994395E-019
  -1.9349999999999999E-002     8.0366506259312066E-019
  -1.9300000000000001E-002     2.0218771205335572E-018
  -1.9250000000000000E-002     2.9201802987640317E-018
  -1.9199999999999998E-002     3.1852067351753222E-018
  -1.9150000000000000E-002     2.6222314542941794E-018
  -1.9099999999999999E-002     1.2327692475117117E-018
  -1.9050000000000001E-002    -7.5035222581941267E-019
  -1.9000000000000000E-002    -2.8879238568389363E-018
  -1.8949999999999998E-002    -4.6219254585390985E-018
  -1.8900000000000000E-002    -5.4105753394836553E-018
  -1.8849999999999999E-002    -4.8799037452305907E-018
  -1.8800000000000001E-002    -2.9520380695378716E-018
  -1.8749999999999999E-002     8.8239839633668129E-020
  -1.8700000000000001E-002     3.6148946184580709E-018
  -1.8650000000000000E-002     6.7756209327227097E-018
  -1.8599999999999998E-002     8.6820125352304985E-018
  -1.8550000000000001E-002     8.6350813770646439E-018
  -1.8499999999999999E-002     6.3331205216953133E-018
  -1.8450000000000001E-002     2.0075970397420836E-018
  -1.8400000000000000E-002    -3.5557035522219441E-018
  -1.8349999999999998E-002    -9.1305141813383330E-018
  -1.8300000000000000E-002    -1.3289862930258194E-017
  -1.8249999999999999E-002    -1.4732233085409289E-017
  -1.8200000000000001E-002    -1.2628908534998321E-017
  -1.8149999999999999E-002    -6.9121206102056592E-018
  -1.8100000000000002E-002     1.5761108567385837E-018
  -1.8050000000000000E-002     1.1136231073386130E-017
  -1.7999999999999999E-002     1.9489646622024448E-017
  -1.7950000000000001E-002     2.4257809288641078E-017
  -1.7899999999999999E-002     2.3559804484576532E-017
  -1.7850000000000001E-002     1.6597379624177076E-017
  -1.7800000000000000E-002     4.0703554563305389E-018
  -1.7749999999999998E-002    -1.1724459217279031E-017
  -1.7700000000000000E-002    -2.7203750596086516E-017
  -1.7649999999999999E-002    -3.8217297520309521E-017
  -1.7600000000000001E-002    -4.1061267883602611E-017
  -1.7550000000000000E-002    -3.3562039092242324E-017
  -1.7499999999999998E-002    -1.5941334895121201E-017
  -1.7450000000000000E-002     8.8213909893652225E-018
  -1.7399999999999999E-002     3.5323607456713037E-017
  -1.7350000000000001E-002     5.6801126529134635E-017
  -1.7299999999999999E-002     6.6742750591254378E-017
  -1.7250000000000001E-002     6.0696874408570026E-017
  -1.7200000000000000E-002     3.7795854562862048E-017
  -1.7149999999999999E-002     1.5311679261198669E-018
  -1.7100000000000001E-002    -4.0544191366813733E-017
  -1.7049999999999999E-002    -7.8253965613135202E-017
  -1.7000000000000001E-002    -1.0113765370006523E-016
  -1.6950000000000000E-002    -1.0117259165573217E-016
  -1.6899999999999998E-002    -7.5196663667453376E-017
  -1.6850000000000000E-002    -2.6353773416670754E-017
  -1.6799999999999999E-002     3.5927217715216565E-017
  -1.6750000000000001E-002     9.7574447188811150E-017
  -1.6700000000000000E-002     1.4288672423352227E-016
  -1.6649999999999998E-002     1.5829821611725942E-016
  -1.6600000000000000E-002     1.3603083973482422E-016
  -1.6549999999999999E-002     7.6722045317471001E-017
  -1.6500000000000001E-002    -9.7166330155446155E-018
  -1.6449999999999999E-002    -1.0540136633657598E-016
  -1.6400000000000001E-002    -1.8785956229911414E-016
  -1.6350000000000000E-002    -2.3492622069818780E-016
  -1.6299999999999999E-002    -2.3017691838340617E-016
  -1.6250000000000001E-002    -1.6768563168317266E-016
  -1.6199999999999999E-002    -5.4899275256937319E-017
  -1.6150000000000001E-002     8.7310143258355550E-017
  -1.6100000000000000E-002     2.2783815458753817E-016
  -1.6049999999999998E-002     3.3151076019803071E-016
  -1.6000000000000000E-002     3.6718831031270965E-016
  -1.5949999999999999E-002     3.1613305074684293E-016
  -1.5900000000000001E-002     1.7859726334345904E-016
  -1.5850000000000000E-002    -2.3329398475243234E-017
  -1.5799999999999998E-002    -2.4797768236562796E-016
  -1.5750000000000000E-002    -4.4174501366559330E-016
  -1.5699999999999999E-002    -5.5104472379910828E-016
  -1.5650000000000001E-002    -5.3613056306162814E-016
  -1.5599999999999999E-002    -3.8344071102002855E-016
  -1.5550000000000001E-002    -1.1293496958461576E-016
  -1.5500000000000000E-002     2.2231463481160484E-016
  -1.5449999999999998E-002     5.4533499661193551E-016
  -1.5400000000000000E-002     7.7206806708457470E-016
  -1.5349999999999999E-002     8.3233477569989296E-016
  -1.5300000000000001E-002     6.8987678323076985E-016
  -1.5250000000000000E-002     3.5598924005767306E-016
  -1.5199999999999998E-002    -1.0767976649589805E-016
  -1.5150000000000000E-002    -5.9916682412751354E-016
  -1.5099999999999999E-002    -9.9783732952584899E-016
  -1.5050000000000001E-002    -1.1931720591620878E-015
  -1.4999999999999999E-002    -1.1139072352298540E-015
  -1.4949999999999998E-002    -7.5003498500830293E-016
  -1.4900000000000000E-002    -1.6139363394808019E-016
  -1.4849999999999999E-002     5.3047106249311386E-016
  -1.4800000000000001E-002     1.1664932886650102E-015
  -1.4749999999999999E-002     1.5855944304390230E-015
  -1.4700000000000001E-002     1.6636886720988136E-015
  -1.4650000000000000E-002     1.3470378636462033E-015
  -1.4599999999999998E-002     6.7159990355677673E-016
  -1.4550000000000000E-002    -2.3722087112910192E-016
  -1.4499999999999999E-002    -1.1858541360308864E-015
  -1.4450000000000001E-002    -1.9516483147322452E-015
  -1.4400000000000000E-002    -2.3323361453265421E-015
  -1.4349999999999998E-002    -2.1955878309660180E-015
  -1.4300000000000000E-002    -1.5174473858181784E-015
  -1.4249999999999999E-002    -3.9980628055237812E-016
  -1.4200000000000001E-002     9.3939143884520802E-016
  -1.4149999999999999E-002     2.2042024291076517E-015
  -1.4099999999999998E-002     3.0817566857771081E-015
  -1.4050000000000000E-002     3.3150926737889907E-015
  -1.3999999999999999E-002     2.7720863422692439E-015
  -1.3950000000000001E-002     1.4933195653457795E-015
  -1.3899999999999999E-002    -2.9584401106444370E-016
  -1.3850000000000001E-002    -2.2171934219158712E-015
  -1.3800000000000000E-002    -3.8140149462168958E-015
  -1.3749999999999998E-002    -4.6551317507336060E-015
  -1.3700000000000000E-002    -4.4462234902092462E-015
  -1.3649999999999999E-002    -3.1207041466987028E-015
  -1.3600000000000001E-002    -8.8376930139066543E-016
  -1.3550000000000000E-002     1.8079835887408391E-015
  -1.3499999999999998E-002     4.3341058682300830E-015
  -1.3450000000000000E-002     6.0500587006489444E-015
  -1.3399999999999999E-002     6.4484027612351392E-015
  -1.3350000000000001E-002     5.3013878589572564E-015
  -1.3299999999999999E-002     2.7456904610389619E-015
  -1.3249999999999998E-002    -7.1833691313669034E-016
  -1.3200000000000000E-002    -4.3203061464051507E-015
  -1.3149999999999998E-002    -7.1897682174039373E-015
  -1.3100000000000001E-002    -8.5647084966849964E-015
  -1.3049999999999999E-002    -7.9882006100376379E-015
  -1.3000000000000001E-002    -5.4428677475205656E-015
  -1.2950000000000000E-002    -1.3859608484532149E-015
  -1.2899999999999998E-002     3.3289694132598677E-015
  -1.2850000000000000E-002     7.6304065610546667E-015
  -1.2799999999999999E-002     1.0469077889180858E-014