  -4.0000000000000001E-002     0.0000000000000000     
  -3.9949999999999999E-002     0.0000000000000000     
  -3.9899999999999998E-002     0.0000000000000000     
  -3.9850000000000003E-002     0.0000000000000000     
  -3.9800000000000002E-002     0.0000000000000000     
  -3.9750000000000001E-002     0.0000000000000000     
  -3.9699999999999999E-002     0.0000000000000000     
  -3.9649999999999998E-002     0.0000000000000000     
  -3.9600000000000003E-002     0.0000000000000000     
  -3.9550000000000002E-002     0.0000000000000000     
  -3.9500000000000000E-002     0.0000000000000000     
  -3.9449999999999999E-002     0.0000000000000000     
  -3.9399999999999998E-002     0.0000000000000000     
  -3.9350000000000003E-002     0.0000000000000000     
  -3.9300000000000002E-002     0.0000000000000000     
  -3.9250000000000000E-002     0.0000000000000000     
  -3.9199999999999999E-002     0.0000000000000000     
  -3.9150000000000004E-002     0.0000000000000000     
  -3.9100000000000003E-002     0.0000000000000000     
  -3.9050000000000001E-002     0.0000000000000000     
  -3.9000000000000000E-002     0.0000000000000000     
  -3.8949999999999999E-002     0.0000000000000000     
  -3.8900000000000004E-002     0.0000000000000000     
  -3.8850000000000003E-002     0.0000000000000000     
  -3.8800000000000001E-002     0.0000000000000000     
  -3.8750000000000000E-002     0.0000000000000000     
  -3.8699999999999998E-002     0.0000000000000000     
  -3.8650000000000004E-002     0.0000000000000000     
  -3.8600000000000002E-002     0.0000000000000000     
  -3.8550000000000001E-002     0.0000000000000000     
  -3.8500000000000000E-002     0.0000000000000000     
  -3.8449999999999998E-002     0.0000000000000000     
  -3.8400000000000004E-002     0.0000000000000000     
  -3.8350000000000002E-002     0.0000000000000000     
  -3.8300000000000001E-002     0.0000000000000000     
  -3.8249999999999999E-002     0.0000000000000000     
  -3.8199999999999998E-002     0.0000000000000000     
  -3.8150000000000003E-002     0.0000000000000000     
  -3.8100000000000002E-002     0.0000000000000000     
  -3.8050000000000000E-002     0.0000000000000000     
  -3.7999999999999999E-002     0.0000000000000000     
  -3.7949999999999998E-002     0.0000000000000000     
  -3.7900000000000003E-002     0.0000000000000000     
  -3.7850000000000002E-002     0.0000000000000000     
  -3.7800000000000000E-002     0.0000000000000000     
  -3.7749999999999999E-002     0.0000000000000000     
  -3.7699999999999997E-002     0.0000000000000000     
  -3.7650000000000003E-002     0.0000000000000000     
  -3.7600000000000001E-002     0.0000000000000000     
  -3.7550000000000000E-002     0.0000000000000000     
  -3.7499999999999999E-002     0.0000000000000000     
  -3.7449999999999997E-002     0.0000000000000000     
  -3.7400000000000003E-002     0.0000000000000000     
  -3.7350000000000001E-002     0.0000000000000000     
  -3.7300000000000000E-002     0.0000000000000000     
  -3.7249999999999998E-002     0.0000000000000000     
  -3.7200000000000004E-002     0.0000000000000000     
  -3.7150000000000002E-002     0.0000000000000000     
  -3.7100000000000001E-002     0.0000000000000000     
  -3.7050000000000000E-002     0.0000000000000000     
  -3.6999999999999998E-002     0.0000000000000000     
  -3.6950000000000004E-002     0.0000000000000000     
  -3.6900000000000002E-002     0.0000000000000000     
  -3.6850000000000001E-002     0.0000000000000000     
  -3.6799999999999999E-002     0.0000000000000000     
  -3.6749999999999998E-002     0.0000000000000000     
  -3.6700000000000003E-002     0.0000000000000000     
  -3.6650000000000002E-002     0.0000000000000000     
  -3.6600000000000001E-002     0.0000000000000000     
  -3.6549999999999999E-002     0.0000000000000000     
  -3.6499999999999998E-002     0.0000000000000000     
  -3.6450000000000003E-002     0.0000000000000000     
  -3.6400000000000002E-002     0.0000000000000000     
  -3.6350000000000000E-002     0.0000000000000000     
  -3.6299999999999999E-002     0.0000000000000000     
  -3.6249999999999998E-002     0.0000000000000000     
  -3.6200000000000003E-002     0.0000000000000000     
  -3.6150000000000002E-002     0.0000000000000000     
  -3.6100000000000000E-002     0.0000000000000000     
  -3.6049999999999999E-002     0.0000000000000000     
  -3.6000000000000004E-002     0.0000000000000000     
  -3.5950000000000003E-002     0.0000000000000000     
  -3.5900000000000001E-002     0.0000000000000000     
  -3.5850000000000000E-002     0.0000000000000000     
  -3.5799999999999998E-002     0.0000000000000000     
  -3.5750000000000004E-002     0.0000000000000000     
  -3.5700000000000003E-002     0.0000000000000000     
  -3.5650000000000001E-002     0.0000000000000000     
  -3.5600000000000000E-002     0.0000000000000000     
  -3.5549999999999998E-002     0.0000000000000000     
  -3.5500000000000004E-002     0.0000000000000000     
  -3.5450000000000002E-002     0.0000000000000000     
  -3.5400000000000001E-002     0.0000000000000000     
  -3.5349999999999999E-002     0.0000000000000000     
  -3.5299999999999998E-002     0.0000000000000000     
  -3.5250000000000004E-002     0.0000000000000000     
  -3.5200000000000002E-002     0.0000000000000000     
  -3.5150000000000001E-002     0.0000000000000000     
  -3.5099999999999999E-002     0.0000000000000000     
  -3.5049999999999998E-002     0.0000000000000000     
  -3.5000000000000003E-002     0.0000000000000000     
  -3.4950000000000002E-002     0.0000000000000000     
  -3.4900000000000000E-002     0.0000000000000000     
  -3.4849999999999999E-002     0.0000000000000000     
  -3.4799999999999998E-002     0.0000000000000000     
  -3.4750000000000003E-002     0.0000000000000000     
  -3.4700000000000002E-002     0.0000000000000000     
  -3.4650000000000000E-002     0.0000000000000000     
  -3.4599999999999999E-002     0.0000000000000000     
  -3.4549999999999997E-002     0.0000000000000000     
  -3.4500000000000003E-002     0.0000000000000000     
  -3.4450000000000001E-002     0.0000000000000000     
  -3.4400000000000000E-002     0.0000000000000000     
  -3.4349999999999999E-002     0.0000000000000000     
  -3.4299999999999997E-002     0.0000000000000000     
  -3.4250000000000003E-002     0.0000000000000000     
  -3.4200000000000001E-002     0.0000000000000000     
  -3.4150000000000000E-002     0.0000000000000000     
  -3.4099999999999998E-002     0.0000000000000000     
  -3.4049999999999997E-002     0.0000000000000000     
  -3.4000000000000002E-002     0.0000000000000000     
  -3.3950000000000001E-002     0.0000000000000000     
  -3.3900000000000000E-002     0.0000000000000000     
  -3.3849999999999998E-002     0.0000000000000000     
  -3.3799999999999997E-002     0.0000000000000000     
  -3.3750000000000002E-002     0.0000000000000000     
  -3.3700000000000001E-002     0.0000000000000000     
  -3.3649999999999999E-002     0.0000000000000000     
  -3.3599999999999998E-002     0.0000000000000000     
  -3.3550000000000003E-002     0.0000000000000000     
  -3.3500000000000002E-002     0.0000000000000000     
  -3.3450000000000001E-002     0.0000000000000000     
  -3.3399999999999999E-002     0.0000000000000000     
  -3.3349999999999998E-002     0.0000000000000000     
  -3.3300000000000003E-002     0.0000000000000000     
  -3.3250000000000002E-002     0.0000000000000000     
  -3.3200000000000000E-002     0.0000000000000000     
  -3.3149999999999999E-002     0.0000000000000000     
  -3.3099999999999997E-002     0.0000000000000000     
  -3.3050000000000003E-002     0.0000000000000000     
  -3.3000000000000002E-002     0.0000000000000000     
  -3.2950000000000000E-002     0.0000000000000000     
  -3.2899999999999999E-002     0.0000000000000000     
  -3.2850000000000004E-002     0.0000000000000000     
  -3.2800000000000003E-002     0.0000000000000000     
  -3.2750000000000001E-002     0.0000000000000000     
  -3.2700000000000000E-002     0.0000000000000000     
  -3.2649999999999998E-002     0.0000000000000000     
  -3.2600000000000004E-002     0.0000000000000000     
  -3.2550000000000003E-002     0.0000000000000000     
  -3.2500000000000001E-002     0.0000000000000000     
  -3.2450000000000000E-002     0.0000000000000000     
  -3.2399999999999998E-002     0.0000000000000000     
  -3.2350000000000004E-002     0.0000000000000000     
  -3.2300000000000002E-002     0.0000000000000000     
  -3.2250000000000001E-002     0.0000000000000000     
  -3.2199999999999999E-002     0.0000000000000000     
  -3.2149999999999998E-002     0.0000000000000000     
  -3.2100000000000004E-002     0.0000000000000000     
  -3.2050000000000002E-002     0.0000000000000000     
  -3.2000000000000001E-002     0.0000000000000000     
  -3.1949999999999999E-002     0.0000000000000000     
  -3.1899999999999998E-002     0.0000000000000000     
  -3.1850000000000003E-002     0.0000000000000000     
  -3.1800000000000002E-002     0.0000000000000000     
  -3.1750000000000000E-002     0.0000000000000000     
  -3.1699999999999999E-002     0.0000000000000000     
  -3.1649999999999998E-002     0.0000000000000000     
  -3.1600000000000003E-002     0.0000000000000000     
  -3.1550000000000002E-002     0.0000000000000000     
  -3.1500000000000000E-002     0.0000000000000000     
  -3.1449999999999999E-002     0.0000000000000000     
  -3.1399999999999997E-002     0.0000000000000000     
  -3.1350000000000003E-002     0.0000000000000000     
  -3.1300000000000001E-002     0.0000000000000000     
  -3.1250000000000000E-002     0.0000000000000000     
  -3.1199999999999999E-002     0.0000000000000000     
  -3.1150000000000001E-002     0.0000000000000000     
  -3.1100000000000003E-002     0.0000000000000000     
  -3.1050000000000001E-002     0.0000000000000000     
  -3.1000000000000000E-002     0.0000000000000000     
  -3.0949999999999998E-002     0.0000000000000000     
  -3.0900000000000000E-002     0.0000000000000000     
  -3.0850000000000002E-002     0.0000000000000000     
  -3.0800000000000001E-002     0.0000000000000000     
  -3.0750000000000000E-002     0.0000000000000000     
  -3.0699999999999998E-002     0.0000000000000000     
  -3.0650000000000000E-002     0.0000000000000000     
  -3.0600000000000002E-002     0.0000000000000000     
  -3.0550000000000001E-002     0.0000000000000000     
  -3.0499999999999999E-002     0.0000000000000000     
  -3.0449999999999998E-002     0.0000000000000000     
  -3.0400000000000000E-002     0.0000000000000000     
  -3.0350000000000002E-002     0.0000000000000000     
  -3.0300000000000001E-002     0.0000000000000000     
  -3.0249999999999999E-002     0.0000000000000000     
  -3.0200000000000001E-002     0.0000000000000000     
  -3.0150000000000000E-002     0.0000000000000000     
  -3.0100000000000002E-002     0.0000000000000000     
  -3.0050000000000000E-002     0.0000000000000000     
  -2.9999999999999999E-002     0.0000000000000000     
  -2.9950000000000001E-002     0.0000000000000000     
  -2.9899999999999999E-002     0.0000000000000000     
  -2.9850000000000002E-002     0.0000000000000000     
  -2.9800000000000000E-002     0.0000000000000000     
  -2.9749999999999999E-002     0.0000000000000000     
  -2.9700000000000001E-002     0.0000000000000000     
  -2.9650000000000003E-002     0.0000000000000000     
  -2.9600000000000001E-002     0.0000000000000000     
  -2.9550000000000000E-002     0.0000000000000000     
  -2.9499999999999998E-002     0.0000000000000000     
  -2.9450000000000000E-002     0.0000000000000000     
  -2.9400000000000003E-002     0.0000000000000000     
  -2.9350000000000001E-002     0.0000000000000000     
  -2.9300000000000000E-002     0.0000000000000000     
  -2.9249999999999998E-002     0.0000000000000000     
  -2.9200000000000000E-002     0.0000000000000000     
  -2.9150000000000002E-002     0.0000000000000000     
  -2.9100000000000001E-002     0.0000000000000000     
  -2.9049999999999999E-002     0.0000000000000000     
  -2.8999999999999998E-002     0.0000000000000000     
  -2.8950000000000000E-002     0.0000000000000000     
  -2.8900000000000002E-002     0.0000000000000000     
  -2.8850000000000001E-002     0.0000000000000000     
  -2.8799999999999999E-002     0.0000000000000000     
  -2.8749999999999998E-002     0.0000000000000000     
  -2.8700000000000000E-002     0.0000000000000000     
  -2.8650000000000002E-002     0.0000000000000000     
  -2.8600000000000000E-002     0.0000000000000000     
  -2.8549999999999999E-002     0.0000000000000000     
  -2.8500000000000001E-002     0.0000000000000000     
  -2.8450000000000000E-002     0.0000000000000000     
  -2.8400000000000002E-002     0.0000000000000000     
  -2.8350000000000000E-002     0.0000000000000000     
  -2.8299999999999999E-002     0.0000000000000000     
  -2.8250000000000001E-002     0.0000000000000000     
  -2.8200000000000003E-002     0.0000000000000000     
  -2.8150000000000001E-002     0.0000000000000000     
  -2.8100000000000000E-002     0.0000000000000000     
  -2.8049999999999999E-002     0.0000000000000000     
  -2.8000000000000001E-002     0.0000000000000000     
  -2.7950000000000003E-002     0.0000000000000000     
  -2.7900000000000001E-002     0.0000000000000000     
  -2.7850000000000000E-002     0.0000000000000000     
  -2.7799999999999998E-002     0.0000000000000000     
  -2.7750000000000000E-002     0.0000000000000000     
  -2.7700000000000002E-002     0.0000000000000000     
  -2.7650000000000001E-002     0.0000000000000000     
  -2.7600000000000000E-002     0.0000000000000000     
  -2.7549999999999998E-002     0.0000000000000000     
  -2.7500000000000000E-002     0.0000000000000000     
  -2.7450000000000002E-002     0.0000000000000000     
  -2.7400000000000001E-002     0.0000000000000000     
  -2.7349999999999999E-002     0.0000000000000000     
  -2.7299999999999998E-002     0.0000000000000000     
  -2.7250000000000000E-002     0.0000000000000000     
  -2.7200000000000002E-002     0.0000000000000000     
  -2.7150000000000001E-002     0.0000000000000000     
  -2.7099999999999999E-002     0.0000000000000000     
  -2.7049999999999998E-002     0.0000000000000000     
  -2.7000000000000000E-002     0.0000000000000000     
  -2.6950000000000002E-002     0.0000000000000000     
  -2.6900000000000000E-002     0.0000000000000000     
  -2.6849999999999999E-002     0.0000000000000000     
  -2.6800000000000001E-002     0.0000000000000000     
  -2.6749999999999999E-002     0.0000000000000000     
  -2.6700000000000002E-002     0.0000000000000000     
  -2.6650000000000000E-002     0.0000000000000000     
  -2.6599999999999999E-002     0.0000000000000000     
  -2.6550000000000001E-002     0.0000000000000000     
  -2.6500000000000003E-002     0.0000000000000000     
  -2.6450000000000001E-002     0.0000000000000000     
  -2.6400000000000000E-002     0.0000000000000000     
  -2.6349999999999998E-002     0.0000000000000000     
  -2.6300000000000000E-002     0.0000000000000000     
  -2.6250000000000002E-002     0.0000000000000000     
  -2.6200000000000001E-002     0.0000000000000000     
  -2.6150000000000000E-002     0.0000000000000000     
  -2.6099999999999998E-002     0.0000000000000000     
  -2.6050000000000000E-002     0.0000000000000000     
  -2.6000000000000002E-002     0.0000000000000000     
  -2.5950000000000001E-002     0.0000000000000000     
  -2.5899999999999999E-002     0.0000000000000000     
  -2.5849999999999998E-002     0.0000000000000000     
  -2.5800000000000000E-002     0.0000000000000000     
  -2.5750000000000002E-002     0.0000000000000000     
  -2.5700000000000001E-002     0.0000000000000000     
  -2.5649999999999999E-002     0.0000000000000000     
  -2.5599999999999998E-002     0.0000000000000000     
  -2.5550000000000000E-002     0.0000000000000000     
  -2.5500000000000002E-002     0.0000000000000000     
  -2.5450000000000000E-002     0.0000000000000000     
  -2.5399999999999999E-002     0.0000000000000000     
  -2.5349999999999998E-002     0.0000000000000000     
  -2.5300000000000000E-002     0.0000000000000000     
  -2.5250000000000002E-002     0.0000000000000000     
  -2.5200000000000000E-002     0.0000000000000000     
  -2.5149999999999999E-002     0.0000000000000000     
  -2.5100000000000001E-002     0.0000000000000000     
  -2.5049999999999999E-002     0.0000000000000000     
  -2.5000000000000001E-002     0.0000000000000000     
  -2.4950000000000000E-002     0.0000000000000000     
  -2.4899999999999999E-002     0.0000000000000000     
  -2.4850000000000001E-002     0.0000000000000000     
  -2.4800000000000003E-002     0.0000000000000000     
  -2.4750000000000001E-002     0.0000000000000000     
  -2.4700000000000000E-002     0.0000000000000000     
  -2.4649999999999998E-002     0.0000000000000000     
  -2.4600000000000000E-002     0.0000000000000000     
  -2.4550000000000002E-002     0.0000000000000000     
  -2.4500000000000001E-002     0.0000000000000000     
  -2.4450000000000000E-002     0.0000000000000000     
  -2.4399999999999998E-002     0.0000000000000000     
  -2.4350000000000000E-002     0.0000000000000000     
  -2.4299999999999999E-002     0.0000000000000000     
  -2.4250000000000001E-002     0.0000000000000000     
  -2.4199999999999999E-002     0.0000000000000000     
  -2.4150000000000001E-002     0.0000000000000000     
  -2.4100000000000000E-002     0.0000000000000000     
  -2.4049999999999998E-002     0.0000000000000000     
  -2.4000000000000000E-002     0.0000000000000000     
  -2.3949999999999999E-002     0.0000000000000000     
  -2.3900000000000001E-002     0.0000000000000000     
  -2.3850000000000000E-002     0.0000000000000000     
  -2.3800000000000002E-002     0.0000000000000000     
  -2.3750000000000000E-002     0.0000000000000000     
  -2.3699999999999999E-002     0.0000000000000000     
  -2.3650000000000001E-002     0.0000000000000000     
  -2.3599999999999999E-002     0.0000000000000000     
  -2.3550000000000001E-002     0.0000000000000000     
  -2.3500000000000000E-002     0.0000000000000000     
  -2.3449999999999999E-002     0.0000000000000000     
  -2.3400000000000001E-002     0.0000000000000000     
  -2.3349999999999999E-002     0.0000000000000000     
  -2.3300000000000001E-002     0.0000000000000000     
  -2.3250000000000000E-002     0.0000000000000000     
  -2.3199999999999998E-002     0.0000000000000000     
  -2.3150000000000000E-002     0.0000000000000000     
  -2.3099999999999999E-002     0.0000000000000000     
  -2.3050000000000001E-002     0.0000000000000000     
  -2.3000000000000000E-002     0.0000000000000000     
  -2.2950000000000002E-002     0.0000000000000000     
  -2.2900000000000000E-002     0.0000000000000000     
  -2.2849999999999999E-002     0.0000000000000000     
  -2.2800000000000001E-002     0.0000000000000000     
  -2.2749999999999999E-002     0.0000000000000000     
  -2.2700000000000001E-002     0.0000000000000000     
  -2.2650000000000000E-002     0.0000000000000000     
  -2.2599999999999999E-002     0.0000000000000000     
  -2.2550000000000001E-002     0.0000000000000000     
  -2.2499999999999999E-002     0.0000000000000000     
  -2.2450000000000001E-002     0.0000000000000000     
  -2.2400000000000000E-002     0.0000000000000000     
  -2.2349999999999998E-002     0.0000000000000000     
  -2.2300000000000000E-002     0.0000000000000000     
  -2.2249999999999999E-002     0.0000000000000000     
  -2.2200000000000001E-002     0.0000000000000000     
  -2.2150000000000000E-002     0.0000000000000000     
  -2.2100000000000002E-002     0.0000000000000000     
  -2.2050000000000000E-002     0.0000000000000000     
  -2.1999999999999999E-002     0.0000000000000000     
  -2.1950000000000001E-002     0.0000000000000000     
  -2.1899999999999999E-002     0.0000000000000000     
  -2.1850000000000001E-002     0.0000000000000000     
  -2.1800000000000000E-002     0.0000000000000000     
  -2.1749999999999999E-002     0.0000000000000000     
  -2.1700000000000001E-002     0.0000000000000000     
  -2.1649999999999999E-002     0.0000000000000000     
  -2.1600000000000001E-002     0.0000000000000000     
  -2.1550000000000000E-002     0.0000000000000000     
  -2.1499999999999998E-002     0.0000000000000000     
  -2.1450000000000000E-002     0.0000000000000000     
  -2.1399999999999999E-002     0.0000000000000000     
  -2.1350000000000001E-002     0.0000000000000000     
  -2.1299999999999999E-002     0.0000000000000000     
  -2.1250000000000002E-002     0.0000000000000000     
  -2.1200000000000000E-002     0.0000000000000000     
  -2.1149999999999999E-002     0.0000000000000000     
  -2.1100000000000001E-002     0.0000000000000000     
  -2.1049999999999999E-002     3.6149768269338205E-040
  -2.1000000000000001E-002     3.6149768269338205E-040
  -2.0950000000000000E-002     3.6149768269338205E-040
  -2.0899999999999998E-002     0.0000000000000000     
  -2.0850000000000000E-002    -1.1071592513190630E-039
  -2.0799999999999999E-002    -2.5183442073048733E-039
  -2.0750000000000001E-002    -3.0874654278583793E-039
  -2.0700000000000000E-002    -2.2205162855429907E-039
  -2.0649999999999998E-002     1.0555093718475724E-039
  -2.0600000000000000E-002     7.3010745486575138E-039
  -2.0549999999999999E-002     1.3288669299253312E-038
  -2.0500000000000001E-002     1.4890962750298756E-038
  -2.0449999999999999E-002     8.6350852449753791E-039
  -2.0400000000000001E-002    -4.0356454833265717E-039
  -2.0350000000000000E-002    -2.1841329583591143E-038
  -2.0299999999999999E-002    -3.8753875229113964E-038
  -2.0250000000000001E-002    -4.3908380483406509E-038
  -2.0199999999999999E-002    -3.2464360697744292E-038
  -2.0150000000000001E-002    -3.7544045336699061E-039
  -2.0100000000000000E-002     3.4552358100742538E-038
  -2.0049999999999998E-002     5.8021524956109442E-038
  -2.0000000000000000E-002     5.4686355816543162E-038
  -1.9949999999999999E-002     2.1977648050487632E-038
  -1.9900000000000001E-002    -2.1764169967120776E-038
  -1.9850000000000000E-002    -5.7862629098629015E-038
  -1.9799999999999998E-002    -8.6355542519252175E-038
  -1.9750000000000000E-002    -6.7833817608972699E-038
  -1.9699999999999999E-002    -6.1895860209501024E-039
  -1.9650000000000001E-002     6.4669856380250010E-038
  -1.9599999999999999E-002     1.1910410440896883E-037
  -1.9550000000000001E-002     1.3510409187741087E-037
  -1.9500000000000000E-002     1.1377932512798344E-037
  -1.9449999999999999E-002     5.5470351045242346E-038
  -1.9400000000000001E-002    -2.7359644540941333E-038
  -1.9349999999999999E-002    -8.6945682352834743E-038
  -1.9300000000000001E-002    -9.9776321841478045E-038
  -1.9250000000000000E-002    -8.2631838199847924E-038
  -1.9199999999999998E-002    -5.4996014367234752E-038
  -1.9150000000000000E-002    -6.7905830489752740E-038
  -1.9099999999999999E-002    -1.5248299088465580E-037
  -1.9050000000000001E-002    -2.8571895623035364E-037
  -1.9000000000000000E-002    -3.9977295825933193E-037
  -1.8949999999999998E-002    -3.7336066653769489E-037
  -1.8900000000000000E-002    -8.0022915489589375E-038
  -1.8849999999999999E-002     5.1959905029425091E-037
  -1.8800000000000001E-002     1.3315771348357866E-036
  -1.8749999999999999E-002     2.0765173489361833E-036
  -1.8700000000000001E-002     2.3382661850269778E-036
  -1.8650000000000000E-002     1.6975161090870543E-036
  -1.8599999999999998E-002    -6.6984732842885853E-038
  -1.8550000000000001E-002    -2.7779454646326984E-036
  -1.8499999999999999E-002    -5.7539003661715723E-036
  -1.8450000000000001E-002    -7.8823126963463251E-036
  -1.8400000000000000E-002    -7.9071411130961140E-036
  -1.8349999999999998E-002    -4.8875335207380736E-036
  -1.8300000000000000E-002     1.3026513042023220E-036
  -1.8249999999999999E-002     9.6246214291589541E-036
  -1.8200000000000001E-002     1.7856446591281020E-035
  -1.8149999999999999E-002     2.3009462227401293E-035
  -1.8100000000000002E-002     2.2151607803017768E-035
  -1.8050000000000000E-002     1.3437662987869773E-035
  -1.7999999999999999E-002    -2.9501457215562402E-036
  -1.7950000000000001E-002    -2.4283750399202543E-035
  -1.7899999999999999E-002    -4.5438529736871643E-035
  -1.7850000000000001E-002    -5.9786542994301391E-035
  -1.7800000000000000E-002    -6.0709466805224872E-035
  -1.7749999999999998E-002    -4.3440996501373732E-035
  -1.7700000000000000E-002    -6.8605447599121562E-036
  -1.7649999999999999E-002     4.5146732071992093E-035
  -1.7600000000000001E-002     1.0311208080992144E-034
  -1.7550000000000000E-002     1.5249941995621803E-034
  -1.7499999999999998E-002     1.7560029522582907E-034
  -1.7450000000000000E-002     1.5501929669171556E-034
  -1.7399999999999999E-002     7.8721239401896090E-035
  -1.7350000000000001E-002    -5.3901671717487549E-035
  -1.7299999999999999E-002    -2.2628027598746153E-034
  -1.7250000000000001E-002    -4.0144804908706393E-034
  -1.7200000000000000E-002    -5.2408809577618564E-034
  -1.7149999999999999E-002    -5.3021665227083253E-034
  -1.7100000000000001E-002    -3.6516647212505062E-034
  -1.7049999999999999E-002    -7.4742291322447255E-036
  -1.7000000000000001E-002     5.0749749289004190E-034
  -1.6950000000000000E-002     1.0735250586649274E-033
  -1.6899999999999998E-002     1.5192008730614244E-033
  -1.6850000000000000E-002     1.6404133878651430E-033
  -1.6799999999999999E-002     1.2593633711626044E-033
  -1.6750000000000001E-002     2.9934789384761867E-034
  -1.6700000000000000E-002    -1.1461006506768141E-033
  -1.6649999999999998E-002    -2.7776916450867367E-033
  -1.6600000000000000E-002    -4.1147312564258766E-033
  -1.6549999999999999E-002    -4.5932973671579209E-033
  -1.6500000000000001E-002    -3.7301916440013989E-033
  -1.6449999999999999E-002    -1.3180535908168389E-033
  -1.6400000000000001E-002     2.4058518575530796E-033
  -1.6350000000000000E-002     6.6843358904451325E-033
  -1.6299999999999999E-002     1.0314740325464524E-032
  -1.6250000000000001E-002     1.1895917244514657E-032
  -1.6199999999999999E-002     1.0219667796453876E-032
  -1.6150000000000001E-002     4.7228908009829521E-033
  -1.6100000000000000E-002    -4.1267628274030446E-033
  -1.6049999999999998E-002    -1.4653366966905903E-032
  -1.6000000000000000E-002    -2.4118928736859365E-032
  -1.5949999999999999E-002    -2.9241221674284503E-032
  -1.5900000000000001E-002    -2.7032252829213523E-032
  -1.5850000000000000E-002    -1.5797908987989138E-032
  -1.5799999999999998E-002     3.9506682239779608E-033
  -1.5750000000000000E-002     2.8966462484648934E-032
  -1.5699999999999999E-002     5.3382628249706729E-032
  -1.5650000000000001E-002     6.9634853363949856E-032
  -1.5599999999999999E-002     7.0169945977074438E-032
  -1.5550000000000001E-002     4.9693006628976188E-032
  -1.5500000000000000E-002     7.4743378064595461E-033
  -1.5449999999999998E-002    -5.0936357961084248E-032
  -1.5400000000000000E-002    -1.1328992118621312E-031
  -1.5349999999999999E-002    -1.6207677955464090E-031
  -1.5300000000000001E-002    -1.7803698244919489E-031
  -1.5250000000000000E-002    -1.4540402767248114E-031
  -1.5199999999999998E-002    -5.7891955294466883E-032
  -1.5150000000000000E-002     7.6156933954490989E-032
  -1.5099999999999999E-002     2.3136125539021960E-031
  -1.5050000000000001E-002     3.6734846117910965E-031
  -1.4999999999999999E-002     4.3618228435315903E-031
  -1.4949999999999998E-002     3.9469479563210913E-031
  -1.4900000000000000E-002     2.1949797309379069E-031
  -1.4849999999999999E-002    -7.9188602158065636E-032
  -1.4800000000000001E-002    -4.4969916580246110E-031
  -1.4749999999999999E-002    -8.0155545248255515E-031
  -1.4700000000000001E-002    -1.0211544358078998E-030
  -1.4650000000000000E-002    -9.9972283652951252E-031
  -1.4599999999999998E-002    -6.6855690570625260E-031
  -1.4550000000000000E-002    -3.2686977355375752E-032
  -1.4499999999999999E-002     8.0810259460636072E-031
  -1.4450000000000001E-002     1.6612814256827542E-030
  -1.4400000000000000E-002     2.2727958765191805E-030
  -1.4349999999999998E-002     2.3863529415797963E-030
  -1.4300000000000000E-002     1.8205705440218377E-030
  -1.4249999999999999E-002     5.4545037456550528E-031
  -1.4200000000000001E-002    -1.2652523542984749E-030
  -1.4149999999999999E-002    -3.2282274513375412E-030
  -1.4099999999999998E-002    -4.8058397037137573E-030
  -1.4050000000000000E-002    -5.4224553287205968E-030
  -1.3999999999999999E-002    -4.6238542980880066E-030
  -1.3950000000000001E-002    -2.2443424494756536E-030
  -1.3899999999999999E-002     1.4652745784204477E-030
  -1.3850000000000001E-002     5.7964919374837099E-030
  -1.3800000000000000E-002     9.6636681647599763E-030
  -1.3749999999999998E-002     1.1815493166761445E-029
  -1.3700000000000000E-002     1.1151480192147112E-029
  -1.3649999999999999E-002     7.0808378839234967E-030
  -1.3600000000000001E-002    -1.6761459730985420E-031
  -1.3550000000000000E-002    -9.3863690263481919E-030
  -1.3499999999999998E-002    -1.8467483245738555E-029
  -1.3450000000000000E-002    -2.4760758896149747E-029
  -1.3399999999999999E-002    -2.5686184362659053E-029
  -1.3350000000000001E-002    -1.9495266266450718E-029
  -1.3299999999999999E-002    -6.0036793099560040E-030
  -1.3249999999999998E-002     1.2923849782916156E-029
  -1.3200000000000000E-002     3.3345514933106064E-029
  -1.3149999999999998E-002     4.9806893716442202E-029
  -1.3100000000000001E-002     5.6499237850453644E-029
  -1.3049999999999999E-002     4.8839999480109772E-029
  -1.3000000000000001E-002     2.5132176107878578E-029
  -1.2950000000000000E-002    -1.2159895342367896E-029
  -1.2899999999999998E-002    -5.5996327831243537E-029
  -1.2850000000000000E-002    -9.5564996072509787E-029
  -1.2799999999999999E-002    -1.1839695456595283E-028