  -4.0000000000000001E-002     0.0000000000000000     
  -3.9949999999999999E-002     0.0000000000000000     
  -3.9899999999999998E-002     0.0000000000000000     
  -3.9850000000000003E-002     0.0000000000000000     
  -3.9800000000000002E-002     0.0000000000000000     
  -3.9750000000000001E-002     0.0000000000000000     
  -3.9699999999999999E-002     0.0000000000000000     
  -3.9649999999999998E-002     0.0000000000000000     
  -3.9600000000000003E-002     0.0000000000000000     
  -3.9550000000000002E-002     0.0000000000000000     
  -3.9500000000000000E-002     0.0000000000000000     
  -3.9449999999999999E-002     0.0000000000000000     
  -3.9399999999999998E-002     0.0000000000000000     
  -3.9350000000000003E-002     0.0000000000000000     
  -3.9300000000000002E-002     0.0000000000000000     
  -3.9250000000000000E-002     0.0000000000000000     
  -3.9199999999999999E-002     0.0000000000000000     
  -3.9150000000000004E-002     0.0000000000000000     
  -3.9100000000000003E-002     0.0000000000000000     
  -3.9050000000000001E-002     0.0000000000000000     
  -3.9000000000000000E-002     0.0000000000000000     
  -3.8949999999999999E-002     0.0000000000000000     
  -3.8900000000000004E-002     0.0000000000000000     
  -3.8850000000000003E-002     0.0000000000000000     
  -3.8800000000000001E-002     0.0000000000000000     
  -3.8750000000000000E-002     0.0000000000000000     
  -3.8699999999999998E-002     0.0000000000000000     
  -3.8650000000000004E-002     0.0000000000000000     
  -3.8600000000000002E-002     0.0000000000000000     
  -3.8550000000000001E-002     0.0000000000000000     
  -3.8500000000000000E-002     0.0000000000000000     
  -3.8449999999999998E-002     0.0000000000000000     
  -3.8400000000000004E-002     0.0000000000000000     
  -3.8350000000000002E-002     0.0000000000000000     
  -3.8300000000000001E-002     0.0000000000000000     
  -3.8249999999999999E-002     0.0000000000000000     
  -3.8199999999999998E-002     0.0000000000000000     
  -3.8150000000000003E-002     0.0000000000000000     
  -3.8100000000000002E-002     0.0000000000000000     
  -3.8050000000000000E-002     0.0000000000000000     
  -3.7999999999999999E-002     0.0000000000000000     
  -3.7949999999999998E-002     0.0000000000000000     
  -3.7900000000000003E-002     0.0000000000000000     
  -3.7850000000000002E-002     0.0000000000000000     
  -3.7800000000000000E-002     0.0000000000000000     
  -3.7749999999999999E-002     0.0000000000000000     
  -3.7699999999999997E-002     0.0000000000000000     
  -3.7650000000000003E-002     0.0000000000000000     
  -3.7600000000000001E-002     0.0000000000000000     
  -3.7550000000000000E-002     0.0000000000000000     
  -3.7499999999999999E-002     0.0000000000000000     
  -3.7449999999999997E-002     0.0000000000000000     
  -3.7400000000000003E-002    -5.4082131879033974E-041
  -3.7350000000000001E-002    -1.0260235533732631E-040
  -3.7300000000000000E-002     1.0612698747976769E-040
  -3.7249999999999998E-002     6.4419401109340363E-040
  -3.7200000000000004E-002     1.4033938678381595E-039
  -3.7150000000000002E-002     1.4508229268411108E-039
  -3.7100000000000001E-002    -7.1433543451449973E-040
  -3.7050000000000000E-002     6.7844849661872569E-039
  -3.6999999999999998E-002     2.6617314416073305E-038
  -3.6950000000000004E-002     5.0702607157908911E-038
  -3.6900000000000002E-002     1.3071233047619950E-038
  -3.6850000000000001E-002    -1.6201890523697311E-037
  -3.6799999999999999E-002    -4.6261032538834563E-037
  -3.6749999999999998E-002    -7.6874840902801391E-037
  -3.6700000000000003E-002    -7.6700056038833971E-037
  -3.6650000000000002E-002     5.5610442264370994E-038
  -3.6600000000000001E-002     2.2450521879692733E-036
  -3.6549999999999999E-002     5.8834807615305508E-036
  -3.6499999999999998E-002     9.7454632991896914E-036
  -3.6450000000000003E-002     1.0436698170256729E-035
  -3.6400000000000002E-002     2.3772230212380614E-036
  -3.6350000000000000E-002    -2.0081393766435061E-035
  -3.6299999999999999E-002    -5.7398085503169524E-035
  -3.6249999999999998E-002    -9.7143380227957476E-035
  -3.6200000000000003E-002    -1.0788109522607292E-034
  -3.6150000000000002E-002    -4.2431279298464601E-035
  -3.6100000000000000E-002     1.4062130447087553E-034
  -3.6049999999999999E-002     4.3434231056094490E-034
  -3.6000000000000004E-002     7.3286399057580848E-034
  -3.5950000000000003E-002     8.0805947856247732E-034
  -3.5900000000000001E-002     3.6345281065869166E-034
  -3.5850000000000000E-002    -7.9918035264923801E-034
  -3.5799999999999998E-002    -2.5263683379954260E-033
  -3.5750000000000004E-002    -4.0986685923021936E-033
  -3.5700000000000003E-002    -4.2689086477111251E-033
  -3.5650000000000001E-002    -1.7505915406726850E-033
  -3.5600000000000000E-002     3.8463596653022048E-033
  -3.5549999999999998E-002     1.1010844599099938E-032
  -3.5500000000000004E-002     1.6010724402203431E-032
  -3.5450000000000002E-002     1.4061171497706332E-032
  -3.5400000000000001E-002     2.1941891181629627E-033
  -3.5349999999999999E-002    -1.7198337614893945E-032
  -3.5299999999999998E-002    -3.4519494270967180E-032
  -3.5250000000000004E-002    -3.5577102827982002E-032
  -3.5200000000000002E-002    -9.7877304950168697E-033
  -3.5150000000000001E-002     3.8620678163853010E-032
  -3.5099999999999999E-002     8.3269577852969139E-032
  -3.5049999999999998E-002     8.0692401037283738E-032
  -3.5000000000000003E-002    -7.6449641764136889E-033
  -3.4950000000000002E-002    -1.8186923693167259E-031
  -3.4900000000000000E-002    -3.7618063228147801E-031
  -3.4849999999999999E-002    -4.6028609571230356E-031
  -3.4799999999999998E-002    -2.8441446736981922E-031
  -3.4750000000000003E-002     2.4025520207753458E-031
  -3.4700000000000002E-002     1.0602596302716179E-030
  -3.4650000000000000E-002     1.9431226490641926E-030
  -3.4599999999999999E-002     2.5119927917516253E-030
  -3.4549999999999997E-002     2.3355640620719217E-030
  -3.4500000000000003E-002     1.0220377146029365E-030
  -3.4450000000000001E-002    -1.7192748993781231E-030
  -3.4400000000000000E-002    -6.0045848349399300E-030
  -3.4349999999999999E-002    -1.1549132967458673E-029
  -3.4299999999999997E-002    -1.7148535463692606E-029
  -3.4250000000000003E-002    -1.9951422411201828E-029
  -3.4200000000000001E-002    -1.5054079794104974E-029
  -3.4150000000000000E-002     3.6044392725637075E-030
  -3.4099999999999998E-002     4.0069605330076844E-029
  -3.4049999999999997E-002     9.0864069677637233E-029
  -3.4000000000000002E-002     1.3902601898966357E-028
  -3.3950000000000001E-002     1.5186442090724404E-028
  -3.3900000000000000E-002     8.7737949505366445E-029
  -3.3849999999999998E-002    -8.4699348678224608E-029
  -3.3799999999999997E-002    -3.5724402458697641E-028
  -3.3750000000000002E-002    -6.5418575438179068E-028
  -3.3700000000000001E-002    -8.2478836908625964E-028
  -3.3649999999999999E-002    -6.7619930182488833E-028
  -3.3599999999999998E-002    -5.5344007355516676E-029
  -3.3550000000000003E-002     1.0359952889285750E-027
  -3.3500000000000002E-002     2.3387709478162249E-027
  -3.3450000000000001E-002     3.3134674487541016E-027
  -3.3399999999999999E-002     3.2561493550052653E-027
  -3.3349999999999998E-002     1.5691354232662200E-027
  -3.3300000000000003E-002    -1.8750546489492655E-027
  -3.3250000000000002E-002    -6.4186806192637059E-027
  -3.3200000000000000E-002    -1.0536468845859088E-026
  -3.3149999999999999E-002    -1.2132113938382085E-026
  -3.3099999999999997E-002    -9.2311808346107173E-027
  -3.3050000000000003E-002    -9.0338471865279285E-028
  -3.3000000000000002E-002     1.1915591018149152E-026
  -3.2950000000000000E-002     2.6083605849916048E-026
  -3.2899999999999999E-002     3.6660622120178327E-026
  -3.2850000000000004E-002     3.8083577167814290E-026
  -3.2800000000000003E-002     2.5846842840321068E-026
  -3.2750000000000001E-002    -1.7381697243737313E-027
  -3.2700000000000000E-002    -4.2105906174878222E-026
  -3.2649999999999998E-002    -8.7568647400287049E-026
  -3.2600000000000004E-002    -1.2517112616965741E-025
  -3.2550000000000003E-002    -1.3758859509851382E-025
  -3.2500000000000001E-002    -1.0581298280926243E-025
  -3.2450000000000000E-002    -1.4689025047339585E-026
  -3.2399999999999998E-002     1.3809264764769723E-025
  -3.2350000000000004E-002     3.3076063895603498E-025
  -3.2300000000000002E-002     5.0831730966562654E-025
  -3.2250000000000001E-002     5.8297556128493687E-025
  -3.2199999999999999E-002     4.5250230652442910E-025
  -3.2149999999999998E-002     4.0698597592239725E-026
  -3.2100000000000004E-002    -6.4587507505222990E-025
  -3.2050000000000002E-002    -1.4648188046651476E-024
  -3.2000000000000001E-002    -2.1201159926435933E-024
  -3.1949999999999999E-002    -2.2122451718052511E-024
  -3.1899999999999998E-002    -1.3716662134802146E-024
  -3.1850000000000003E-002     5.4465085472531092E-025
  -3.1800000000000002E-002     3.2586976543326631E-024
  -3.1750000000000000E-002     5.9777071713574802E-024
  -3.1699999999999999E-002     7.4991582215728283E-024
  -3.1649999999999998E-002     6.5609043502180417E-024
  -3.1600000000000003E-002     2.3843364185690940E-024
  -3.1550000000000002E-002    -4.7572231654074677E-024
  -3.1500000000000000E-002    -1.3195092216338805E-023
  -3.1449999999999999E-002    -1.9993070487879958E-023
  -3.1399999999999997E-002    -2.1673084884090531E-023
  -3.1350000000000003E-002    -1.5446044611831509E-023
  -3.1300000000000001E-002    -6.0548972630669678E-025
  -3.1250000000000000E-002     2.0435830560146304E-023
  -3.1199999999999999E-002     4.1994586465350926E-023
  -3.1150000000000001E-002     5.6172469649524407E-023
  -3.1100000000000003E-002     5.5058226979196592E-023
  -3.1050000000000001E-002     3.3576373379254217E-023
  -3.1000000000000000E-002    -7.8539290900228565E-024
  -3.0949999999999998E-002    -6.1786070321269823E-023
  -3.0900000000000000E-002    -1.1408581514037255E-022
  -3.0850000000000002E-002    -1.4646136780887164E-022
  -3.0800000000000001E-002    -1.4095645596172008E-022
  -3.0750000000000000E-002    -8.5651721686079998E-023
  -3.0699999999999998E-002     1.9609478720521729E-023
  -3.0650000000000000E-002     1.5896181928950009E-022
  -3.0600000000000002E-002     2.9938935570314974E-022
  -3.0550000000000001E-002     3.9433627987372640E-022
  -3.0499999999999999E-002     3.9316006259220041E-022
  -3.0449999999999998E-002     2.5629163908693957E-022
  -3.0400000000000000E-002    -2.6145233074078429E-023
  -3.0350000000000002E-002    -4.1719921041193377E-022
  -3.0300000000000001E-002    -8.2475882371636681E-022
  -3.0249999999999999E-002    -1.1099544913787663E-021
  -3.0200000000000001E-002    -1.1176126154349408E-021
  -3.0150000000000000E-002    -7.2754348316372030E-022
  -3.0100000000000002E-002     8.4084263583645964E-023
  -3.0050000000000000E-002     1.1936120072052551E-021
  -2.9999999999999999E-002     2.3145350471017564E-021
  -2.9950000000000001E-002     3.0398108488354857E-021
  -2.9899999999999999E-002     2.9489636485809175E-021
  -2.9850000000000002E-002     1.7631233861164747E-021
  -2.9800000000000000E-002    -4.9522548926857147E-022
  -2.9749999999999999E-002    -3.3992700056400964E-021
  -2.9700000000000001E-002    -6.1325376321760150E-021
  -2.9650000000000003E-002    -7.6563772498183594E-021
  -2.9600000000000001E-002    -7.0170528587597343E-021
  -2.9550000000000000E-002    -3.7208979054179958E-021
  -2.9499999999999998E-002     1.9418468478245499E-021
  -2.9450000000000000E-002     8.7592972930328725E-021
  -2.9400000000000003E-002     1.4749515454481489E-020
  -2.9350000000000001E-002     1.7626347026871916E-020
  -2.9300000000000000E-002     1.5497986703512070E-020
  -2.9249999999999998E-002     7.6149532495383686E-021
  -2.9200000000000000E-002    -5.0751167549902011E-021
  -2.9150000000000002E-002    -1.9796394069357009E-020
  -2.9100000000000001E-002    -3.2376253884606790E-020
  -2.9049999999999999E-002    -3.8224268842852354E-020
  -2.8999999999999998E-002    -3.3669085836375001E-020
  -2.8950000000000000E-002    -1.7318967870851290E-020
  -2.8900000000000002E-002     8.9559378277462718E-021
  -2.8850000000000001E-002     3.9785022183991062E-020
  -2.8799999999999999E-002     6.7026700852371090E-020
  -2.8749999999999998E-002     8.1469881889079211E-020
  -2.8700000000000000E-002     7.5254577485504060E-020
  -2.8650000000000002E-002     4.4517445592477012E-020
  -2.8600000000000000E-002    -8.4056852197800214E-021
  -2.8549999999999999E-002    -7.3943958169970338E-020
  -2.8500000000000001E-002    -1.3604005755657553E-019
  -2.8450000000000000E-002    -1.7500283220412323E-019
  -2.8400000000000002E-002    -1.7229482901924643E-019
  -2.8350000000000000E-002    -1.1646361618130965E-019
  -2.8299999999999999E-002    -8.8003245263709373E-021
  -2.8250000000000001E-002     1.3311571210515807E-019
  -2.8200000000000003E-002     2.7581758898358121E-019
  -2.8150000000000001E-002     3.7550057498672790E-019
  -2.8100000000000000E-002     3.8864393228006504E-019
  -2.8049999999999999E-002     2.8589720285780823E-019
  -2.8000000000000001E-002     6.5703803263054527E-020
  -2.7950000000000003E-002    -2.3694265037690195E-019
  -2.7900000000000001E-002    -5.5102668637643237E-019
  -2.7850000000000000E-002    -7.8193730475152463E-019
  -2.7799999999999998E-002    -8.3512597308209233E-019
  -2.7750000000000000E-002    -6.4631515309329793E-019
  -2.7700000000000002E-002    -2.1005250979121610E-019
  -2.7650000000000001E-002     4.0322895214091273E-019
  -2.7600000000000000E-002     1.0501680355115709E-018
  -2.7549999999999998E-002     1.5414247155728124E-018
  -2.7500000000000000E-002     1.6896382973051289E-018
  -2.7450000000000002E-002     1.3678815411088780E-018
  -2.7400000000000001E-002     5.6242410309568948E-019
  -2.7349999999999999E-002    -5.9792771767007986E-019
  -2.7299999999999998E-002    -1.8498077712276284E-018
  -2.7250000000000000E-002    -2.8455273968081914E-018
  -2.7200000000000002E-002    -3.2384812724839291E-018
  -2.7150000000000001E-002    -2.7848034535368009E-018
  -2.7099999999999999E-002    -1.4343709960624913E-018
  -2.7049999999999998E-002     6.1697688473720106E-019
  -2.7000000000000000E-002     2.9354385293282903E-018
  -2.6950000000000002E-002     4.9253001793249536E-018
  -2.6900000000000000E-002     5.9633661664478905E-018
  -2.6849999999999999E-002     5.5649961847668915E-018
  -2.6800000000000001E-002     3.5426901085532894E-018
  -2.6749999999999999E-002     1.1420204498593763E-019
  -2.6700000000000002E-002    -4.0767304163050948E-018
  -2.6650000000000000E-002    -8.0480576469542274E-018
  -2.6599999999999999E-002    -1.0673189092489794E-017
  -2.6550000000000001E-002    -1.0951802355945993E-017
  -2.6500000000000003E-002    -8.3036941100718450E-018
  -2.6450000000000001E-002    -2.8144846442256021E-018
  -2.6400000000000000E-002     4.6417263403109038E-018
  -2.6349999999999998E-002     1.2463392056094565E-017
  -2.6300000000000000E-002     1.8593232523520742E-017
  -2.6250000000000002E-002     2.0977563029964064E-017
  -2.6200000000000001E-002     1.8132635279528546E-017
  -2.6150000000000000E-002     9.6863902501832931E-018
  -2.6099999999999998E-002    -3.2633021065151710E-018
  -2.6050000000000000E-002    -1.8120970156749790E-017
  -2.6000000000000002E-002    -3.1184687138341100E-017
  -2.5950000000000001E-002    -3.8443116997397632E-017
  -2.5899999999999999E-002    -3.6642039974526706E-017
  -2.5849999999999998E-002    -2.4371214808268034E-017
  -2.5800000000000000E-002    -2.8582771592182021E-018
  -2.5750000000000002E-002     2.3826496392033848E-017
  -2.5700000000000001E-002     4.9339433674544919E-017
  -2.5649999999999999E-002     6.6399929478088027E-017
  -2.5599999999999998E-002     6.8658262237486314E-017
  -2.5550000000000000E-002     5.2656304580086846E-017
  -2.5500000000000002E-002     1.9333590488535746E-017
  -2.5450000000000000E-002    -2.5433813648657328E-017
  -2.5399999999999999E-002    -7.1582223078204404E-017
  -2.5349999999999998E-002    -1.0690072708008451E-016
  -2.5300000000000000E-002    -1.2000070337646070E-016
  -2.5250000000000002E-002    -1.0353706677560959E-016
  -2.5200000000000000E-002    -5.6836756496793625E-017
  -2.5149999999999999E-002     1.2863409531671594E-017
  -2.5100000000000001E-002     9.1097176849362459E-017
  -2.5049999999999999E-002     1.5885147583365345E-016
  -2.5000000000000001E-002     1.9682055901010811E-016
  -2.4950000000000000E-002     1.9034356742408695E-016
  -2.4899999999999999E-002     1.3385836353527302E-016
  -2.4850000000000001E-002     3.3687563925633748E-017
  -2.4800000000000003E-002    -9.1757891445430844E-017
  -2.4750000000000001E-002    -2.1475713147079052E-016
  -2.4700000000000000E-002    -3.0377431827601836E-016
  -2.4649999999999998E-002    -3.3072500764319557E-016
  -2.4600000000000000E-002    -2.7851906562276876E-016
  -2.4550000000000002E-002    -1.4710008418866617E-016
  -2.4500000000000001E-002     4.3722350458594335E-017
  -2.4450000000000000E-002     2.5587192461158077E-016
  -2.4399999999999998E-002     4.3941252033773858E-016
  -2.4350000000000000E-002     5.4304051824892527E-016
  -2.4299999999999999E-002     5.2679660231880607E-016
  -2.4250000000000001E-002     3.7420924901404216E-016
  -2.4199999999999999E-002     1.0067035136512495E-016
  -2.4150000000000001E-002    -2.4483370182753099E-016
  -2.4100000000000000E-002    -5.8635835013653459E-016
  -2.4049999999999998E-002    -8.3586310960257619E-016
  -2.4000000000000000E-002    -9.1393105845101841E-016
  -2.3949999999999999E-002    -7.7193350560583163E-016
  -2.3900000000000001E-002    -4.0998761929562626E-016
  -2.3850000000000000E-002     1.1486061513887612E-016
  -2.3800000000000002E-002     6.9413185489782532E-016
  -2.3750000000000000E-002     1.1879356500000709E-015
  -2.3699999999999999E-002     1.4565311816356798E-015
  -2.3650000000000001E-002     1.3967934335254371E-015
  -2.3599999999999999E-002     9.7457711641916420E-016
  -2.3550000000000001E-002     2.4373389444750416E-016
  -2.3500000000000000E-002    -6.5517529716353927E-016
  -2.3449999999999999E-002    -1.5189229546514902E-015
  -2.3400000000000001E-002    -2.1251100026392698E-015
  -2.3349999999999999E-002    -2.2862523130246895E-015
  -2.3300000000000001E-002    -1.9017727270893731E-015
  -2.3250000000000000E-002    -9.9433289310491570E-016
  -2.3199999999999998E-002     2.8049807976769464E-016
  -2.3150000000000000E-002     1.6566120973705632E-015
  -2.3099999999999999E-002     2.8096434235624748E-015
  -2.3050000000000001E-002     3.4294494839280921E-015
  -2.3000000000000000E-002     3.2972485923849367E-015
  -2.2950000000000002E-002     2.3493172427983624E-015
  -2.2900000000000000E-002     7.1067417476100010E-016
  -2.2849999999999999E-002    -1.3123427327816991E-015
  -2.2800000000000001E-002    -3.2832494396168916E-015
  -2.2749999999999999E-002    -4.7232165299269011E-015
  -2.2700000000000001E-002    -5.2193017828488425E-015
  -2.2650000000000000E-002    -4.5304904465475683E-015
  -2.2599999999999999E-002    -2.6667562695432443E-015
  -2.2550000000000001E-002     8.0617744793547832E-017
  -2.2499999999999999E-002     3.1709884143757327E-015
  -2.2450000000000001E-002     5.9096462553399683E-015
  -2.2400000000000000E-002     7.5929497831675713E-015
  -2.2349999999999998E-002     7.6759992817139938E-015
  -2.2300000000000000E-002     5.9259243631195274E-015
  -2.2249999999999999E-002     2.5214808241935620E-015
  -2.2200000000000001E-002    -1.9334679666836120E-015
  -2.2150000000000000E-002    -6.4988319716262710E-015
  -2.2100000000000002E-002    -1.0082717821198588E-014
  -2.2050000000000000E-002    -1.1689324015900055E-014
  -2.1999999999999999E-002    -1.0677149346240280E-014
  -2.1950000000000001E-002    -6.9637452008547873E-015
  -2.1899999999999999E-002    -1.1177812121280124E-015
  -2.1850000000000001E-002     5.6999891748282373E-015
  -2.1800000000000000E-002     1.1951360688542264E-014
  -2.1749999999999999E-002     1.6055721424552741E-014
  -2.1700000000000001E-002     1.6774931293560670E-014
  -2.1649999999999999E-002     1.3556376251467783E-014
  -2.1600000000000001E-002     6.7431683758914063E-015
  -2.1550000000000000E-002    -2.4150838846864963E-015
  -2.1499999999999998E-002    -1.1973479020941829E-014
  -2.1450000000000000E-002    -1.9693672530825337E-014
  -2.1399999999999999E-002    -2.3554760081230537E-014
  -2.1350000000000001E-002    -2.2257899848255250E-014
  -2.1299999999999999E-002    -1.5602089083830561E-014
  -2.1250000000000002E-002    -4.6308183977859681E-015
  -2.1200000000000000E-002     8.5028448405160230E-015
  -2.1149999999999999E-002     2.0942200334457364E-014
  -2.1100000000000001E-002     2.9729539018296484E-014
  -2.1049999999999999E-002     3.2481265310543486E-014
  -2.1000000000000001E-002     2.7986945096784064E-014
  -2.0950000000000000E-002     1.6591106425964983E-014
  -2.0899999999999998E-002     2.5506845933242202E-016
  -2.0850000000000000E-002    -1.7741164487462688E-014
  -2.0799999999999999E-002    -3.3421461304213315E-014
  -2.0750000000000001E-002    -4.2951597730416888E-014
  -2.0700000000000000E-002    -4.3526933105328300E-014
  -2.0649999999999998E-002    -3.4116582020810839E-014
  -2.0600000000000000E-002    -1.5881923513563474E-014
  -2.0549999999999999E-002     7.8609800464368519E-015
  -2.0500000000000001E-002     3.2178356223355307E-014
  -2.0449999999999999E-002     5.1489730206176322E-014
  -2.0400000000000001E-002     6.0798643076291775E-014
  -2.0350000000000000E-002     5.6924860086646760E-014
  -2.0299999999999999E-002     3.9445909548247698E-014
  -2.0250000000000001E-002     1.1087790038856753E-014
  -2.0199999999999999E-002    -2.2593944315650481E-014
  -2.0150000000000001E-002    -5.4246411532506486E-014
  -2.0100000000000000E-002    -7.6291810086499303E-014
  -2.0049999999999998E-002    -8.2711804992159220E-014
  -2.0000000000000000E-002    -7.0626267204852758E-014
  -1.9949999999999999E-002    -4.1257239185039181E-014
  -1.9900000000000001E-002     1.5821837150719600E-017
  -1.9850000000000000E-002     4.4601020768492548E-014
  -1.9799999999999998E-002     8.2486521111661796E-014
  -1.9750000000000000E-002     1.0450385093581472E-013
  -1.9699999999999999E-002     1.0454192070464951E-013
  -1.9650000000000001E-002     8.1171581321532746E-014
  -1.9599999999999999E-002     3.8256598201331351E-014
  -1.9550000000000001E-002    -1.5646597425025775E-014
  -1.9500000000000000E-002    -6.9014039778526574E-014
  -1.9449999999999999E-002    -1.0984713350685823E-013
  -1.9400000000000001E-002    -1.2838536473107539E-013
  -1.9349999999999999E-002    -1.1942632938552175E-013
  -1.9300000000000001E-002    -8.3715631608275605E-014
  -1.9250000000000000E-002    -2.8065457688799274E-014
  -1.9199999999999998E-002     3.5869452108055807E-014
  -1.9150000000000000E-002     9.3943957240994017E-014
  -1.9099999999999999E-002     1.3254603473573040E-013
  -1.9050000000000001E-002     1.4168039743972862E-013
  -1.9000000000000000E-002     1.1746179501104912E-013
  -1.8949999999999998E-002     6.3450590536629615E-014
  -1.8900000000000000E-002    -9.5422347232107061E-015
  -1.8849999999999999E-002    -8.5272888004139939E-014
  -1.8800000000000001E-002    -1.4527091685162683E-013
  -1.8749999999999999E-002    -1.7288014642660863E-013
  -1.8700000000000001E-002    -1.5733212815683268E-013
  -1.8650000000000000E-002    -9.6937608822390993E-014
  -1.8599999999999998E-002    -5.5679606768372197E-016
  -1.8550000000000001E-002     1.1320725106131277E-013
  -1.8499999999999999E-002     2.1918477690909656E-013
  -1.8450000000000001E-002     2.9071901550147951E-013
  -1.8400000000000000E-002     3.0565867042591171E-013
  -1.8349999999999998E-002     2.5192638264201148E-013
  -1.8300000000000000E-002     1.3128289464034255E-013
  -1.8249999999999999E-002    -3.9782060755432126E-014
  -1.8200000000000001E-002    -2.3247593909580317E-013
  -1.8149999999999999E-002    -4.1108795876102585E-013
  -1.8100000000000002E-002    -5.4020459535943496E-013
  -1.8050000000000000E-002    -5.9210748593777687E-013
  -1.7999999999999999E-002    -5.5259582876897475E-013
  -1.7950000000000001E-002    -4.2383046518809514E-013
  -1.7899999999999999E-002    -2.2353538674476336E-013
  -1.7850000000000001E-002     1.9185315235392039E-014
  -1.7800000000000000E-002     2.7030138690176355E-013
  -1.7749999999999998E-002     4.9791978488213203E-013
  -1.7700000000000000E-002     6.7820070958108185E-013
  -1.7649999999999999E-002     7.9873697200808809E-013
  -1.7600000000000001E-002     8.5872173467886285E-013
  -1.7550000000000000E-002     8.6607620626358468E-013
  -1.7499999999999998E-002     8.3246085849961295E-013
  -1.7450000000000000E-002     7.6757106942725649E-013
  -1.7399999999999999E-002     6.7423756585916893E-013
  -1.7350000000000001E-002     5.4563179863654270E-013
  -1.7299999999999999E-002     3.6541688408650187E-013
  -1.7250000000000001E-002     1.1110255096297744E-013
  -1.7200000000000000E-002    -2.3973028174181117E-013
  -1.7149999999999999E-002    -7.0121185870909655E-013
  -1.7100000000000001E-002    -1.2703046261476988E-012
  -1.7049999999999999E-002    -1.9189343331313323E-012
  -1.7000000000000001E-002    -2.5889661452539557E-012
  -1.6950000000000000E-002    -3.1917648120410683E-012
  -1.6899999999999998E-002    -3.6136248402625967E-012
  -1.6850000000000000E-002    -3.7275037009352744E-012
  -1.6799999999999999E-002    -3.4103048591732182E-012
  -1.6750000000000001E-002    -2.5636416393202213E-012
  -1.6700000000000000E-002    -1.1348977234045001E-012
  -1.6649999999999998E-002     8.6514990153327958E-013
  -1.6600000000000000E-002     3.3516007152879262E-012
  -1.6549999999999999E-002     6.1638568087543252E-012
  -1.6500000000000001E-002     9.0735855690568125E-012
  -1.6449999999999999E-002     1.1800486670197980E-011
  -1.6400000000000001E-002     1.4032365985271659E-011
  -1.6350000000000000E-002     1.5445187884533109E-011
  -1.6299999999999999E-002     1.5719116628890975E-011
  -1.6250000000000001E-002     1.4548095227207421E-011
  -1.6199999999999999E-002     1.1642708554958385E-011
  -1.6150000000000001E-002     6.7283286259068544E-012
  -1.6100000000000000E-002    -4.5786640937173368E-013
  -1.6049999999999998E-002    -1.0167098481681973E-011
  -1.6000000000000000E-002    -2.2633448966434311E-011
  -1.5949999999999999E-002    -3.8061577495916240E-011
  -1.5900000000000001E-002    -5.6609123500565404E-011
  -1.5850000000000000E-002    -7.8367170424258382E-011
  -1.5799999999999998E-002    -1.0334321928223866E-010
  -1.5750000000000000E-002    -1.3145101051330631E-010
  -1.5699999999999999E-002    -1.6251007716929544E-010
  -1.5650000000000001E-002    -1.9625589130843545E-010
  -1.5599999999999999E-002    -2.3235964854655232E-010
  -1.5550000000000001E-002    -2.7045480597690447E-010
  -1.5500000000000000E-002    -3.1016666551076258E-010
  -1.5449999999999998E-002    -3.5114163456448799E-010
  -1.5400000000000000E-002    -3.9307240776446059E-010
  -1.5349999999999999E-002    -4.3571694537929629E-010
  -1.5300000000000001E-002    -4.7890933730996213E-010
  -1.5250000000000000E-002    -5.2256138215446392E-010
  -1.5199999999999998E-002    -5.6665495030870921E-010
  -1.5150000000000000E-002    -6.1122589527534401E-010
  -1.5099999999999999E-002    -6.5634204506203569E-010
  -1.5050000000000001E-002    -7.0207881804437384E-010
  -1.4999999999999999E-002    -7.4849670219119155E-010
  -1.4949999999999998E-002    -7.9562642097534898E-010
  -1.4900000000000000E-002    -8.4346498840083654E-010
  -1.4849999999999999E-002    -8.9198443425735731E-010
  -1.4800000000000001E-002    -9.4115152062189501E-010
  -1.4749999999999999E-002    -9.9095362465303009E-010
  -1.4700000000000001E-002    -1.0414245706692772E-009
  -1.4650000000000000E-002    -1.0926615962186081E-009
  -1.4599999999999998E-002    -1.1448285284271739E-009
  -1.4550000000000000E-002    -1.1981431176981582E-009
  -1.4499999999999999E-002    -1.2528494113888895E-009
  -1.4450000000000001E-002    -1.3091828641063882E-009
  -1.4400000000000000E-002    -1.3673352750066109E-009
  -1.4349999999999998E-002    -1.4274295174464474E-009
  -1.4300000000000000E-002    -1.4895087530235577E-009
  -1.4249999999999999E-002    -1.5535442405920246E-009
  -1.4200000000000001E-002    -1.6194579251918226E-009
  -1.4149999999999999E-002    -1.6871535806574387E-009
  -1.4099999999999998E-002    -1.7565485599746350E-009
  -1.4050000000000000E-002    -1.8275981675234234E-009
  -1.3999999999999999E-002    -1.9003058495441300E-009
  -1.3950000000000001E-002    -1.9747200078691850E-009
  -1.3899999999999999E-002    -2.0509186129666849E-009
  -1.3850000000000001E-002    -2.1289876794079762E-009
  -1.3800000000000000E-002    -2.2090000710125578E-009
  -1.3749999999999998E-002    -2.2910034976973429E-009
  -1.3700000000000000E-002    -2.3750174078659586E-009
  -1.3649999999999999E-002    -2.4610432748008313E-009
  -1.3600000000000001E-002    -2.5490839350200607E-009
  -1.3550000000000000E-002    -2.6391670955323165E-009
  -1.3499999999999998E-002    -2.7313664073951749E-009
  -1.3450000000000000E-002    -2.8258182646523948E-009
  -1.3399999999999999E-002    -2.9227263119837489E-009
  -1.3350000000000001E-002    -3.0223532646390767E-009
  -1.3299999999999999E-002    -3.1250022143485956E-009
  -1.3249999999999998E-002    -3.2309867077759982E-009
  -1.3200000000000000E-002    -3.3405954295078899E-009
  -1.3149999999999998E-002    -3.4540571432923489E-009
  -1.3100000000000001E-002    -3.5715111812417922E-009
  -1.3049999999999999E-002    -3.6929864303334871E-009
  -1.3000000000000001E-002    -3.8183974427285704E-009
  -1.2950000000000000E-002    -3.9475577163102957E-009
  -1.2899999999999998E-002    -4.0802109750930527E-009
  -1.2850000000000000E-002    -4.2160791678072009E-009
  -1.2799999999999999E-002    -4.3549193127764629E-009