  -4.0000000000000001E-002     0.0000000000000000     
  -3.9949999999999999E-002     0.0000000000000000     
  -3.9899999999999998E-002     0.0000000000000000     
  -3.9850000000000003E-002     0.0000000000000000     
  -3.9800000000000002E-002     0.0000000000000000     
  -3.9750000000000001E-002     0.0000000000000000     
  -3.9699999999999999E-002     0.0000000000000000     
  -3.9649999999999998E-002     0.0000000000000000     
  -3.9600000000000003E-002     0.0000000000000000     
  -3.9550000000000002E-002     0.0000000000000000     
  -3.9500000000000000E-002     0.0000000000000000     
  -3.9449999999999999E-002     0.0000000000000000     
  -3.9399999999999998E-002     0.0000000000000000     
  -3.9350000000000003E-002     0.0000000000000000     
  -3.9300000000000002E-002     0.0000000000000000     
  -3.9250000000000000E-002     0.0000000000000000     
  -3.9199999999999999E-002     0.0000000000000000     
  -3.9150000000000004E-002     0.0000000000000000     
  -3.9100000000000003E-002     0.0000000000000000     
  -3.9050000000000001E-002     0.0000000000000000     
  -3.9000000000000000E-002     0.0000000000000000     
  -3.8949999999999999E-002     0.0000000000000000     
  -3.8900000000000004E-002     0.0000000000000000     
  -3.8850000000000003E-002     0.0000000000000000     
  -3.8800000000000001E-002     0.0000000000000000     
  -3.8750000000000000E-002     0.0000000000000000     
  -3.8699999999999998E-002     0.0000000000000000     
  -3.8650000000000004E-002     0.0000000000000000     
  -3.8600000000000002E-002     0.0000000000000000     
  -3.8550000000000001E-002     0.0000000000000000     
  -3.8500000000000000E-002     0.0000000000000000     
  -3.8449999999999998E-002     0.0000000000000000     
  -3.8400000000000004E-002     0.0000000000000000     
  -3.8350000000000002E-002     0.0000000000000000     
  -3.8300000000000001E-002     0.0000000000000000     
  -3.8249999999999999E-002     0.0000000000000000     
  -3.8199999999999998E-002     0.0000000000000000     
  -3.8150000000000003E-002     0.0000000000000000     
  -3.8100000000000002E-002     0.0000000000000000     
  -3.8050000000000000E-002     0.0000000000000000     
  -3.7999999999999999E-002     0.0000000000000000     
  -3.7949999999999998E-002     0.0000000000000000     
  -3.7900000000000003E-002     0.0000000000000000     
  -3.7850000000000002E-002     0.0000000000000000     
  -3.7800000000000000E-002     0.0000000000000000     
  -3.7749999999999999E-002     0.0000000000000000     
  -3.7699999999999997E-002     0.0000000000000000     
  -3.7650000000000003E-002     0.0000000000000000     
  -3.7600000000000001E-002     0.0000000000000000     
  -3.7550000000000000E-002     0.0000000000000000     
  -3.7499999999999999E-002     0.0000000000000000     
  -3.7449999999999997E-002     0.0000000000000000     
  -3.7400000000000003E-002     0.0000000000000000     
  -3.7350000000000001E-002     0.0000000000000000     
  -3.7300000000000000E-002     0.0000000000000000     
  -3.7249999999999998E-002     0.0000000000000000     
  -3.7200000000000004E-002     0.0000000000000000     
  -3.7150000000000002E-002     0.0000000000000000     
  -3.7100000000000001E-002     0.0000000000000000     
  -3.7050000000000000E-002     0.0000000000000000     
  -3.6999999999999998E-002     0.0000000000000000     
  -3.6950000000000004E-002     0.0000000000000000     
  -3.6900000000000002E-002     0.0000000000000000     
  -3.6850000000000001E-002     0.0000000000000000     
  -3.6799999999999999E-002     0.0000000000000000     
  -3.6749999999999998E-002     0.0000000000000000     
  -3.6700000000000003E-002     0.0000000000000000     
  -3.6650000000000002E-002     0.0000000000000000     
  -3.6600000000000001E-002     0.0000000000000000     
  -3.6549999999999999E-002     0.0000000000000000     
  -3.6499999999999998E-002     0.0000000000000000     
  -3.6450000000000003E-002     0.0000000000000000     
  -3.6400000000000002E-002     0.0000000000000000     
  -3.6350000000000000E-002     0.0000000000000000     
  -3.6299999999999999E-002     0.0000000000000000     
  -3.6249999999999998E-002     0.0000000000000000     
  -3.6200000000000003E-002     0.0000000000000000     
  -3.6150000000000002E-002     0.0000000000000000     
  -3.6100000000000000E-002     0.0000000000000000     
  -3.6049999999999999E-002     0.0000000000000000     
  -3.6000000000000004E-002     0.0000000000000000     
  -3.5950000000000003E-002     0.0000000000000000     
  -3.5900000000000001E-002     0.0000000000000000     
  -3.5850000000000000E-002     0.0000000000000000     
  -3.5799999999999998E-002     0.0000000000000000     
  -3.5750000000000004E-002     0.0000000000000000     
  -3.5700000000000003E-002     0.0000000000000000     
  -3.5650000000000001E-002     0.0000000000000000     
  -3.5600000000000000E-002     0.0000000000000000     
  -3.5549999999999998E-002     0.0000000000000000     
  -3.5500000000000004E-002     0.0000000000000000     
  -3.5450000000000002E-002     0.0000000000000000     
  -3.5400000000000001E-002    -1.4291471402502001E-054
  -3.5349999999999999E-002    -5.2501015554870784E-054
  -3.5299999999999998E-002    -1.1511679250292986E-039
  -3.5250000000000004E-002    -1.9837207140809283E-039
  -3.5200000000000002E-002    -1.2849349291757382E-039
  -3.5150000000000001E-002     7.4637845612111795E-040
  -3.5099999999999999E-002     3.8464435151630310E-039
  -3.5049999999999998E-002     7.9789521429110653E-039
  -3.5000000000000003E-002     7.1552411588949932E-039
  -3.4950000000000002E-002     1.4413686160168055E-039
  -3.4900000000000000E-002    -1.5304081070122782E-038
  -3.4849999999999999E-002    -3.6256904119959516E-038
  -3.4799999999999998E-002    -3.3962549078004891E-038
  -3.4750000000000003E-002     1.3100986670568447E-038
  -3.4700000000000002E-002     7.5804755343757231E-038
  -3.4650000000000000E-002     1.2023071363201807E-037
  -3.4599999999999999E-002     1.0115428859957100E-037
  -3.4549999999999997E-002    -2.5029322360636688E-038
  -3.4500000000000003E-002    -2.6070886555739577E-037
  -3.4450000000000001E-002    -4.8574622605799930E-037
  -3.4400000000000000E-002    -4.6986049727503126E-037
  -3.4349999999999999E-002    -1.3688265794101077E-038
  -3.4299999999999997E-002     8.6751830772269507E-037
  -3.4250000000000003E-002     1.7267534074750010E-036
  -3.4200000000000001E-002     1.7686573973897932E-036
  -3.4150000000000000E-002     3.5055010743361622E-037
  -3.4099999999999998E-002    -2.2298272421460340E-036
  -3.4049999999999997E-002    -4.2180179993470411E-036
  -3.4000000000000002E-002    -2.9064747075663459E-036
  -3.3950000000000001E-002     3.3519524879384588E-036
  -3.3900000000000000E-002     1.2240758052970246E-035
  -3.3849999999999998E-002     1.5718475622996377E-035
  -3.3799999999999997E-002     2.2859805156441499E-036
  -3.3750000000000002E-002    -3.4888162454963349E-035
  -3.3700000000000001E-002    -8.5874943400584754E-035
  -3.3649999999999999E-002    -1.1523633225736071E-034
  -3.3599999999999998E-002    -6.7798356952953212E-035
  -3.3550000000000003E-002     1.0227273779276388E-034
  -3.3500000000000002E-002     3.8222624639860554E-034
  -3.3450000000000001E-002     6.5397023908962492E-034
  -3.3399999999999999E-002     6.8992994369600297E-034
  -3.3349999999999998E-002     2.3155530548246055E-034
  -3.3300000000000003E-002    -8.4082440489576510E-034
  -3.3250000000000002E-002    -2.3005412464279964E-033
  -3.3200000000000000E-002    -3.4529784815618919E-033
  -3.3149999999999999E-002    -3.2537116895756302E-033
  -3.3099999999999997E-002    -7.6093078603188611E-034
  -3.3050000000000003E-002     4.1525498282941828E-033
  -3.3000000000000002E-002     1.0135503768688010E-032
  -3.2950000000000000E-002     1.4224581137809326E-032
  -3.2899999999999999E-002     1.2675879814393132E-032
  -3.2850000000000004E-002     2.8203179017668432E-033
  -3.2800000000000003E-002    -1.4649175477478446E-032
  -3.2750000000000001E-002    -3.4189476042521892E-032
  -3.2700000000000000E-002    -4.6122887390348196E-032
  -3.2649999999999998E-002    -4.0274211321491649E-032
  -3.2600000000000004E-002    -1.1682813546837777E-032
  -3.2550000000000003E-002     3.4289876312426193E-032
  -3.2500000000000001E-002     8.1076627259961723E-032
  -3.2450000000000000E-002     1.0672320002212365E-031
  -3.2399999999999998E-002     9.5333465012706138E-032
  -3.2350000000000004E-002     4.8393600590771493E-032
  -3.2300000000000002E-002    -1.2618949721816902E-032
  -3.2250000000000001E-002    -5.8628362924301201E-032
  -3.2199999999999999E-002    -7.7816112388725989E-032
  -3.2149999999999998E-002    -9.8013409511998551E-032
  -3.2100000000000004E-002    -1.8353149567988763E-031
  -3.2050000000000002E-002    -3.8902005723118876E-031
  -3.2000000000000001E-002    -6.7764853602353903E-031
  -3.1949999999999999E-002    -8.4817382244304292E-031
  -3.1899999999999998E-002    -5.4437728760053504E-031
  -3.1850000000000003E-002     5.8814657680058197E-031
  -3.1800000000000002E-002     2.5993146105550950E-030
  -3.1750000000000000E-002     4.9026457562026352E-030
  -3.1699999999999999E-002     6.1428668960816988E-030
  -3.1649999999999998E-002     4.5164122984583513E-030
  -3.1600000000000003E-002    -1.3416455414813192E-030
  -3.1550000000000002E-002    -1.1105276523469712E-029
  -3.1500000000000000E-002    -2.1725502244484203E-029
  -3.1449999999999999E-002    -2.7442312387701672E-029
  -3.1399999999999997E-002    -2.1507645875621943E-029
  -3.1350000000000003E-002     3.9421508181167195E-031
  -3.1300000000000001E-002     3.6109021693353800E-029
  -3.1250000000000000E-002     7.4427027150479633E-029
  -3.1199999999999999E-002     9.6272352775130654E-029
  -3.1150000000000001E-002     8.0972363263354196E-029
  -3.1100000000000003E-002     1.6611896559607294E-029
  -3.1050000000000001E-002    -8.9337467228690385E-029
  -3.1000000000000000E-002    -2.0481765034893710E-028
  -3.0949999999999998E-002    -2.7857594790870303E-028
  -3.0900000000000000E-002    -2.5762749526904827E-028
  -3.0850000000000002E-002    -1.1231353459653034E-028
  -3.0800000000000001E-002     1.4118559956748292E-028
  -3.0750000000000000E-002     4.3306251687452364E-028
  -3.0699999999999998E-002     6.5501426397128769E-028
  -3.0650000000000000E-002     6.9684806328351164E-028
  -3.0600000000000002E-002     4.9168256796961480E-028
  -3.0550000000000001E-002     4.9820227667606493E-029
  -3.0499999999999999E-002    -5.3592216310855548E-028
  -3.0449999999999998E-002    -1.1173592162487737E-027
  -3.0400000000000000E-002    -1.5364579330221293E-027
  -3.0350000000000002E-002    -1.6632870699942775E-027
  -3.0300000000000001E-002    -1.4051325249870226E-027
  -3.0249999999999999E-002    -6.8891701416890619E-028
  -3.0200000000000001E-002     5.4993494098783200E-028
  -3.0150000000000000E-002     2.3227647640614396E-027
  -3.0100000000000002E-002     4.4586101950603826E-027
  -3.0050000000000000E-002     6.4266169072590978E-027
  -2.9999999999999999E-002     7.2297806810135794E-027
  -2.9950000000000001E-002     5.5410334177675395E-027
  -2.9899999999999999E-002     2.1055297291440421E-028
  -2.9850000000000002E-002    -8.8932569204217880E-027
  -2.9800000000000000E-002    -2.0001832173738255E-026
  -2.9749999999999999E-002    -2.9045785467916159E-026
  -2.9700000000000001E-002    -3.0300184227022203E-026
  -2.9650000000000003E-002    -1.8363971325482526E-026
  -2.9600000000000001E-002     8.8402948327581432E-027
  -2.9550000000000000E-002     4.7105362187855991E-026
  -2.9499999999999998E-002     8.4611146558809876E-026
  -2.9450000000000000E-002     1.0375138833536219E-025
  -2.9400000000000003E-002     8.6718383079264767E-026
  -2.9350000000000001E-002     2.3805420856082689E-026
  -2.9300000000000000E-002    -7.8425441396447876E-026
  -2.9249999999999998E-002    -1.9307733429290718E-025
  -2.9200000000000000E-002    -2.7651020398553513E-025
  -2.9150000000000002E-002    -2.8085860671328421E-025
  -2.9100000000000001E-002    -1.7305335993689100E-025
  -2.9049999999999999E-002     4.5851830354386769E-026
  -2.8999999999999998E-002     3.2934847791279217E-025
  -2.8950000000000000E-002     5.8940082086002912E-025
  -2.8900000000000002E-002     7.1836309660182988E-025
  -2.8850000000000001E-002     6.2477716505514347E-025
  -2.8799999999999999E-002     2.7231098636906554E-025
  -2.8749999999999998E-002    -2.9238281008702009E-025
  -2.8700000000000000E-002    -9.3542030632913427E-025
  -2.8650000000000002E-002    -1.4607253390871716E-024
  -2.8600000000000000E-002    -1.6602987358041242E-024
  -2.8549999999999999E-002    -1.3768297799782727E-024
  -2.8500000000000001E-002    -5.6133260580781782E-025
  -2.8450000000000000E-002     6.9005521831319378E-025
  -2.8400000000000002E-002     2.1300531809563784E-024
  -2.8350000000000000E-002     3.3880289710795337E-024
  -2.8299999999999999E-002     4.0302043276895366E-024
  -2.8250000000000001E-002     3.6496591676341979E-024
  -2.8200000000000003E-002     1.9824920724295100E-024
  -2.8150000000000001E-002    -9.5990085721222366E-025
  -2.8100000000000000E-002    -4.7681602879960015E-024
  -2.8049999999999999E-002    -8.5702387960987889E-024
  -2.8000000000000001E-002    -1.1090875188965103E-023
  -2.7950000000000003E-002    -1.0896583440995224E-023
  -2.7900000000000001E-002    -6.8432662357262304E-024
  -2.7850000000000000E-002     1.3424995854204049E-024
  -2.7799999999999998E-002     1.2524456275724286E-023
  -2.7750000000000000E-002     2.3918375528749715E-023
  -2.7700000000000002E-002     3.1414219791048005E-023
  -2.7650000000000001E-002     3.0595619136077047E-023
  -2.7600000000000000E-002     1.8346448250239785E-023
  -2.7549999999999998E-002    -5.3750880517802403E-024
  -2.7500000000000000E-002    -3.6267635214696561E-023
  -2.7450000000000002E-002    -6.5653586156794311E-023
  -2.7400000000000001E-002    -8.2172360816909320E-023
  -2.7349999999999999E-002    -7.5150845197895115E-023
  -2.7299999999999998E-002    -3.8894249613355038E-023
  -2.7250000000000000E-002     2.3487294709370391E-023
  -2.7200000000000002E-002     9.8356926816601819E-023
  -2.7150000000000001E-002     1.6324319775695996E-022
  -2.7099999999999999E-002     1.9230669729624014E-022
  -2.7049999999999998E-002     1.6459906743353351E-022
  -2.7000000000000000E-002     7.2827383875961780E-023
  -2.6950000000000002E-002    -7.0407564816070444E-023
  -2.6900000000000000E-002    -2.3171416916226724E-022
  -2.6849999999999999E-002    -3.6288143283425221E-022
  -2.6800000000000001E-002    -4.1317368681341132E-022
  -2.6749999999999999E-002    -3.4516409278421342E-022
  -2.6700000000000002E-002    -1.4967729252252605E-022
  -2.6650000000000000E-002     1.4500895162658160E-022
  -2.6599999999999999E-002     4.7350037953275966E-022
  -2.6550000000000001E-002     7.4465378754748705E-022
  -2.6500000000000003E-002     8.6255219639482547E-022
  -2.6450000000000001E-002     7.5292644826100202E-022
  -2.6400000000000000E-002     3.8899019330834920E-022
  -2.6349999999999998E-002    -1.8996660727607527E-022
  -2.6300000000000000E-002    -8.7321690672162204E-022
  -2.6250000000000002E-002    -1.4906530617133829E-021
  -2.6200000000000001E-002    -1.8436328080912269E-021
  -2.6150000000000000E-002    -1.7522095712289632E-021
  -2.6099999999999998E-002    -1.1116886233316753E-021
  -2.6050000000000000E-002     5.3594098362992755E-023
  -2.6000000000000002E-002     1.5555804512389932E-021
  -2.5950000000000001E-002     3.0445246487233108E-021
  -2.5899999999999999E-002     4.0614770596258057E-021
  -2.5849999999999998E-002     4.1441880180713475E-021
  -2.5800000000000000E-002     2.9723635388078654E-021
  -2.5750000000000002E-002     5.1852494401521053E-022
  -2.5700000000000001E-002    -2.8449250461244161E-021
  -2.5649999999999999E-002    -6.3353149057478275E-021
  -2.5599999999999998E-002    -8.8838214856457650E-021
  -2.5550000000000000E-002    -9.3969202838744636E-021
  -2.5500000000000002E-002    -7.1095361862569169E-021
  -2.5450000000000000E-002    -1.9363778186522443E-021
  -2.5399999999999999E-002     5.3007282348711549E-021
  -2.5349999999999998E-002     1.2884262623301502E-020
  -2.5300000000000000E-002     1.8514682468489210E-020
  -2.5250000000000002E-002     1.9901653780208958E-020
  -2.5200000000000000E-002     1.5505702195593062E-020
  -2.5149999999999999E-002     5.2201771051538259E-021
  -2.5100000000000001E-002    -9.2458218223854785E-021
  -2.5049999999999999E-002    -2.4476746448016260E-020
  -2.5000000000000001E-002    -3.6023991819287981E-020
  -2.4950000000000000E-002    -3.9546807770755423E-020
  -2.4899999999999999E-002    -3.2156388328378934E-020
  -2.4850000000000001E-002    -1.3587801851086441E-020
  -2.4800000000000003E-002     1.3186214807896455E-020
  -2.4750000000000001E-002     4.2178992959900492E-020
  -2.4700000000000000E-002     6.5526457948764351E-020
  -2.4649999999999998E-002     7.5360655928175429E-020
  -2.4600000000000000E-002     6.6014939316287875E-020
  -2.4550000000000002E-002     3.6012477300863146E-020
  -2.4500000000000001E-002    -1.0724481784100643E-020
  -2.4450000000000000E-002    -6.4882270687947968E-020
  -2.4399999999999998E-002    -1.1317766166727997E-019
  -2.4350000000000000E-002    -1.4108002802808675E-019
  -2.4299999999999999E-002    -1.3639707023790994E-019
  -2.4250000000000001E-002    -9.3008543184652639E-020
  -2.4199999999999999E-002    -1.3854570903267573E-020
  -2.4150000000000001E-002     8.7741173847057508E-020
  -2.4100000000000000E-002     1.8915951139733359E-019
  -2.4049999999999998E-002     2.6232970222879220E-019
  -2.4000000000000000E-002     2.8005391137706401E-019
  -2.3949999999999999E-002     2.2377996913896420E-019
  -2.3900000000000001E-002     9.1058693638771105E-020
  -2.3850000000000000E-002    -9.9544971275128093E-020
  -2.3800000000000002E-002    -3.0826474808526168E-019
  -2.3750000000000000E-002    -4.8009470906593359E-019
  -2.3699999999999999E-002    -5.5686428650125961E-019
  -2.3650000000000001E-002    -4.9347614550936830E-019
  -2.3599999999999999E-002    -2.7448433034884707E-019
  -2.3550000000000001E-002     7.3987139935462283E-020
  -2.3500000000000000E-002     4.8186085283728581E-019
  -2.3449999999999999E-002     8.4538204586077912E-019
  -2.3400000000000001E-002     1.0499625358303081E-018
  -2.3349999999999999E-002     1.0015240589966550E-018
  -2.3300000000000001E-002     6.5868422700851255E-019
  -2.3250000000000000E-002     5.6186489254214154E-020
  -2.3199999999999998E-002    -6.8931732084512223E-019
  -2.3150000000000000E-002    -1.3964055120767184E-018
  -2.3099999999999999E-002    -1.8582621361306469E-018
  -2.3050000000000001E-002    -1.8968308415133086E-018
  -2.3000000000000000E-002    -1.4186230329559958E-018
  -2.2950000000000002E-002    -4.5643117318712057E-019
  -2.2900000000000000E-002     8.1719766509971725E-019
  -2.2849999999999999E-002     2.1129797324422197E-018
  -2.2800000000000001E-002     3.0836576881617185E-018
  -2.2749999999999999E-002     3.4078969136746446E-018
  -2.2700000000000001E-002     2.8805657121104777E-018
  -2.2650000000000000E-002     1.4865721513525112E-018
  -2.2599999999999999E-002    -5.6324388606713935E-019
  -2.2550000000000001E-002    -2.8488173948252436E-018
  -2.2499999999999999E-002    -4.8137287760815090E-018
  -2.2450000000000001E-002    -5.8846270236038486E-018
  -2.2400000000000000E-002    -5.6150994029963812E-018
  -2.2349999999999998E-002    -3.8227057918873073E-018
  -2.2300000000000000E-002    -6.8441635180884706E-019
  -2.2249999999999999E-002     3.2406161011331107E-018
  -2.2200000000000001E-002     7.0805663723656991E-018
  -2.2150000000000000E-002     9.8139668844825812E-018
  -2.2100000000000002E-002     1.0504649199735342E-017
  -2.2050000000000000E-002     8.5639083869350833E-018
  -2.1999999999999999E-002     3.9776306796156710E-018
  -2.1950000000000001E-002    -2.5696312705294714E-018
  -2.1899999999999999E-002    -9.7305408900605825E-018
  -2.1850000000000001E-002    -1.5717785666457088E-017
  -2.1800000000000000E-002    -1.8695288259649939E-017
  -2.1749999999999999E-002    -1.7267381268447757E-017
  -2.1700000000000001E-002    -1.0950887568603453E-017
  -2.1649999999999999E-002    -4.9341539815676768E-019
  -2.1600000000000001E-002     1.2085196898037291E-017
  -2.1550000000000000E-002     2.3797921295873243E-017
  -2.1499999999999998E-002     3.1325992631028954E-017
  -2.1450000000000000E-002     3.1869447616865455E-017
  -2.1399999999999999E-002     2.4012674454391492E-017
  -2.1350000000000001E-002     8.3628190832830701E-018
  -2.1299999999999999E-002    -1.2259463968269886E-017
  -2.1250000000000002E-002    -3.3207596744890264E-017
  -2.1200000000000000E-002    -4.8962942040996166E-017
  -2.1149999999999999E-002    -5.4481421056365921E-017
  -2.1100000000000001E-002    -4.6623230827868528E-017
  -2.1049999999999999E-002    -2.5288045426239735E-017
  -2.1000000000000001E-002     6.0932091817103604E-018
  -2.0950000000000000E-002     4.0931485501868918E-017
  -2.0899999999999998E-002     7.0735676283266837E-017
  -2.0850000000000000E-002     8.7039131630400452E-017
  -2.0799999999999999E-002     8.3584255901167450E-017
  -2.0750000000000001E-002     5.8238600602160866E-017
  -2.0700000000000000E-002     1.4123620979631037E-017
  -2.0649999999999998E-002    -4.0425735560716639E-017
  -2.0600000000000000E-002    -9.3208747822659401E-017
  -2.0549999999999999E-002    -1.3065109739769491E-016
  -2.0500000000000001E-002    -1.4098454443506199E-016
  -2.0449999999999999E-002    -1.1743612814491489E-016
  -2.0400000000000001E-002    -6.0657704304285944E-017
  -2.0350000000000000E-002     2.0301419867835423E-017
  -2.0299999999999999E-002     1.0893426591035335E-016
  -2.0250000000000001E-002     1.8420112817253181E-016
  -2.0199999999999999E-002     2.2504822832211258E-016
  -2.0150000000000001E-002     2.1567624083473881E-016
  -2.0100000000000000E-002     1.5037973053560450E-016
  -2.0049999999999998E-002     3.6668428679620738E-017
  -2.0000000000000000E-002    -1.0442793661395895E-016
  -1.9949999999999999E-002    -2.4145764602739702E-016
  -1.9900000000000001E-002    -3.3886419147284634E-016
  -1.9850000000000000E-002    -3.6545922388282630E-016
  -1.9799999999999998E-002    -3.0321363808404933E-016
  -1.9750000000000000E-002    -1.5410047866221752E-016
  -1.9699999999999999E-002     5.7169598214017602E-017
  -1.9650000000000001E-002     2.8595264376763366E-016
  -1.9599999999999999E-002     4.7619318093965154E-016
  -1.9550000000000001E-002     5.7330947412795444E-016
  -1.9500000000000000E-002     5.3867735751486243E-016
  -1.9449999999999999E-002     3.6207283376395709E-016
  -1.9400000000000001E-002     6.8439017866134271E-017
  -1.9349999999999999E-002    -2.8364632912445349E-016
  -1.9300000000000001E-002    -6.1254078889203514E-016
  -1.9250000000000000E-002    -8.3155207654134841E-016
  -1.9199999999999998E-002    -8.7060020948565159E-016
  -1.9150000000000000E-002    -6.9630029364934809E-016
  -1.9099999999999999E-002    -3.2504713955257875E-016
  -1.9050000000000001E-002     1.7508348322451198E-016
  -1.9000000000000000E-002     6.9534735337716415E-016
  -1.8949999999999998E-002     1.1088435578371584E-015
  -1.8900000000000000E-002     1.3000610653966025E-015
  -1.8849999999999999E-002     1.1948042891764421E-015
  -1.8800000000000001E-002     7.8314179510166150E-016
  -1.8749999999999999E-002     1.2906902700358770E-016
  -1.8700000000000001E-002    -6.3677614000595972E-016
  -1.8650000000000000E-002    -1.3412782415712657E-015
  -1.8599999999999998E-002    -1.8058346019418272E-015
  -1.8550000000000001E-002    -1.8887270440409916E-015
  -1.8499999999999999E-002    -1.5234591610793653E-015
  -1.8450000000000001E-002    -7.4361400236597760E-016
  -1.8400000000000000E-002     3.1314233513989597E-016
  -1.8349999999999998E-002     1.4253238608248712E-015
  -1.8300000000000000E-002     2.3303900561408510E-015
  -1.8249999999999999E-002     2.7827849250906635E-015
  -1.8200000000000001E-002     2.6154774236075825E-015
  -1.8149999999999999E-002     1.7907328575560743E-015
  -1.8100000000000002E-002     4.2633852506611957E-016
  -1.8050000000000000E-002    -1.2126104750266948E-015
  -1.7999999999999999E-002    -2.7593103136821382E-015
  -1.7950000000000001E-002    -3.8223336342024814E-015
  -1.7899999999999999E-002    -4.0794767735456485E-015
  -1.7850000000000001E-002    -3.3671102038120906E-015
  -1.7800000000000000E-002    -1.7417087889181915E-015
  -1.7749999999999998E-002     5.0605067778804771E-016
  -1.7700000000000000E-002     2.8947579660649316E-015
  -1.7649999999999999E-002     4.8498080749445953E-015
  -1.7600000000000001E-002     5.8368665523609790E-015
  -1.7550000000000000E-002     5.5012734050689201E-015
  -1.7499999999999998E-002     3.7780520569204317E-015
  -1.7450000000000000E-002     9.4067460695581685E-016
  -1.7399999999999999E-002    -2.4308687452076576E-015
  -1.7350000000000001E-002    -5.5631089794473950E-015
  -1.7299999999999999E-002    -7.6625705952524364E-015
  -1.7250000000000001E-002    -8.1112938347932532E-015
  -1.7200000000000000E-002    -6.6368426816404058E-015
  -1.7149999999999999E-002    -3.4116605958292819E-015
  -1.7100000000000001E-002     9.4902785764827464E-016
  -1.7049999999999999E-002     5.4983977853159261E-015
  -1.7000000000000001E-002     9.1592711930737531E-015
  -1.6950000000000000E-002     1.0972981200933575E-014
  -1.6899999999999998E-002     1.0339115864470350E-014
  -1.6850000000000000E-002     7.1881579126019654E-015
  -1.6799999999999999E-002     2.0415351150239819E-015
  -1.6750000000000001E-002    -4.0626856169589899E-015
  -1.6700000000000000E-002    -9.7705114269099845E-015
  -1.6649999999999998E-002    -1.3701866236339112E-014
  -1.6600000000000000E-002    -1.4769878036053751E-014
  -1.6549999999999999E-002    -1.2459248379707362E-014
  -1.6500000000000001E-002    -6.9973491187398004E-015
  -1.6449999999999999E-002     6.2993597869011389E-016
  -1.6400000000000001E-002     8.8354638173641470E-015
  -1.6350000000000000E-002     1.5742261062591848E-014
  -1.6299999999999999E-002     1.9593720375251484E-014
  -1.6250000000000001E-002     1.9178696844962258E-014
  -1.6199999999999999E-002     1.4174306918311429E-014
  -1.6150000000000001E-002     5.3162879351893138E-015
  -1.6100000000000000E-002    -5.6640113359521071E-015
  -1.6049999999999998E-002    -1.6349050385821931E-014
  -1.6000000000000000E-002    -2.4145641869056352E-014
  -1.5949999999999999E-002    -2.6895819384419981E-014
  -1.5900000000000001E-002    -2.3448919297206321E-014
  -1.5850000000000000E-002    -1.4047652588814713E-014
  -1.5799999999999998E-002    -4.0976518464517552E-016
  -1.5750000000000000E-002     1.4549243731232274E-014
  -1.5699999999999999E-002     2.7320803482851894E-014
  -1.5650000000000001E-002     3.4615416823947003E-014
  -1.5599999999999999E-002     3.4195952382674392E-014
  -1.5550000000000001E-002     2.5521776854904445E-014
  -1.5500000000000000E-002     1.0023149412130648E-014
  -1.5449999999999998E-002    -9.0944518636650089E-015
  -1.5400000000000000E-002    -2.7502918551431312E-014
  -1.5349999999999999E-002    -4.0729510167378948E-014
  -1.5300000000000001E-002    -4.5236719162677743E-014
  -1.5250000000000000E-002    -3.9341448961895599E-014
  -1.5199999999999998E-002    -2.3737257676083182E-014
  -1.5150000000000000E-002    -1.4712514897915886E-015
  -1.5099999999999999E-002     2.2644830417233140E-014
  -1.5050000000000001E-002     4.3072952710959400E-014
  -1.4999999999999999E-002     5.4808712439765406E-014
  -1.4949999999999998E-002     5.4576391006639236E-014
  -1.4900000000000000E-002     4.1680112751733461E-014
  -1.4849999999999999E-002     1.8303957462376300E-014
  -1.4800000000000001E-002    -1.0827868544026597E-014
  -1.4749999999999999E-002    -3.9381054108590949E-014
  -1.4700000000000001E-002    -6.0752213773670946E-014
  -1.4650000000000000E-002    -6.9547085967501744E-014
  -1.4599999999999998E-002    -6.2881075317844701E-014
  -1.4550000000000000E-002    -4.1207539778838134E-014
  -1.4499999999999999E-002    -8.4599372756036289E-015
  -1.4450000000000001E-002     2.8577177529271381E-014
  -1.4400000000000000E-002     6.1594921464844881E-014
  -1.4349999999999998E-002     8.2552050838553193E-014
  -1.4300000000000000E-002     8.5570589304926972E-014
  -1.4249999999999999E-002     6.8508412384561094E-014
  -1.4200000000000001E-002     3.3805406079830354E-014
  -1.4149999999999999E-002    -1.1677721710996378E-014
  -1.4099999999999998E-002    -5.7900074200515326E-014
  -1.4050000000000000E-002    -9.3776175219574226E-014
  -1.3999999999999999E-002    -1.0977534654933666E-013
  -1.3950000000000001E-002    -1.0038617576777386E-013
  -1.3899999999999999E-002    -6.5813659256986059E-014
  -1.3850000000000001E-002    -1.2406869375776981E-014
  -1.3800000000000000E-002     4.8406594690350013E-014
  -1.3749999999999998E-002     1.0253594879285675E-013
  -1.3700000000000000E-002     1.3648540464005006E-013
  -1.3649999999999999E-002     1.4068884361833520E-013
  -1.3600000000000001E-002     1.1208193347144577E-013
  -1.3550000000000000E-002     5.5217807119891750E-014
  -1.3499999999999998E-002    -1.8428763527808762E-014
  -1.3450000000000000E-002    -9.2876127344472536E-014
  -1.3399999999999999E-002    -1.5123627799280584E-013
  -1.3350000000000001E-002    -1.7965416364883732E-013
  -1.3299999999999999E-002    -1.7063536155061468E-013
  -1.3249999999999998E-002    -1.2494899057807165E-013
  -1.3200000000000000E-002    -5.1632624952689844E-014
  -1.3149999999999998E-002     3.3922457638875603E-014
  -1.3100000000000001E-002     1.1337464328599906E-013
  -1.3049999999999999E-002     1.6955363570711460E-013
  -1.3000000000000001E-002     1.9037202898165736E-013
  -1.2950000000000000E-002     1.7165175240845634E-013
  -1.2899999999999998E-002     1.1822817344977132E-013
  -1.2850000000000000E-002     4.3058485375908033E-014
  -1.2799999999999999E-002    -3.5525651525869833E-014