  -4.0000000000000001E-002     0.0000000000000000     
  -3.9949999999999999E-002     0.0000000000000000     
  -3.9899999999999998E-002     0.0000000000000000     
  -3.9850000000000003E-002     0.0000000000000000     
  -3.9800000000000002E-002     0.0000000000000000     
  -3.9750000000000001E-002     0.0000000000000000     
  -3.9699999999999999E-002     0.0000000000000000     
  -3.9649999999999998E-002     0.0000000000000000     
  -3.9600000000000003E-002     0.0000000000000000     
  -3.9550000000000002E-002     0.0000000000000000     
  -3.9500000000000000E-002     0.0000000000000000     
  -3.9449999999999999E-002     0.0000000000000000     
  -3.9399999999999998E-002     0.0000000000000000     
  -3.9350000000000003E-002     0.0000000000000000     
  -3.9300000000000002E-002     0.0000000000000000     
  -3.9250000000000000E-002     0.0000000000000000     
  -3.9199999999999999E-002     0.0000000000000000     
  -3.9150000000000004E-002     0.0000000000000000     
  -3.9100000000000003E-002     0.0000000000000000     
  -3.9050000000000001E-002     0.0000000000000000     
  -3.9000000000000000E-002     0.0000000000000000     
  -3.8949999999999999E-002     0.0000000000000000     
  -3.8900000000000004E-002     0.0000000000000000     
  -3.8850000000000003E-002     0.0000000000000000     
  -3.8800000000000001E-002     0.0000000000000000     
  -3.8750000000000000E-002     0.0000000000000000     
  -3.8699999999999998E-002     0.0000000000000000     
  -3.8650000000000004E-002     0.0000000000000000     
  -3.8600000000000002E-002     0.0000000000000000     
  -3.8550000000000001E-002     0.0000000000000000     
  -3.8500000000000000E-002     0.0000000000000000     
  -3.8449999999999998E-002     0.0000000000000000     
  -3.8400000000000004E-002     0.0000000000000000     
  -3.8350000000000002E-002     0.0000000000000000     
  -3.8300000000000001E-002     0.0000000000000000     
  -3.8249999999999999E-002     0.0000000000000000     
  -3.8199999999999998E-002     0.0000000000000000     
  -3.8150000000000003E-002     0.0000000000000000     
  -3.8100000000000002E-002     0.0000000000000000     
  -3.8050000000000000E-002     0.0000000000000000     
  -3.7999999999999999E-002     0.0000000000000000     
  -3.7949999999999998E-002     1.9745925102059027E-039
  -3.7900000000000003E-002     8.7947173576298749E-039
  -3.7850000000000002E-002     1.6956220914809426E-038
  -3.7800000000000000E-002     1.4187423146997544E-038
  -3.7749999999999999E-002    -7.4829850841748299E-038
  -3.7699999999999997E-002    -3.4519256547679556E-037
  -3.7650000000000003E-002    -7.8339825167197372E-037
  -3.7600000000000001E-002    -1.0300774801744425E-036
  -3.7550000000000000E-002    -1.9189886034106224E-038
  -3.7499999999999999E-002     4.1090544113052315E-036
  -3.7449999999999997E-002     1.2879512042276872E-035
  -3.7400000000000003E-002     2.4075807903187113E-035
  -3.7350000000000001E-002     2.6249375757711148E-035
  -3.7300000000000000E-002    -4.9976199270812035E-036
  -3.7249999999999998E-002    -9.9797733882671500E-035
  -3.7200000000000004E-002    -2.6447986173727907E-034
  -3.7150000000000002E-002    -4.2779461114301185E-034
  -3.7100000000000001E-002    -3.8915851998420781E-034
  -3.7050000000000000E-002     1.6455096618628790E-034
  -3.6999999999999998E-002     1.4864267747854271E-033
  -3.6950000000000004E-002     3.4051463740506656E-033
  -3.6900000000000002E-002     4.8927399676917865E-033
  -3.6850000000000001E-002     3.9172004703705357E-033
  -3.6799999999999999E-002    -1.9309692744337680E-033
  -3.6749999999999998E-002    -1.3742271656907032E-032
  -3.6700000000000003E-002    -2.8889231753374856E-032
  -3.6650000000000002E-002    -3.9240748056956536E-032
  -3.6600000000000001E-002    -3.1940591543571700E-032
  -3.6549999999999999E-002     5.7266451465002091E-033
  -3.6499999999999998E-002     7.7660809356999345E-032
  -3.6450000000000003E-002     1.6929753798479838E-031
  -3.6400000000000002E-002     2.4177034659249958E-031
  -3.6350000000000000E-002     2.3495019531415099E-031
  -3.6299999999999999E-002     8.3293487986207965E-032
  -3.6249999999999998E-002    -2.5310789068687734E-031
  -3.6200000000000003E-002    -7.4266476908013199E-031
  -3.6150000000000002E-002    -1.2309949232605905E-030
  -3.6100000000000000E-002    -1.4145716664212939E-030
  -3.6049999999999999E-002    -8.9776285027852331E-031
  -3.6000000000000004E-002     6.0205614740446521E-031
  -3.5950000000000003E-002     2.9009881628453954E-030
  -3.5900000000000001E-002     5.0099047830141961E-030
  -3.5850000000000000E-002     5.1758795441677874E-030
  -3.5799999999999998E-002     1.7178376991020571E-030
  -3.5750000000000004E-002    -5.2869555097526509E-030
  -3.5700000000000003E-002    -1.2256357110174267E-029
  -3.5650000000000001E-002    -1.2048500637152544E-029
  -3.5600000000000000E-002     2.4943392290801831E-030
  -3.5549999999999998E-002     3.1172154190817888E-029
  -3.5500000000000004E-002     5.8640300860708153E-029
  -3.5450000000000002E-002     5.3486240807898381E-029
  -3.5400000000000001E-002    -1.8122630356916771E-029
  -3.5349999999999999E-002    -1.6309691698637157E-028
  -3.5299999999999998E-002    -3.2880704255459721E-028
  -3.5250000000000004E-002    -3.9337798962215077E-028
  -3.5200000000000002E-002    -2.0662964616018817E-028
  -3.5150000000000001E-002     3.1235631535204891E-028
  -3.5099999999999999E-002     1.0585048416745162E-027
  -3.5049999999999998E-002     1.6852803967855725E-027
  -3.5000000000000003E-002     1.6958427042569835E-027
  -3.4950000000000002E-002     7.0293313448802472E-028
  -3.4900000000000000E-002    -1.2427794475900445E-027
  -3.4849999999999999E-002    -3.4713051092404973E-027
  -3.4799999999999998E-002    -4.8791762549690440E-027
  -3.4750000000000003E-002    -4.5244080783595991E-027
  -3.4700000000000002E-002    -2.3509046528135107E-027
  -3.4650000000000000E-002     5.1132737507101945E-028
  -3.4599999999999999E-002     2.3787350705706359E-027
  -3.4549999999999997E-002     2.5562379082987453E-027
  -3.4500000000000003E-002     2.8942643017477094E-027
  -3.4450000000000001E-002     7.7964584410664605E-027
  -3.4400000000000000E-002     2.1373223535650996E-026
  -3.4349999999999999E-002     4.2051371760403690E-026
  -3.4299999999999997E-002     5.7498165620908704E-026
  -3.4250000000000003E-002     4.4728079757217376E-026
  -3.4200000000000001E-002    -2.0275402838551660E-026
  -3.4150000000000000E-002    -1.4348304612913200E-025
  -3.4099999999999998E-002    -2.9178055526377243E-025
  -3.4049999999999997E-002    -3.8432565599178835E-025
  -3.4000000000000002E-002    -3.1157941816644388E-025
  -3.3950000000000001E-002     1.2044914641150733E-026
  -3.3900000000000000E-002     5.7516093351587849E-025
  -3.3849999999999998E-002     1.2109363588978445E-024
  -3.3799999999999997E-002     1.5992365919415055E-024
  -3.3750000000000002E-002     1.3632037111748437E-024
  -3.3700000000000001E-002     2.5418739488927040E-025
  -3.3649999999999999E-002    -1.6373887700570431E-024
  -3.3599999999999998E-002    -3.7536765606289994E-024
  -3.3550000000000003E-002    -5.1353044475847776E-024
  -3.3500000000000002E-002    -4.7331571779469657E-024
  -3.3450000000000001E-002    -1.9029674348787408E-024
  -3.3399999999999999E-002     3.1051369766423708E-024
  -3.3349999999999998E-002     8.9173770060356669E-024
  -3.3300000000000003E-002     1.3274104361476371E-023
  -3.3250000000000002E-002     1.3765341977087062E-023
  -3.3200000000000000E-002     8.8494833399154745E-024
  -3.3149999999999999E-002    -1.2577889749749749E-024
  -3.3099999999999997E-002    -1.4265104134552282E-023
  -3.3050000000000003E-002    -2.6297588762954534E-023
  -3.3000000000000002E-002    -3.3072708886755902E-023
  -3.2950000000000000E-002    -3.1279245852993103E-023
  -3.2899999999999999E-002    -1.9556679452002002E-023
  -3.2850000000000004E-002     1.2928378475085891E-024
  -3.2800000000000003E-002     2.8716896093711497E-023
  -3.2750000000000001E-002     5.8823504650510359E-023
  -3.2700000000000000E-002     8.6102601897811026E-023
  -3.2649999999999998E-002     1.0236944758986011E-022
  -3.2600000000000004E-002     9.5935625954998573E-023
  -3.2550000000000003E-002     5.2967621312326235E-023
  -3.2500000000000001E-002    -3.7079609485900358E-023
  -3.2450000000000000E-002    -1.7179998822581044E-022
  -3.2399999999999998E-002    -3.2499125049063923E-022
  -3.2350000000000004E-002    -4.4101844691663769E-022
  -3.2300000000000002E-002    -4.4209234663084488E-022
  -3.2250000000000001E-002    -2.5338863918375684E-022
  -3.2199999999999999E-002     1.5656048693576770E-022
  -3.2149999999999998E-002     7.3308130301532947E-022
  -3.2100000000000004E-002     1.3116940353677057E-021
  -3.2050000000000002E-002     1.6363703369365828E-021
  -3.2000000000000001E-002     1.4322491027709588E-021
  -3.1949999999999999E-002     5.2372414110028834E-022
  -3.1899999999999998E-002    -1.0378689455783217E-021
  -3.1850000000000003E-002    -2.8930890856559438E-021
  -3.1800000000000002E-002    -4.3972242008849422E-021
  -3.1750000000000000E-002    -4.7791218942859350E-021
  -3.1699999999999999E-002    -3.4181459011860655E-021
  -3.1649999999999998E-002    -1.6202922049083663E-022
  -3.1600000000000003E-002     4.4362479135632790E-021
  -3.1550000000000002E-002     9.0897055747837810E-021
  -3.1500000000000000E-002     1.2035812659227512E-020
  -3.1449999999999999E-002     1.1565854710737778E-020
  -3.1399999999999997E-002     6.6945604313696863E-021
  -3.1350000000000003E-002    -2.2509316339439270E-021
  -3.1300000000000001E-002    -1.3367313890273576E-020
  -3.1250000000000000E-002    -2.3415018835682304E-020
  -3.1199999999999999E-002    -2.8593142908556190E-020
  -3.1150000000000001E-002    -2.5695486670447726E-020
  -3.1100000000000003E-002    -1.3333384039126572E-020
  -3.1050000000000001E-002     7.1637855496670479E-021
  -3.1000000000000000E-002     3.1514656248252092E-020
  -3.0949999999999998E-002     5.3105543316595164E-020
  -3.0900000000000000E-002     6.4426742065303380E-020
  -3.0850000000000002E-002     5.9063008758569779E-020
  -3.0800000000000001E-002     3.3808185723034293E-020
  -3.0750000000000000E-002    -9.6046796698110880E-021
  -3.0699999999999998E-002    -6.3653781264723123E-020
  -3.0650000000000000E-002    -1.1546749119203120E-019
  -3.0600000000000002E-002    -1.4880194450076469E-019
  -3.0550000000000001E-002    -1.4756356229829477E-019
  -3.0499999999999999E-002    -1.0052323659090613E-019
  -3.0449999999999998E-002    -6.3911206133476627E-021
  -3.0400000000000000E-002     1.2209939568345904E-019
  -3.0350000000000002E-002     2.5682519320451897E-019
  -3.0300000000000001E-002     3.5730739522585158E-019
  -3.0249999999999999E-002     3.7910173680234587E-019
  -3.0200000000000001E-002     2.8699577226814392E-019
  -3.0150000000000000E-002     7.0399913826887492E-020
  -3.0100000000000002E-002    -2.4369813679280787E-019
  -3.0050000000000000E-002    -5.8593356682640034E-019
  -2.9999999999999999E-002    -8.5291418728165425E-019
  -2.9950000000000001E-002    -9.3071074704946255E-019
  -2.9899999999999999E-002    -7.3050572760652302E-019
  -2.9850000000000002E-002    -2.2774942458887726E-019
  -2.9800000000000000E-002     5.0817493115263769E-019
  -2.9749999999999999E-002     1.3076133590528894E-018
  -2.9700000000000001E-002     1.9273330241659417E-018
  -2.9650000000000003E-002     2.1108675465967404E-018
  -2.9600000000000001E-002     1.6711550022231248E-018
  -2.9550000000000000E-002     5.7289625445144132E-019
  -2.9499999999999998E-002    -1.0139561016366866E-018
  -2.9450000000000000E-002    -2.7154672737078041E-018
  -2.9400000000000003E-002    -4.0230809535209193E-018
  -2.9350000000000001E-002    -4.4242615821622575E-018
  -2.9300000000000000E-002    -3.5653843840559037E-018
  -2.9249999999999998E-002    -1.4008494564705898E-018
  -2.9200000000000000E-002     1.7224996069626340E-018
  -2.9150000000000002E-002     5.0855975077197610E-018
  -2.9100000000000001E-002     7.7361366385818899E-018
  -2.9049999999999999E-002     8.7258864507851486E-018
  -2.8999999999999998E-002     7.3925701866422356E-018
  -2.8950000000000000E-002     3.6106643388526329E-018
  -2.8900000000000002E-002    -2.0667227387781879E-018
  -2.8850000000000001E-002    -8.4329175797904494E-018
  -2.8799999999999999E-002    -1.3839439919905927E-017
  -2.8749999999999998E-002    -1.6566506074242109E-017
  -2.8700000000000000E-002    -1.5278957933974551E-017
  -2.8650000000000002E-002    -9.4625605806464329E-018
  -2.8600000000000000E-002     2.7443843617631439E-019
  -2.8549999999999999E-002     1.2134263047655975E-017
  -2.8500000000000001E-002     2.3357264871230627E-017
  -2.8450000000000000E-002     3.0745576572626129E-017
  -2.8400000000000002E-002     3.1414066166587595E-017
  -2.8350000000000000E-002     2.3629914056326015E-017
  -2.8299999999999999E-002     7.5467477969622450E-018
  -2.8250000000000001E-002    -1.4384716945805468E-017
  -2.8200000000000003E-002    -3.7523224873728085E-017
  -2.8150000000000001E-002    -5.5770573740290120E-017
  -2.8100000000000000E-002    -6.2900117830037783E-017
  -2.8049999999999999E-002    -5.4268813596891678E-017
  -2.8000000000000001E-002    -2.8526724311273107E-017
  -2.7950000000000003E-002     1.1175025873423490E-017
  -2.7900000000000001E-002     5.6969810953285182E-017
  -2.7850000000000000E-002     9.7383148194627937E-017
  -2.7799999999999998E-002     1.1977572226152092E-016
  -2.7750000000000000E-002     1.1372689647400205E-016
  -2.7700000000000002E-002     7.4571884062295663E-017
  -2.7650000000000001E-002     6.0628768457252669E-018
  -2.7600000000000000E-002    -7.8850638101479494E-017
  -2.7549999999999998E-002    -1.5977783356074174E-016
  -2.7500000000000000E-002    -2.1320034410698750E-016
  -2.7450000000000002E-002    -2.1858887641667627E-016
  -2.7400000000000001E-002    -1.6486842886533907E-016
  -2.7349999999999999E-002    -5.5394060389362719E-017
  -2.7299999999999998E-002     9.0293474473007585E-017
  -2.7250000000000000E-002     2.3901142825569231E-016
  -2.7200000000000002E-002     3.5077630980486310E-016
  -2.7150000000000001E-002     3.8869444548373503E-016
  -2.7099999999999999E-002     3.2959173066360683E-016
  -2.7049999999999998E-002     1.7253494015815908E-016
  -2.7000000000000000E-002    -5.7400562390102015E-017
  -2.6950000000000002E-002    -3.1179588992167421E-016
  -2.6900000000000000E-002    -5.2813080287844864E-016
  -2.6849999999999999E-002    -6.4401493888681144E-016
  -2.6800000000000001E-002    -6.1333969818617368E-016
  -2.6749999999999999E-002    -4.2045351251478514E-016
  -2.6700000000000002E-002    -8.8548499647637235E-017
  -2.6650000000000000E-002     3.2053100078201312E-016
  -2.6599999999999999E-002     7.1606613264033808E-016
  -2.6550000000000001E-002     9.9666858028210843E-016
  -2.6500000000000003E-002     1.0736517434472745E-015
  -2.6450000000000001E-002     8.9472172230875878E-016
  -2.6400000000000000E-002     4.6244620430411497E-016
  -2.6349999999999998E-002    -1.5762369811031852E-016
  -2.6300000000000000E-002    -8.4271205659594634E-016
  -2.6250000000000002E-002    -1.4333749600091588E-015
  -2.6200000000000001E-002    -1.7664966630149195E-015
  -2.6150000000000000E-002    -1.7149885873390721E-015
  -2.6099999999999998E-002    -1.2257356420537904E-015
  -2.6050000000000000E-002    -3.4606323544633963E-016
  -2.6000000000000002E-002     7.7014620272396037E-016
  -2.5950000000000001E-002     1.8822349656461880E-015
  -2.5899999999999999E-002     2.7084643831532765E-015
  -2.5849999999999998E-002     2.9908308222477223E-015
  -2.5800000000000000E-002     2.5657116763275521E-015
  -2.5750000000000002E-002     1.4227770439934241E-015
  -2.5700000000000001E-002    -2.6573977722371635E-016
  -2.5649999999999999E-002    -2.1587003417609120E-015
  -2.5599999999999998E-002    -3.8066788818694410E-015
  -2.5550000000000000E-002    -4.7513935040742238E-015
  -2.5500000000000002E-002    -4.6437019643957362E-015
  -2.5450000000000000E-002    -3.3514026738108990E-015
  -2.5399999999999999E-002    -1.0262887958543756E-015
  -2.5349999999999998E-002     1.8936430065381320E-015
  -2.5300000000000000E-002     4.7567203812382139E-015
  -2.5250000000000002E-002     6.8358514722878053E-015
  -2.5200000000000000E-002     7.5045728643527182E-015
  -2.5149999999999999E-002     6.4094171670444841E-015
  -2.5100000000000001E-002     3.5932590115180513E-015
  -2.5049999999999999E-002    -4.6773339852415917E-016
  -2.5000000000000001E-002    -4.9322671076911316E-015
  -2.4950000000000000E-002    -8.7606851044425996E-015
  -2.4899999999999999E-002    -1.0948202421178065E-014
  -2.4850000000000001E-002    -1.0773157302331548E-014
  -2.4800000000000003E-002    -8.0010629752416369E-015
  -2.4750000000000001E-002    -2.9915246963058733E-015
  -2.4700000000000000E-002     3.3255759606514554E-015
  -2.4649999999999998E-002     9.6099681505974901E-015
  -2.4600000000000000E-002     1.4381407588241104E-014
  -2.4550000000000002E-002     1.6348372798610902E-014
  -2.4500000000000001E-002     1.4726034711673789E-014
  -2.4450000000000000E-002     9.4715594029128024E-015
  -2.4399999999999998E-002     1.3765380359276867E-015
  -2.4350000000000000E-002    -8.0186025558975881E-015
  -2.4299999999999999E-002    -1.6688949585092822E-014
  -2.4250000000000001E-002    -2.2530723391148415E-014
  -2.4199999999999999E-002    -2.3835411724223027E-014
  -2.4150000000000001E-002    -1.9734923888937670E-014
  -2.4100000000000000E-002    -1.0512487744065639E-014
  -2.4049999999999998E-002     2.3116583147340029E-015
  -2.4000000000000000E-002     1.6173076073973851E-014
  -2.3949999999999999E-002     2.7930719333522777E-014
  -2.3900000000000001E-002     3.4538749113995836E-014
  -2.3850000000000000E-002     3.3790256045789480E-014
  -2.3800000000000002E-002     2.4961044741936306E-014
  -2.3750000000000000E-002     9.1788891592286042E-015
  -2.3699999999999999E-002    -1.0613680271250944E-014
  -2.3650000000000001E-002    -3.0150841296933653E-014
  -2.3599999999999999E-002    -4.4726594379191639E-014
  -2.3550000000000001E-002    -5.0296664329099863E-014
  -2.3500000000000000E-002    -4.4546435112099982E-014
  -2.3449999999999999E-002    -2.7649439584679880E-014
  -2.3400000000000001E-002    -2.4889439411998589E-015
  -2.3349999999999999E-002     2.5770443658985196E-014
  -2.3300000000000001E-002     5.0718030720294502E-014
  -2.3250000000000000E-002     6.6135646854174724E-014
  -2.3199999999999998E-002     6.7515526354081754E-014
  -2.3150000000000000E-002     5.3287517746457188E-014
  -2.3099999999999999E-002     2.5431796270726969E-014
  -2.3050000000000001E-002    -1.0714709065814770E-014
  -2.3000000000000000E-002    -4.7463131191900606E-014
  -2.2950000000000002E-002    -7.6397268590868955E-014
  -2.2900000000000000E-002    -9.0269627634986405E-014
  -2.2849999999999999E-002    -8.4742428001537009E-014
  -2.2800000000000001E-002    -5.9567243074638223E-014
  -2.2749999999999999E-002    -1.8910850450796877E-014
  -2.2700000000000001E-002     2.9284996810251316E-014
  -2.2650000000000000E-002     7.4814958692852383E-014
  -2.2599999999999999E-002     1.0730838058340039E-013
  -2.2550000000000001E-002     1.1849640483790742E-013
  -2.2499999999999999E-002     1.0417707697590135E-013
  -2.2450000000000001E-002     6.5445035462988327E-014
  -2.2400000000000000E-002     8.8749049369453363E-015
  -2.2349999999999998E-002    -5.4462321079075121E-014
  -2.2300000000000000E-002    -1.1104310483117214E-013
  -2.2249999999999999E-002    -1.4765869400880865E-013
  -2.2200000000000001E-002    -1.5438072711822897E-013
  -2.2150000000000000E-002    -1.2709491061967463E-013
  -2.2100000000000002E-002    -6.8989265206845531E-014
  -2.2050000000000000E-002     9.4621669111569318E-015
  -2.1999999999999999E-002     9.2193467798478518E-014
  -2.1950000000000001E-002     1.6072038416185136E-013
  -2.1899999999999999E-002     1.9821421554936281E-013
  -2.1850000000000001E-002     1.9360126642955384E-013
  -2.1800000000000000E-002     1.4469659426432876E-013
  -2.1749999999999999E-002     5.9501516984296616E-014
  -2.1700000000000001E-002    -4.4843165955202633E-014
  -2.1649999999999999E-002    -1.4541719195710147E-013
  -2.1600000000000001E-002    -2.1857079378992399E-013
  -2.1550000000000000E-002    -2.4555116256870897E-013
  -2.1499999999999998E-002    -2.1734857596488201E-013
  -2.1450000000000000E-002    -1.3749775007604628E-013
  -2.1399999999999999E-002    -2.2001058579375654E-014
  -2.1350000000000001E-002     1.0378280208619079E-013
  -2.1299999999999999E-002     2.1068489355937956E-013
  -2.1250000000000002E-002     2.7247069039787020E-013
  -2.1200000000000000E-002     2.7220016810917432E-013
  -2.1149999999999999E-002     2.0666564124637720E-013
  -2.1100000000000001E-002     8.7791013695723353E-014
  -2.1049999999999999E-002    -5.9419706421953800E-014
  -2.1000000000000001E-002    -2.0199823742540646E-013
  -2.0950000000000000E-002    -3.0610258832065491E-013
  -2.0899999999999998E-002    -3.4454806142013472E-013
  -2.0850000000000000E-002    -3.0314943803948529E-013
  -2.0799999999999999E-002    -1.8449938984957798E-013
  -2.0750000000000001E-002    -8.3404705674991858E-015
  -2.0700000000000000E-002     1.9163040042973375E-013
  -2.0649999999999998E-002     3.7398612113298182E-013
  -2.0600000000000000E-002     4.9768998186590338E-013
  -2.0549999999999999E-002     5.3058613635980519E-013
  -2.0500000000000001E-002     4.5659583384154475E-013
  -2.0449999999999999E-002     2.8010383516890323E-013
  -2.0400000000000001E-002     2.6453812217830167E-014
  -2.0350000000000000E-002    -2.6184245567367870E-013
  -2.0299999999999999E-002    -5.3273717539780763E-013
  -2.0250000000000001E-002    -7.3480779256191147E-013
  -2.0199999999999999E-002    -8.2793217948380857E-013
  -2.0150000000000001E-002    -7.9212512064282359E-013
  -2.0100000000000000E-002    -6.3235534058632040E-013
  -2.0049999999999998E-002    -3.7790508896870193E-013
  -2.0000000000000000E-002    -7.6043053288147030E-014
  -1.9949999999999999E-002     2.1879512379389640E-013
  -1.9900000000000001E-002     4.5785323224480067E-013
  -1.9850000000000000E-002     6.0970880046351381E-013
  -1.9799999999999998E-002     6.6757608482622897E-013
  -1.9750000000000000E-002     6.5002194230809232E-013
  -1.9699999999999999E-002     5.9449092862124400E-013
  -1.9650000000000001E-002     5.4496245930366500E-013
  -1.9599999999999999E-002     5.3677160854890967E-013
  -1.9550000000000001E-002     5.8261427408150047E-013
  -1.9500000000000000E-002     6.6371880277723713E-013
  -1.9449999999999999E-002     7.2907138021745487E-013
  -1.9400000000000001E-002     7.0369052484134016E-013
  -1.9349999999999999E-002     5.0474999376350837E-013
  -1.9300000000000001E-002     6.2421760963822466E-014
  -1.9250000000000000E-002    -6.5886641675967354E-013
  -1.9199999999999998E-002    -1.6432315901751927E-012
  -1.9150000000000000E-002    -2.8138095265647477E-012
  -1.9099999999999999E-002    -4.0329373704024652E-012
  -1.9050000000000001E-002    -5.1121397481028418E-012
  -1.9000000000000000E-002    -5.8301801391118400E-012
  -1.8949999999999998E-002    -5.9560493770771978E-012
  -1.8900000000000000E-002    -5.2730359986084775E-012
  -1.8849999999999999E-002    -3.6000123272147889E-012
  -1.8800000000000001E-002    -8.0666738837024161E-013
  -1.8749999999999999E-002     3.1794864760649439E-012
  -1.8700000000000001E-002     8.3750570676800833E-012
  -1.8650000000000000E-002     1.4750828967006668E-011
  -1.8599999999999998E-002     2.2247529975948408E-011
  -1.8550000000000001E-002     3.0793805196680709E-011
  -1.8499999999999999E-002     4.0322262971518876E-011
  -1.8450000000000001E-002     5.0779678406016408E-011
  -1.8400000000000000E-002     6.2128792859493580E-011
  -1.8349999999999998E-002     7.4340870033684006E-011
  -1.8300000000000000E-002     8.7380928292281664E-011
  -1.8249999999999999E-002     1.0118962121541277E-010
  -1.8200000000000001E-002     1.1566736783536338E-010
  -1.8149999999999999E-002     1.3066611413321203E-010
  -1.8100000000000002E-002     1.4599339233522730E-010
  -1.8050000000000000E-002     1.6142957847136792E-010
  -1.7999999999999999E-002     1.7675645222684582E-010
  -1.7950000000000001E-002     1.9179140812839234E-010
  -1.7899999999999999E-002     2.0641989930744837E-010
  -1.7850000000000001E-002     2.2061795373764416E-010
  -1.7800000000000000E-002     2.3445879948689699E-010
  -1.7749999999999998E-002     2.4810071226425225E-010
  -1.7700000000000000E-002     2.6175784341909593E-010
  -1.7649999999999999E-002     2.7565959697855297E-010
  -1.7600000000000001E-002     2.9000710714366280E-010
  -1.7550000000000000E-002     3.0493638342986009E-010
  -1.7499999999999998E-002     3.2049608796428513E-010
  -1.7450000000000000E-002     3.3664410775039505E-010
  -1.7399999999999999E-002     3.5326415455325364E-010
  -1.7350000000000001E-002     3.7019783233519319E-010
  -1.7299999999999999E-002     3.8728515126170021E-010
  -1.7250000000000001E-002     4.0440478353439900E-010
  -1.7200000000000000E-002     4.2150521385857886E-010
  -1.7149999999999999E-002     4.3862074593705149E-010
  -1.7100000000000001E-002     4.5586891849007790E-010
  -1.7049999999999999E-002     4.7342966434640463E-010
  -1.7000000000000001E-002     4.9151144932053331E-010
  -1.6950000000000000E-002     5.1031113343125585E-010
  -1.6899999999999998E-002     5.2997625744581997E-010
  -1.6850000000000000E-002     5.5057707706504913E-010
  -1.6799999999999999E-002     5.7209354044128564E-010
  -1.6750000000000001E-002     5.9442107442997674E-010
  -1.6700000000000000E-002     6.1739289586010038E-010
  -1.6649999999999998E-002     6.4081554001919716E-010
  -1.6600000000000000E-002     6.6451008024267965E-010
  -1.6549999999999999E-002     6.8835066195395120E-010
  -1.6500000000000001E-002     7.1229242478918917E-010
  -1.6449999999999999E-002     7.3638313449558309E-010
  -1.6400000000000001E-002     7.6075568402906230E-010
  -1.6350000000000000E-002     7.8560330414329493E-010
  -1.6299999999999999E-002     8.1114226923743743E-010
  -1.6250000000000001E-002     8.3756968751209869E-010
  -1.6199999999999999E-002     8.6502700207584897E-010
  -1.6150000000000001E-002     8.9357623547364590E-010
  -1.6100000000000000E-002     9.2319639365147996E-010
  -1.6049999999999998E-002     9.5380047791291642E-010
  -1.6000000000000000E-002     9.8527002916400286E-010
  -1.5949999999999999E-002     1.0174989999133890E-009
  -1.5900000000000001E-002     1.0504362886918002E-009
  -1.5850000000000000E-002     1.0841136438638067E-009
  -1.5799999999999998E-002     1.1186530071932612E-009
  -1.5750000000000000E-002     1.1542477172932311E-009
  -1.5699999999999999E-002     1.1911208070385511E-009
  -1.5650000000000001E-002     1.2294697593210062E-009
  -1.5599999999999999E-002     1.2694121601121154E-009
  -1.5550000000000001E-002     1.3109469514538454E-009
  -1.5500000000000000E-002     1.3539419235479992E-009
  -1.5449999999999998E-002     1.3981526373175426E-009
  -1.5400000000000000E-002     1.4432714534345397E-009
  -1.5349999999999999E-002     1.4889985232233551E-009
  -1.5300000000000001E-002     1.5351171633567663E-009
  -1.5250000000000000E-002     1.5815565243989488E-009
  -1.5199999999999998E-002     1.6284262636632242E-009
  -1.5150000000000000E-002     1.6760156326708127E-009
  -1.5099999999999999E-002     1.7247542160507118E-009
  -1.5050000000000001E-002     1.7751448892607783E-009
  -1.4999999999999999E-002     1.8276808556991453E-009
  -1.4949999999999998E-002     1.8827609561058160E-009
  -1.4900000000000000E-002     1.9406246780959241E-009
  -1.4849999999999999E-002     2.0013143022396504E-009
  -1.4800000000000001E-002     2.0646771305939618E-009
  -1.4749999999999999E-002     2.1304035737648658E-009
  -1.4700000000000001E-002     2.1980919383324467E-009
  -1.4650000000000000E-002     2.2673278846737813E-009
  -1.4599999999999998E-002     2.3377622297751274E-009
  -1.4550000000000000E-002     2.4091737801250798E-009
  -1.4499999999999999E-002     2.4815091045841880E-009
  -1.4450000000000001E-002     2.5548889503997790E-009
  -1.4400000000000000E-002     2.6295838727027519E-009
  -1.4349999999999998E-002     2.7059650218210882E-009
  -1.4300000000000000E-002     2.7844424053774944E-009
  -1.4249999999999999E-002     2.8654002564463936E-009
  -1.4200000000000001E-002     2.9491443440029171E-009
  -1.4149999999999999E-002     3.0358726686925661E-009
  -1.4099999999999998E-002     3.1256654861839615E-009
  -1.4050000000000000E-002     3.2185000414657328E-009
  -1.3999999999999999E-002     3.3142869789492407E-009
  -1.3950000000000001E-002     3.4129134879778573E-009
  -1.3899999999999999E-002     3.5142933159912062E-009
  -1.3850000000000001E-002     3.6184013234689191E-009
  -1.3800000000000000E-002     3.7252919715169098E-009
  -1.3749999999999998E-002     3.8350928938450574E-009
  -1.3700000000000000E-002     3.9479743433647849E-009
  -1.3649999999999999E-002     4.0641064769970196E-009
  -1.3600000000000001E-002     4.1836105786631660E-009
  -1.3550000000000000E-002     4.3065193319066309E-009
  -1.3499999999999998E-002     4.4327654999102637E-009
  -1.3450000000000000E-002     4.5621954773786121E-009
  -1.3399999999999999E-002     4.6946184504651253E-009
  -1.3350000000000001E-002     4.8298742840512403E-009
  -1.3299999999999999E-002     4.9679135019072394E-009
  -1.3249999999999998E-002     5.1088610586406236E-009
  -1.3200000000000000E-002     5.2530449682917297E-009
  -1.3149999999999998E-002     5.4009768652762143E-009
  -1.3100000000000001E-002     5.5532809620478562E-009
  -1.3049999999999999E-002     5.7105965619473884E-009
  -1.3000000000000001E-002     5.8734588256008584E-009
  -1.2950000000000000E-002     6.0422016624735604E-009
  -1.2899999999999998E-002     6.2168903650275682E-009
  -1.2850000000000000E-002     6.3973130854770955E-009
  -1.2799999999999999E-002     6.5830327248228223E-009