  -4.0000000000000001E-002     0.0000000000000000     
  -3.9949999999999999E-002     0.0000000000000000     
  -3.9899999999999998E-002     0.0000000000000000     
  -3.9850000000000003E-002     0.0000000000000000     
  -3.9800000000000002E-002     0.0000000000000000     
  -3.9750000000000001E-002     0.0000000000000000     
  -3.9699999999999999E-002     0.0000000000000000     
  -3.9649999999999998E-002     0.0000000000000000     
  -3.9600000000000003E-002     0.0000000000000000     
  -3.9550000000000002E-002     0.0000000000000000     
  -3.9500000000000000E-002     0.0000000000000000     
  -3.9449999999999999E-002     5.0893752023371044E-031
  -3.9399999999999998E-002     1.4012079236265030E-029
  -3.9350000000000003E-002     1.5521584608076857E-028
  -3.9300000000000002E-002     9.7599860679576133E-028
  -3.9250000000000000E-002     3.7506064330642460E-027
  -3.9199999999999999E-002     7.1098862422163607E-027
  -3.9150000000000004E-002    -1.2719723428647835E-026
  -3.9100000000000003E-002    -1.5923629455834091E-025
  -3.9050000000000001E-002    -7.0058598942019645E-025
  -3.9000000000000000E-002    -2.0230608099252886E-024
  -3.8949999999999999E-002    -3.9964068167426438E-024
  -3.8900000000000004E-002    -4.1137124055012713E-024
  -3.8850000000000003E-002     5.4731047330793490E-024
  -3.8800000000000001E-002     3.9128655791327429E-023
  -3.8750000000000000E-002     1.0969492064687572E-022
  -3.8699999999999998E-002     2.0171096353676922E-022
  -3.8650000000000004E-002     2.2573415099435194E-022
  -3.8600000000000002E-002    -1.7248891765651589E-023
  -3.8550000000000001E-002    -7.9028857937639355E-022
  -3.8500000000000000E-002    -2.2054145704633907E-021
  -3.8449999999999998E-002    -3.8214888038768915E-021
  -3.8400000000000004E-002    -4.2384225677269962E-021
  -3.8350000000000002E-002    -1.1388926000114473E-021
  -3.8300000000000001E-002     7.6633824732548470E-021
  -3.8249999999999999E-002     2.1977843139887292E-020
  -3.8199999999999998E-002     3.6591303748563515E-020
  -3.8150000000000003E-002     4.0256292242367361E-020
  -3.8100000000000002E-002     1.8828705155586828E-020
  -3.8050000000000000E-002    -3.6378540616552658E-020
  -3.7999999999999999E-002    -1.1762483753579618E-019
  -3.7949999999999998E-002    -1.9399975473661556E-019
  -3.7900000000000003E-002    -2.1711376599076138E-019
  -3.7850000000000002E-002    -1.4259840250574950E-019
  -3.7800000000000000E-002     4.0029848318506702E-020
  -3.7749999999999999E-002     2.8750127849928344E-019
  -3.7699999999999997E-002     5.1250466732318146E-019
  -3.7650000000000003E-002     6.2727308218277011E-019
  -3.7600000000000001E-002     5.9799998748513101E-019
  -3.7550000000000000E-002     4.6611968729365788E-019
  -3.7499999999999999E-002     3.0135515789226297E-019
  -3.7449999999999997E-002     9.9158844616465323E-020
  -3.7400000000000003E-002    -3.0055302534263382E-019
  -3.7350000000000001E-002    -1.1667076483233811E-018
  -3.7300000000000000E-002    -2.6494458535272405E-018
  -3.7249999999999998E-002    -4.4562841760773394E-018
  -3.7200000000000004E-002    -5.6632635261131709E-018
  -3.7150000000000002E-002    -4.9226899644653640E-018
  -3.7100000000000001E-002    -1.1528934219010158E-018
  -3.7050000000000000E-002     5.5475897620731430E-018
  -3.6999999999999998E-002     1.3328792171166075E-017
  -3.6950000000000004E-002     1.8937214863437899E-017
  -3.6900000000000002E-002     1.9123317266372529E-017
  -3.6850000000000001E-002     1.2521774086044027E-017
  -3.6799999999999999E-002     8.4964270208690514E-019
  -3.6749999999999998E-002    -1.1634884268154472E-017
  -3.6700000000000003E-002    -2.0527060963848494E-017
  -3.6650000000000002E-002    -2.4263943679646627E-017
  -3.6600000000000001E-002    -2.5550786904234147E-017
  -3.6549999999999999E-002    -2.9523631161569157E-017
  -3.6499999999999998E-002    -3.8900272652784461E-017
  -3.6450000000000003E-002    -4.8884607344095522E-017
  -3.6400000000000002E-002    -4.5963581138264565E-017
  -3.6350000000000000E-002    -1.3525491584928122E-017
  -3.6299999999999999E-002     5.6618673279572426E-017
  -3.6249999999999998E-002     1.5239896196338177E-016
  -3.6200000000000003E-002     2.3744316098030206E-016
  -3.6150000000000002E-002     2.6089194463605728E-016
  -3.6100000000000000E-002     1.8045211084129296E-016
  -3.6049999999999999E-002    -1.0346841631678750E-017
  -3.6000000000000004E-002    -2.6511620382313288E-016
  -3.5950000000000003E-002    -4.9053409099082484E-016
  -3.5900000000000001E-002    -5.7853080863385720E-016
  -3.5850000000000000E-002    -4.5452772625466939E-016
  -3.5799999999999998E-002    -1.2071171086950461E-016
  -3.5750000000000004E-002     3.2836158642599012E-016
  -3.5700000000000003E-002     7.3060789807728233E-016
  -3.5650000000000001E-002     9.1632077173529414E-016
  -3.5600000000000000E-002     7.7966487000869921E-016
  -3.5549999999999998E-002     3.2963682099786107E-016
  -3.5500000000000004E-002    -3.0505433668176517E-016
  -3.5450000000000002E-002    -9.2240511527454019E-016
  -3.5400000000000001E-002    -1.3248937842278655E-015
  -3.5349999999999999E-002    -1.3915522066823452E-015
  -3.5299999999999998E-002    -1.1086957183421386E-015
  -3.5250000000000004E-002    -5.4555369841487915E-016
  -3.5200000000000002E-002     2.0617332507585386E-016
  -3.5150000000000001E-002     1.0841977255625313E-015
  -3.5099999999999999E-002     2.0537614001754547E-015
  -3.5049999999999998E-002     3.0379624393916428E-015
  -3.5000000000000003E-002     3.8173746288842642E-015
  -3.4950000000000002E-002     3.9787449932480491E-015
  -3.4900000000000000E-002     2.9949174955616002E-015
  -3.4849999999999999E-002     4.6389426952496665E-016
  -3.4799999999999998E-002    -3.5612339832169319E-015
  -3.4750000000000003E-002    -8.3116734252586949E-015
  -3.4700000000000002E-002    -1.2300736126837249E-014
  -3.4650000000000000E-002    -1.3695895952721068E-014
  -3.4599999999999999E-002    -1.1015126460153617E-014
  -3.4549999999999997E-002    -3.9056494380317920E-015
  -3.4500000000000003E-002     6.3549748010585314E-015
  -3.4450000000000001E-002     1.6955692085833876E-014
  -3.4400000000000000E-002     2.4351041880621080E-014
  -3.4349999999999999E-002     2.5547408155981999E-014
  -3.4299999999999997E-002     1.9382471972903548E-014
  -3.4250000000000003E-002     7.2160701893031476E-015
  -3.4200000000000001E-002    -7.3656384200963647E-015
  -3.4150000000000000E-002    -1.9821865232094033E-014
  -3.4099999999999998E-002    -2.6428712056282208E-014
  -3.4049999999999997E-002    -2.5778207693449851E-014
  -3.4000000000000002E-002    -1.9279150893997468E-014
  -3.3950000000000001E-002    -1.0349334846689213E-014
  -3.3900000000000000E-002    -2.6141744917048976E-015
  -3.3849999999999998E-002     2.0270404753048969E-015
  -3.3799999999999997E-002     4.4322565976033686E-015
  -3.3750000000000002E-002     7.6553186058596519E-015
  -3.3700000000000001E-002     1.4869304247079607E-014
  -3.3649999999999999E-002     2.6709393364013866E-014
  -3.3599999999999998E-002     3.9485582636672109E-014
  -3.3550000000000003E-002     4.5556755660621298E-014
  -3.3500000000000002E-002     3.6279041159019074E-014
  -3.3450000000000001E-002     6.6571766748810789E-015
  -3.3399999999999999E-002    -4.0288901907584510E-014
  -3.3349999999999998E-002    -9.1784110693715615E-014
  -3.3300000000000003E-002    -1.2779660413676092E-013
  -3.3250000000000002E-002    -1.2771972065020454E-013
  -3.3200000000000000E-002    -7.9203868940877498E-014
  -3.3149999999999999E-002     1.4313427016982710E-014
  -3.3099999999999997E-002     1.3094146806332668E-013
  -3.3050000000000003E-002     2.3464265469855250E-013
  -3.3000000000000002E-002     2.8601657175476858E-013
  -3.2950000000000000E-002     2.5629674706324768E-013
  -3.2899999999999999E-002     1.3953375672774715E-013
  -3.2850000000000004E-002    -4.1958044704653100E-014
  -3.2800000000000003E-002    -2.4169295037568261E-013
  -3.2750000000000001E-002    -4.0202083740996375E-013
  -3.2700000000000000E-002    -4.7199174907017194E-013
  -3.2649999999999998E-002    -4.2397907558909542E-013
  -3.2600000000000004E-002    -2.6319744994562910E-013
  -3.2550000000000003E-002    -2.6742283653355750E-014
  -3.2500000000000001E-002     2.2742674713957522E-013
  -3.2450000000000000E-002     4.3754485711672286E-013
  -3.2399999999999998E-002     5.5516366243707482E-013
  -3.2350000000000004E-002     5.5675505438584905E-013
  -3.2300000000000002E-002     4.4672143588442292E-013
  -3.2250000000000001E-002     2.5219981810396808E-013
  -3.2199999999999999E-002     1.2976697217866387E-014
  -3.2149999999999998E-002    -2.2896287188260700E-013
  -3.2100000000000004E-002    -4.3661070852490935E-013
  -3.2050000000000002E-002    -5.8056440514417385E-013
  -3.2000000000000001E-002    -6.3845597645523222E-013
  -3.1949999999999999E-002    -5.9409882612396214E-013
  -3.1899999999999998E-002    -4.3907458506693697E-013
  -3.1850000000000003E-002    -1.7765896718167917E-013
  -3.1800000000000002E-002     1.6652850702136152E-013
  -3.1750000000000000E-002     5.4570806424028562E-013
  -3.1699999999999999E-002     8.8891302088209279E-013
  -3.1649999999999998E-002     1.1112655934342186E-012
  -3.1600000000000003E-002     1.1313031674647922E-012
  -3.1550000000000002E-002     8.9304784270730075E-013
  -3.1500000000000000E-002     3.8726774608324743E-013
  -3.1449999999999999E-002    -3.3433274052897810E-013
  -3.1399999999999997E-002    -1.1572510527982360E-012
  -3.1350000000000003E-002    -1.9175086865552693E-012
  -3.1300000000000001E-002    -2.4297558322977642E-012
  -3.1250000000000000E-002    -2.5262264068820484E-012
  -3.1199999999999999E-002    -2.0993358960941233E-012
  -3.1150000000000001E-002    -1.1383112334673040E-012
  -3.1100000000000003E-002     2.5055272526858241E-013
  -3.1050000000000001E-002     1.8487431637653762E-012
  -3.1000000000000000E-002     3.3595795416452301E-012
  -3.0949999999999998E-002     4.4682235342263787E-012
  -3.0900000000000000E-002     4.9158867081178226E-012
  -3.0850000000000002E-002     4.5694316386235556E-012
  -3.0800000000000001E-002     3.4650372848776811E-012
  -3.0750000000000000E-002     1.8088637141963626E-012
  -3.0699999999999998E-002    -7.1192089224660082E-014
  -3.0650000000000000E-002    -1.8130607692262712E-012
  -3.0600000000000002E-002    -3.1229823414802294E-012
  -3.0550000000000001E-002    -3.8601153523609710E-012
  -3.0499999999999999E-002    -4.0727954862818105E-012
  -3.0449999999999998E-002    -3.9697828357887488E-012
  -3.0400000000000000E-002    -3.8314516490056683E-012
  -3.0350000000000002E-002    -3.8880409308772457E-012
  -3.0300000000000001E-002    -4.2064407512754087E-012
  -3.0249999999999999E-002    -4.6273089526760458E-012
  -3.0200000000000001E-002    -4.7793938945384085E-012
  -3.0150000000000000E-002    -4.1724358343375734E-012
  -3.0100000000000002E-002    -2.3431655921113403E-012
  -3.0050000000000000E-002     9.8910983570288380E-013
  -2.9999999999999999E-002     5.8029189092811961E-012
  -2.9950000000000001E-002     1.1722019188642463E-011
  -2.9899999999999999E-002     1.8035571300312192E-011
  -2.9850000000000002E-002     2.3771814378070744E-011
  -2.9800000000000000E-002     2.7791591944437144E-011
  -2.9749999999999999E-002     2.8870411269976692E-011
  -2.9700000000000001E-002     2.5754721272308601E-011
  -2.9650000000000003E-002     1.7201250840370719E-011
  -2.9600000000000001E-002     2.0250266307558773E-012
  -2.9550000000000000E-002    -2.0817195189870574E-011
  -2.9499999999999998E-002    -5.2098637903785772E-011
  -2.9450000000000000E-002    -9.2168585263951996E-011
  -2.9400000000000003E-002    -1.4081920352015942E-010
  -2.9350000000000001E-002    -1.9723007949057347E-010
  -2.9300000000000000E-002    -2.6003416087050368E-010
  -2.9249999999999998E-002    -3.2751279466225469E-010
  -2.9200000000000000E-002    -3.9788125572037814E-010
  -2.9150000000000002E-002    -4.6958914534656060E-010
  -2.9100000000000001E-002    -5.4154747353152288E-010
  -2.9049999999999999E-002    -6.1321508981748707E-010
  -2.8999999999999998E-002    -6.8452260526541409E-010
  -2.8950000000000000E-002    -7.5566974899743400E-010
  -2.8900000000000002E-002    -8.2687595659436397E-010
  -2.8850000000000001E-002    -8.9817675519299200E-010
  -2.8799999999999999E-002    -9.6933916449160051E-010
  -2.8749999999999998E-002    -1.0399178185238611E-009
  -2.8700000000000000E-002    -1.1094216656459821E-009
  -2.8650000000000002E-002    -1.1775164177052488E-009
  -2.8600000000000000E-002    -1.2441832009102427E-009
  -2.8549999999999999E-002    -1.3097721796029305E-009
  -2.8500000000000001E-002    -1.3749401617246804E-009
  -2.8450000000000000E-002    -1.4405002746187279E-009
  -2.8400000000000002E-002    -1.5072472159260997E-009
  -2.8350000000000000E-002    -1.5758131466370173E-009
  -2.8299999999999999E-002    -1.6465919738806178E-009
  -2.8250000000000001E-002    -1.7197282486947074E-009
  -2.8200000000000003E-002    -1.7951458097797968E-009
  -2.8150000000000001E-002    -1.8725812012121423E-009
  -2.8100000000000000E-002    -1.9516066540603560E-009
  -2.8049999999999999E-002    -2.0316504034667560E-009
  -2.8000000000000001E-002    -2.1120467597057768E-009
  -2.7950000000000003E-002    -2.1921435777727538E-009
  -2.7900000000000001E-002    -2.2714703451498508E-009
  -2.7850000000000000E-002    -2.3499346912814190E-009
  -2.7799999999999998E-002    -2.4279802612880985E-009
  -2.7750000000000000E-002    -2.5066271280849151E-009
  -2.7700000000000002E-002    -2.5873505560269905E-009
  -2.7650000000000001E-002    -2.6717998924397079E-009
  -2.7600000000000000E-002    -2.7614264208608574E-009
  -2.7549999999999998E-002    -2.8571249810482868E-009
  -2.7500000000000000E-002    -2.9589994898771010E-009
  -2.7450000000000002E-002    -3.0663265260244543E-009
  -2.7400000000000001E-002    -3.1777216413786391E-009
  -2.7349999999999999E-002    -3.2914537761996598E-009
  -2.7299999999999998E-002    -3.4058098563605199E-009
  -2.7250000000000000E-002    -3.5194140934891038E-009
  -2.7200000000000002E-002    -3.6314409257443003E-009
  -2.7150000000000001E-002    -3.7417082765500709E-009
  -2.7099999999999999E-002    -3.8506762223278201E-009
  -2.7049999999999998E-002    -3.9593883727206958E-009
  -2.7000000000000000E-002    -4.0693799441271494E-009
  -2.6950000000000002E-002    -4.1825427565811424E-009
  -2.6900000000000000E-002    -4.3009280581429721E-009
  -2.6849999999999999E-002    -4.4264698573215355E-009
  -2.6800000000000001E-002    -4.5606607379511388E-009
  -2.6749999999999999E-002    -4.7042418849230216E-009
  -2.6700000000000002E-002    -4.8570085731114432E-009
  -2.6650000000000000E-002    -5.0178239341391873E-009
  -2.6599999999999999E-002    -5.1848636495321898E-009
  -2.6550000000000001E-002    -5.3560476054315131E-009
  -2.6500000000000003E-002    -5.5295319434378598E-009
  -2.6450000000000001E-002    -5.7040985268486111E-009
  -2.6400000000000000E-002    -5.8793268031820389E-009
  -2.6349999999999998E-002    -6.0555032099784967E-009
  -2.6300000000000000E-002    -6.2333325168140163E-009
  -2.6250000000000002E-002    -6.4135936561626750E-009
  -2.6200000000000001E-002    -6.5968972506880164E-009
  -2.6150000000000000E-002    -6.7836389838760169E-009
  -2.6099999999999998E-002    -6.9741554753477430E-009
  -2.6050000000000000E-002    -7.1689756353521261E-009
  -2.6000000000000002E-002    -7.3690120672154080E-009
  -2.5950000000000001E-002    -7.5755712813929676E-009
  -2.5899999999999999E-002    -7.7901383122025436E-009
  -2.5849999999999998E-002    -8.0140116764937375E-009
  -2.5800000000000000E-002    -8.2479543195290717E-009
  -2.5750000000000002E-002    -8.4920035448021736E-009
  -2.5700000000000001E-002    -8.7455509500955486E-009
  -2.5649999999999999E-002    -9.0076408554295995E-009
  -2.5599999999999998E-002    -9.2773619897457138E-009
  -2.5550000000000000E-002    -9.5541246025732107E-009
  -2.5500000000000002E-002    -9.8377110901992637E-009
  -2.5450000000000000E-002    -1.0128065497383432E-008
  -2.5399999999999999E-002    -1.0424965779520790E-008
  -2.5349999999999998E-002    -1.0727772448149153E-008
  -2.5300000000000000E-002    -1.1035456992658510E-008
  -2.5250000000000002E-002    -1.1346961592550997E-008
  -2.5200000000000000E-002    -1.1661803966944717E-008
  -2.5149999999999999E-002    -1.1980663572330741E-008
  -2.5100000000000001E-002    -1.2305681806878965E-008
  -2.5049999999999999E-002    -1.2640271052077878E-008
  -2.5000000000000001E-002    -1.2988419229031933E-008
  -2.4950000000000000E-002    -1.3353702144058843E-008
  -2.4899999999999999E-002    -1.3738339355029439E-008
  -2.4850000000000001E-002    -1.4142622184465381E-008
  -2.4800000000000003E-002    -1.4564949246675951E-008
  -2.4750000000000001E-002    -1.5002417086407149E-008
  -2.4700000000000000E-002    -1.5451750101647121E-008
  -2.4649999999999998E-002    -1.5910181616618502E-008
  -2.4600000000000000E-002    -1.6375992117900751E-008
  -2.4550000000000002E-002    -1.6848527906176969E-008
  -2.4500000000000001E-002    -1.7327810297729229E-008
  -2.4450000000000000E-002    -1.7813968966606808E-008
  -2.4399999999999998E-002    -1.8306867133333071E-008
  -2.4350000000000000E-002    -1.8806106893975993E-008
  -2.4299999999999999E-002    -1.9311464427573810E-008
  -2.4250000000000001E-002    -1.9823538366381399E-008
  -2.4199999999999999E-002    -2.0344270268424225E-008
  -2.4150000000000001E-002    -2.0877036988053987E-008
  -2.4100000000000000E-002    -2.1426178165029341E-008
  -2.4049999999999998E-002    -2.1996054755391015E-008
  -2.4000000000000000E-002    -2.2589940584794022E-008
  -2.3949999999999999E-002    -2.3209192789863664E-008
  -2.3900000000000001E-002    -2.3853008457308533E-008
  -2.3850000000000000E-002    -2.4518886476698754E-008
  -2.3800000000000002E-002    -2.5203645392934959E-008
  -2.3750000000000000E-002    -2.5904649092467480E-008
  -2.3699999999999999E-002    -2.6620764259632779E-008
  -2.3650000000000001E-002    -2.7352745846087601E-008
  -2.3599999999999999E-002    -2.8102892457582129E-008
  -2.3550000000000001E-002    -2.8874184820892879E-008
  -2.3500000000000000E-002    -2.9669209311578015E-008
  -2.3449999999999999E-002    -3.0489346158901753E-008
  -2.3400000000000001E-002    -3.1334501215951605E-008
  -2.3349999999999999E-002    -3.2203477218217813E-008
  -2.3300000000000001E-002    -3.3094828211233107E-008
  -2.3250000000000000E-002    -3.4007811677838617E-008
  -2.3199999999999998E-002    -3.4943024473932383E-008
  -2.3150000000000000E-002    -3.5902480988170282E-008
  -2.3099999999999999E-002    -3.6889041155063751E-008
  -2.3050000000000001E-002    -3.7905351746303495E-008
  -2.3000000000000000E-002    -3.8952720160523313E-008
  -2.2950000000000002E-002    -4.0030339931718117E-008
  -2.2900000000000000E-002    -4.1135145067983103E-008
  -2.2849999999999999E-002    -4.2262442434548575E-008
  -2.2800000000000001E-002    -4.3407091254721308E-008
  -2.2749999999999999E-002    -4.4564949064351822E-008
  -2.2700000000000001E-002    -4.5734008580211594E-008
  -2.2650000000000000E-002    -4.6914919948903844E-008
  -2.2599999999999999E-002    -4.8110720740623947E-008
  -2.2550000000000001E-002    -4.9325841189329367E-008
  -2.2499999999999999E-002    -5.0564835873956326E-008
  -2.2450000000000001E-002    -5.1831285929893056E-008
  -2.2400000000000000E-002    -5.3127280352782691E-008
  -2.2349999999999998E-002    -5.4453742848181719E-008
  -2.2300000000000000E-002    -5.5811423038676367E-008
  -2.2249999999999999E-002    -5.7202129255529144E-008
  -2.2200000000000001E-002    -5.8629691324085798E-008
  -2.2150000000000000E-002    -6.0100170173882361E-008
  -2.2100000000000002E-002    -6.1621065583494783E-008
  -2.2050000000000000E-002    -6.3199777855516004E-008
  -2.1999999999999999E-002    -6.4841813696148165E-008
  -2.1950000000000001E-002    -6.6549418420436268E-008
  -2.1899999999999999E-002    -6.8321213575472939E-008
  -2.1850000000000001E-002    -7.0153049591681338E-008
  -2.1800000000000000E-002    -7.2039853193928138E-008
  -2.1749999999999999E-002    -7.3977815873149666E-008
  -2.1700000000000001E-002    -7.5966028134644148E-008
  -2.1649999999999999E-002    -7.8006955561704672E-008
  -2.1600000000000001E-002    -8.0105436950361764E-008
  -2.1550000000000000E-002    -8.2266581102885539E-008
  -2.1499999999999998E-002    -8.4493308349919971E-008
  -2.1450000000000000E-002    -8.6784531561079348E-008
  -2.1399999999999999E-002    -8.9134793768153031E-008
  -2.1350000000000001E-002    -9.1535461876901536E-008
  -2.1299999999999999E-002    -9.3977149617785471E-008
  -2.1250000000000002E-002    -9.6452453135498217E-008
  -2.1200000000000000E-002    -9.8957833927215688E-008
  -2.1149999999999999E-002    -1.0149393858682743E-007
  -2.1100000000000001E-002    -1.0406404271634528E-007
  -2.1049999999999999E-002    -1.0667135086350754E-007
  -2.1000000000000001E-002    -1.0931614013998114E-007
  -2.0950000000000000E-002    -1.1199394123195816E-007
  -2.0899999999999998E-002    -1.1469577287925858E-007
  -2.0850000000000000E-002    -1.1741036587409326E-007
  -2.0799999999999999E-002    -1.2012777972358890E-007
  -2.0750000000000001E-002    -1.2284311878829612E-007
  -2.0700000000000000E-002    -1.2555881312437123E-007
  -2.0649999999999998E-002    -1.2828462558900355E-007
  -2.0600000000000000E-002    -1.3103525020596862E-007
  -2.0549999999999999E-002    -1.3382633312630787E-007
  -2.0500000000000001E-002    -1.3667045095644426E-007
  -2.0449999999999999E-002    -1.3957451017176936E-007
  -2.0400000000000001E-002    -1.4253959079724154E-007
  -2.0350000000000000E-002    -1.4556319172243093E-007
  -2.0299999999999999E-002    -1.4864306763229251E-007
  -2.0250000000000001E-002    -1.5178098067281098E-007
  -2.0199999999999999E-002    -1.5498471839237027E-007
  -2.0150000000000001E-002    -1.5826768162696681E-007
  -2.0100000000000000E-002    -1.6164588600986463E-007
  -2.0049999999999998E-002    -1.6513357081748836E-007
  -2.0000000000000000E-002    -1.6873930519523128E-007
  -1.9949999999999999E-002    -1.7246382810753857E-007
  -1.9900000000000001E-002    -1.7630095783260913E-007
  -1.9850000000000000E-002    -1.8024105941094604E-007
  -1.9799999999999998E-002    -1.8427572001655790E-007
  -1.9750000000000000E-002    -1.8840204063508281E-007
  -1.9699999999999999E-002    -1.9262463979430322E-007
  -1.9650000000000001E-002    -1.9695458775004226E-007
  -1.9599999999999999E-002    -2.0140548429026239E-007
  -1.9550000000000001E-002    -2.0598844230335089E-007
  -1.9500000000000000E-002    -2.1070762556973932E-007
  -1.9449999999999999E-002    -2.1555824503138865E-007
  -1.9400000000000001E-002    -2.2052797987726080E-007
  -1.9349999999999999E-002    -2.2560109869118605E-007
  -1.9300000000000001E-002    -2.3076394484178309E-007
  -1.9250000000000000E-002    -2.3600959764280560E-007
  -1.9199999999999998E-002    -2.4133998977049487E-007
  -1.9150000000000000E-002    -2.4676475618434779E-007
  -1.9099999999999999E-002    -2.5229718403352308E-007
  -1.9050000000000001E-002    -2.5794909674914379E-007
  -1.9000000000000000E-002    -2.6372629235993372E-007
  -1.8949999999999998E-002    -2.6962666765939503E-007
  -1.8900000000000000E-002    -2.7564163929127972E-007
  -1.8849999999999999E-002    -2.8176029331916652E-007
  -1.8800000000000001E-002    -2.8797475692954322E-007
  -1.8749999999999999E-002    -2.9428423431454576E-007
  -1.8700000000000001E-002    -3.0069705303503724E-007
  -1.8650000000000000E-002    -3.0722878818778554E-007
  -1.8599999999999998E-002    -3.1389797072733927E-007
  -1.8550000000000001E-002    -3.2072048838927003E-007
  -1.8499999999999999E-002    -3.2770529401204840E-007
  -1.8450000000000001E-002    -3.3485235917396494E-007
  -1.8400000000000000E-002    -3.4215420896543947E-007
  -1.8349999999999998E-002    -3.4959981576321297E-007
  -1.8300000000000000E-002    -3.5717980040317343E-007
  -1.8249999999999999E-002    -3.6489046806309489E-007
  -1.8200000000000001E-002    -3.7273557040862215E-007
  -1.8149999999999999E-002    -3.8072499819463701E-007
  -1.8100000000000002E-002    -3.8887094433448510E-007
  -1.8050000000000000E-002    -3.9718329958304821E-007
  -1.7999999999999999E-002    -4.0566587244939001E-007
  -1.7950000000000001E-002    -4.1431499653299397E-007
  -1.7899999999999999E-002    -4.2312098003094434E-007
  -1.7850000000000001E-002    -4.3207165845160489E-007
  -1.7800000000000000E-002    -4.4115716946180328E-007
  -1.7749999999999998E-002    -4.5037344875709096E-007
  -1.7700000000000000E-002    -4.5972387852089014E-007
  -1.7649999999999999E-002    -4.6921812213440717E-007
  -1.7600000000000001E-002    -4.7886862830637256E-007
  -1.7550000000000000E-002    -4.8868673729884904E-007
  -1.7499999999999998E-002    -4.9867901452671504E-007
  -1.7450000000000000E-002    -5.0884608526757802E-007
  -1.7399999999999999E-002    -5.1918379995186115E-007
  -1.7350000000000001E-002    -5.2968590580348973E-007
  -1.7299999999999999E-002    -5.4034808272263035E-007
  -1.7250000000000001E-002    -5.5117106967372820E-007
  -1.7200000000000000E-002    -5.6216151733678998E-007
  -1.7149999999999999E-002    -5.7333130598635762E-007
  -1.7100000000000001E-002    -5.8469481700740289E-007
  -1.7049999999999999E-002    -5.9626546544677694E-007
  -1.7000000000000001E-002    -6.0805268731201068E-007
  -1.6950000000000000E-002    -6.2006068901609979E-007
  -1.6899999999999998E-002    -6.3228878843801795E-007
  -1.6850000000000000E-002    -6.4473363181605237E-007
  -1.6799999999999999E-002    -6.5739152432797709E-007
  -1.6750000000000001E-002    -6.7026098804490175E-007
  -1.6700000000000000E-002    -6.8334350089571672E-007
  -1.6649999999999998E-002    -6.9664332613683655E-007
  -1.6600000000000000E-002    -7.1016620495356619E-007
  -1.6549999999999999E-002    -7.2391742378385970E-007
  -1.6500000000000001E-002    -7.3790022270259215E-007
  -1.6449999999999999E-002    -7.5211494277027668E-007
  -1.6400000000000001E-002    -7.6655942393699661E-007
  -1.6350000000000000E-002    -7.8123002822394483E-007
  -1.6299999999999999E-002    -7.9612294712205767E-007
  -1.6250000000000001E-002    -8.1123505424329778E-007
  -1.6199999999999999E-002    -8.2656430322458618E-007
  -1.6150000000000001E-002    -8.4210927298045135E-007
  -1.6100000000000000E-002    -8.5786939507670468E-007
  -1.6049999999999998E-002    -8.7384421476599528E-007
  -1.6000000000000000E-002    -8.9003378889174201E-007
  -1.5949999999999999E-002    -9.0643953853941639E-007
  -1.5900000000000001E-002    -9.2306459009705577E-007
  -1.5850000000000000E-002    -9.3991366156842560E-007
  -1.5799999999999998E-002    -9.5699260782566853E-007
  -1.5750000000000000E-002    -9.7430734058434609E-007
  -1.5699999999999999E-002    -9.9186206625745399E-007
  -1.5650000000000001E-002    -1.0096593996422598E-006
  -1.5599999999999999E-002    -1.0277002502334653E-006
  -1.5550000000000001E-002    -1.0459854138389346E-006
  -1.5500000000000000E-002    -1.0645165957612335E-006
  -1.5449999999999998E-002    -1.0832985708475462E-006
  -1.5400000000000000E-002    -1.1023390698028379E-006
  -1.5349999999999999E-002    -1.1216475286346395E-006
  -1.5300000000000001E-002    -1.1412334970373195E-006
  -1.5250000000000000E-002    -1.1611036825343035E-006
  -1.5199999999999998E-002    -1.1812600178018329E-006
  -1.5150000000000000E-002    -1.2016995469821268E-006
  -1.5099999999999999E-002    -1.2224157899254351E-006
  -1.5050000000000001E-002    -1.2434007885531173E-006
  -1.4999999999999999E-002    -1.2646488585232873E-006
  -1.4949999999999998E-002    -1.2861588629675680E-006
  -1.4900000000000000E-002    -1.3079348946121172E-006
  -1.4849999999999999E-002    -1.3299853662829264E-006
  -1.4800000000000001E-002    -1.3523200550480396E-006
  -1.4749999999999999E-002    -1.3749464642387466E-006
  -1.4700000000000001E-002    -1.3978660717839375E-006
  -1.4650000000000000E-002    -1.4210731933417264E-006
  -1.4599999999999998E-002    -1.4445563465415034E-006
  -1.4550000000000000E-002    -1.4683009794680402E-006
  -1.4499999999999999E-002    -1.4922945865691872E-006
  -1.4450000000000001E-002    -1.5165303466346813E-006
  -1.4400000000000000E-002    -1.5410089417855488E-006
  -1.4349999999999998E-002    -1.5657384437872679E-006
  -1.4300000000000000E-002    -1.5907307897577994E-006
  -1.4249999999999999E-002    -1.6159967799467267E-006
  -1.4200000000000001E-002    -1.6415427808169625E-006
  -1.4149999999999999E-002    -1.6673682239343179E-006
  -1.4099999999999998E-002    -1.6934660607148544E-006
  -1.4050000000000000E-002    -1.7198260593431769E-006
  -1.3999999999999999E-002    -1.7464386701249168E-006
  -1.3950000000000001E-002    -1.7732985497787013E-006
  -1.3899999999999999E-002    -1.8004071762334206E-006
  -1.3850000000000001E-002    -1.8277719391335268E-006
  -1.3800000000000000E-002    -1.8554039797891164E-006
  -1.3749999999999998E-002    -1.8833142121366109E-006
  -1.3700000000000000E-002    -1.9115091163257603E-006
  -1.3649999999999999E-002    -1.9399881239223760E-006
  -1.3600000000000001E-002    -1.9687433905346552E-006
  -1.3550000000000000E-002    -1.9977619558630977E-006
  -1.3499999999999998E-002    -2.0270297227398260E-006
  -1.3450000000000000E-002    -2.0565348677337170E-006
  -1.3399999999999999E-002    -2.0862710243818583E-006
  -1.3350000000000001E-002    -2.1162377379368991E-006
  -1.3299999999999999E-002    -2.1464397832460236E-006
  -1.3249999999999998E-002    -2.1768842088931706E-006
  -1.3200000000000000E-002    -2.2075764718465507E-006
  -1.3149999999999998E-002    -2.2385177089745412E-006
  -1.3100000000000001E-002    -2.2697040549246594E-006
  -1.3049999999999999E-002    -2.3011252778815106E-006
  -1.3000000000000001E-002    -2.3327686449192697E-006
  -1.2950000000000000E-002    -2.3646198314963840E-006
  -1.2899999999999998E-002    -2.3966679236764321E-006
  -1.2850000000000000E-002    -2.4289058728754753E-006
  -1.2799999999999999E-002    -2.4613318601041101E-006