  -4.0000000000000001E-002     0.0000000000000000     
  -3.9949999999999999E-002     0.0000000000000000     
  -3.9899999999999998E-002     0.0000000000000000     
  -3.9850000000000003E-002     0.0000000000000000     
  -3.9800000000000002E-002     0.0000000000000000     
  -3.9750000000000001E-002     0.0000000000000000     
  -3.9699999999999999E-002     0.0000000000000000     
  -3.9649999999999998E-002     0.0000000000000000     
  -3.9600000000000003E-002     0.0000000000000000     
  -3.9550000000000002E-002     0.0000000000000000     
  -3.9500000000000000E-002     0.0000000000000000     
  -3.9449999999999999E-002     0.0000000000000000     
  -3.9399999999999998E-002     0.0000000000000000     
  -3.9350000000000003E-002     0.0000000000000000     
  -3.9300000000000002E-002     0.0000000000000000     
  -3.9250000000000000E-002     0.0000000000000000     
  -3.9199999999999999E-002     0.0000000000000000     
  -3.9150000000000004E-002     0.0000000000000000     
  -3.9100000000000003E-002     0.0000000000000000     
  -3.9050000000000001E-002     0.0000000000000000     
  -3.9000000000000000E-002     0.0000000000000000     
  -3.8949999999999999E-002     0.0000000000000000     
  -3.8900000000000004E-002     0.0000000000000000     
  -3.8850000000000003E-002     0.0000000000000000     
  -3.8800000000000001E-002     0.0000000000000000     
  -3.8750000000000000E-002     0.0000000000000000     
  -3.8699999999999998E-002     0.0000000000000000     
  -3.8650000000000004E-002     0.0000000000000000     
  -3.8600000000000002E-002     0.0000000000000000     
  -3.8550000000000001E-002     0.0000000000000000     
  -3.8500000000000000E-002     0.0000000000000000     
  -3.8449999999999998E-002     0.0000000000000000     
  -3.8400000000000004E-002     0.0000000000000000     
  -3.8350000000000002E-002     0.0000000000000000     
  -3.8300000000000001E-002     0.0000000000000000     
  -3.8249999999999999E-002     0.0000000000000000     
  -3.8199999999999998E-002     0.0000000000000000     
  -3.8150000000000003E-002     0.0000000000000000     
  -3.8100000000000002E-002     0.0000000000000000     
  -3.8050000000000000E-002     0.0000000000000000     
  -3.7999999999999999E-002     0.0000000000000000     
  -3.7949999999999998E-002     0.0000000000000000     
  -3.7900000000000003E-002     0.0000000000000000     
  -3.7850000000000002E-002     0.0000000000000000     
  -3.7800000000000000E-002     0.0000000000000000     
  -3.7749999999999999E-002     0.0000000000000000     
  -3.7699999999999997E-002     0.0000000000000000     
  -3.7650000000000003E-002     0.0000000000000000     
  -3.7600000000000001E-002     0.0000000000000000     
  -3.7550000000000000E-002     0.0000000000000000     
  -3.7499999999999999E-002     0.0000000000000000     
  -3.7449999999999997E-002     0.0000000000000000     
  -3.7400000000000003E-002     0.0000000000000000     
  -3.7350000000000001E-002     0.0000000000000000     
  -3.7300000000000000E-002     0.0000000000000000     
  -3.7249999999999998E-002     0.0000000000000000     
  -3.7200000000000004E-002     0.0000000000000000     
  -3.7150000000000002E-002     0.0000000000000000     
  -3.7100000000000001E-002     0.0000000000000000     
  -3.7050000000000000E-002     0.0000000000000000     
  -3.6999999999999998E-002     0.0000000000000000     
  -3.6950000000000004E-002     0.0000000000000000     
  -3.6900000000000002E-002     0.0000000000000000     
  -3.6850000000000001E-002     0.0000000000000000     
  -3.6799999999999999E-002     0.0000000000000000     
  -3.6749999999999998E-002     0.0000000000000000     
  -3.6700000000000003E-002     0.0000000000000000     
  -3.6650000000000002E-002     0.0000000000000000     
  -3.6600000000000001E-002     0.0000000000000000     
  -3.6549999999999999E-002     0.0000000000000000     
  -3.6499999999999998E-002     0.0000000000000000     
  -3.6450000000000003E-002     0.0000000000000000     
  -3.6400000000000002E-002     0.0000000000000000     
  -3.6350000000000000E-002     0.0000000000000000     
  -3.6299999999999999E-002     0.0000000000000000     
  -3.6249999999999998E-002     0.0000000000000000     
  -3.6200000000000003E-002     0.0000000000000000     
  -3.6150000000000002E-002     0.0000000000000000     
  -3.6100000000000000E-002     0.0000000000000000     
  -3.6049999999999999E-002     0.0000000000000000     
  -3.6000000000000004E-002     0.0000000000000000     
  -3.5950000000000003E-002     0.0000000000000000     
  -3.5900000000000001E-002     0.0000000000000000     
  -3.5850000000000000E-002     0.0000000000000000     
  -3.5799999999999998E-002     0.0000000000000000     
  -3.5750000000000004E-002     0.0000000000000000     
  -3.5700000000000003E-002     0.0000000000000000     
  -3.5650000000000001E-002     0.0000000000000000     
  -3.5600000000000000E-002     0.0000000000000000     
  -3.5549999999999998E-002     0.0000000000000000     
  -3.5500000000000004E-002     0.0000000000000000     
  -3.5450000000000002E-002     0.0000000000000000     
  -3.5400000000000001E-002     0.0000000000000000     
  -3.5349999999999999E-002     0.0000000000000000     
  -3.5299999999999998E-002     0.0000000000000000     
  -3.5250000000000004E-002     0.0000000000000000     
  -3.5200000000000002E-002     0.0000000000000000     
  -3.5150000000000001E-002     0.0000000000000000     
  -3.5099999999999999E-002     0.0000000000000000     
  -3.5049999999999998E-002     0.0000000000000000     
  -3.5000000000000003E-002     0.0000000000000000     
  -3.4950000000000002E-002     0.0000000000000000     
  -3.4900000000000000E-002     0.0000000000000000     
  -3.4849999999999999E-002     0.0000000000000000     
  -3.4799999999999998E-002     0.0000000000000000     
  -3.4750000000000003E-002     0.0000000000000000     
  -3.4700000000000002E-002     0.0000000000000000     
  -3.4650000000000000E-002     0.0000000000000000     
  -3.4599999999999999E-002     0.0000000000000000     
  -3.4549999999999997E-002     0.0000000000000000     
  -3.4500000000000003E-002     0.0000000000000000     
  -3.4450000000000001E-002     0.0000000000000000     
  -3.4400000000000000E-002     0.0000000000000000     
  -3.4349999999999999E-002     0.0000000000000000     
  -3.4299999999999997E-002     0.0000000000000000     
  -3.4250000000000003E-002     0.0000000000000000     
  -3.4200000000000001E-002     0.0000000000000000     
  -3.4150000000000000E-002     0.0000000000000000     
  -3.4099999999999998E-002     0.0000000000000000     
  -3.4049999999999997E-002     0.0000000000000000     
  -3.4000000000000002E-002     0.0000000000000000     
  -3.3950000000000001E-002     0.0000000000000000     
  -3.3900000000000000E-002     0.0000000000000000     
  -3.3849999999999998E-002     0.0000000000000000     
  -3.3799999999999997E-002     0.0000000000000000     
  -3.3750000000000002E-002     0.0000000000000000     
  -3.3700000000000001E-002     0.0000000000000000     
  -3.3649999999999999E-002     0.0000000000000000     
  -3.3599999999999998E-002     0.0000000000000000     
  -3.3550000000000003E-002     0.0000000000000000     
  -3.3500000000000002E-002     0.0000000000000000     
  -3.3450000000000001E-002     0.0000000000000000     
  -3.3399999999999999E-002     0.0000000000000000     
  -3.3349999999999998E-002     0.0000000000000000     
  -3.3300000000000003E-002     0.0000000000000000     
  -3.3250000000000002E-002     0.0000000000000000     
  -3.3200000000000000E-002    -2.9129101560109621E-040
  -3.3149999999999999E-002    -8.1001954209775586E-040
  -3.3099999999999997E-002    -7.6257237458467584E-040
  -3.3050000000000003E-002     7.9676388741469031E-040
  -3.3000000000000002E-002     4.6659609384051822E-039
  -3.2950000000000000E-002     8.2843043481364528E-039
  -3.2899999999999999E-002     6.2176798624908000E-039
  -3.2850000000000004E-002    -4.1209416153261931E-039
  -3.2800000000000003E-002    -2.1955217840466682E-038
  -3.2750000000000001E-002    -1.9328004554082740E-038
  -3.2700000000000000E-002     4.4445617924812698E-039
  -3.2649999999999998E-002     1.2284904356981689E-038
  -3.2600000000000004E-002     1.1826151595157433E-038
  -3.2550000000000003E-002    -3.0982905171888842E-038
  -3.2500000000000001E-002    -8.5891091943831143E-038
  -3.2450000000000000E-002    -9.3968251629316957E-038
  -3.2399999999999998E-002    -1.5542716287789016E-038
  -3.2350000000000004E-002     1.4942954138030715E-037
  -3.2300000000000002E-002     3.4341028687292682E-037
  -3.2250000000000001E-002     4.6388819696852854E-037
  -3.2199999999999999E-002     3.9152634415191145E-037
  -3.2149999999999998E-002     3.4099441031777725E-038
  -3.2100000000000004E-002    -6.1437122087688733E-037
  -3.2050000000000002E-002    -1.4148670736782340E-036
  -3.2000000000000001E-002    -2.0484908485957354E-036
  -3.1949999999999999E-002    -2.0591642722112922E-036
  -3.1899999999999998E-002    -1.0101299286191915E-036
  -3.1850000000000003E-002     1.2590060415376662E-036
  -3.1800000000000002E-002     4.3873506723480559E-036
  -3.1750000000000000E-002     7.3873107058881187E-036
  -3.1699999999999999E-002     8.8209881623972128E-036
  -3.1649999999999998E-002     7.2593600932574898E-036
  -3.1600000000000003E-002     1.8658074175938441E-036
  -3.1550000000000002E-002    -7.1461923272964497E-036
  -3.1500000000000000E-002    -1.8373537253529295E-035
  -3.1449999999999999E-002    -2.9365254090891211E-035
  -3.1399999999999997E-002    -3.6759224175035779E-035
  -3.1350000000000003E-002    -3.6131954811962404E-035
  -3.1300000000000001E-002    -2.1720026250171354E-035
  -3.1250000000000000E-002     1.3018681543448054E-035
  -3.1199999999999999E-002     7.2419096948024704E-035
  -3.1150000000000001E-002     1.5208251622256305E-034
  -3.1100000000000003E-002     2.2997076546117204E-034
  -3.1050000000000001E-002     2.6010471733361157E-034
  -3.1000000000000000E-002     1.7734005447116335E-034
  -3.0949999999999998E-002    -7.8418541945637982E-035
  -3.0900000000000000E-002    -5.1709733595994801E-034
  -3.0850000000000002E-002    -1.0451253328790264E-033
  -3.0800000000000001E-002    -1.4334588567471760E-033
  -3.0750000000000000E-002    -1.3460643535413251E-033
  -3.0699999999999998E-002    -4.5808796320784508E-034
  -3.0650000000000000E-002     1.3434436100580533E-033
  -3.0600000000000002E-002     3.7404671272629416E-033
  -3.0550000000000001E-002     5.8644838877520280E-033
  -3.0499999999999999E-002     6.4108829008053955E-033
  -3.0449999999999998E-002     4.0662259020391107E-033
  -3.0400000000000000E-002    -1.8039394538440296E-033
  -3.0350000000000002E-002    -1.0431291115264085E-032
  -3.0300000000000001E-002    -1.9244237210079585E-032
  -3.0249999999999999E-002    -2.4155378472706290E-032
  -3.0200000000000001E-002    -2.0719882935883914E-032
  -3.0150000000000000E-002    -6.0017174797819800E-033
  -3.0100000000000002E-002     1.9407600275063219E-032
  -3.0050000000000000E-002     5.0034084016480893E-032
  -2.9999999999999999E-002     7.5622141495280181E-032
  -2.9950000000000001E-002     8.3131973497460825E-032
  -2.9899999999999999E-002     6.0505005924338241E-032
  -2.9850000000000002E-002     1.4922166096065790E-033
  -2.9800000000000000E-002    -8.9561854231967304E-032
  -2.9749999999999999E-002    -1.9428060665210888E-031
  -2.9700000000000001E-002    -2.7958078551681882E-031
  -2.9650000000000003E-002    -3.0134918100689426E-031
  -2.9600000000000001E-002    -2.1412927673481032E-031
  -2.9550000000000000E-002     1.2156028160398897E-032
  -2.9499999999999998E-002     3.6965109027306674E-031
  -2.9450000000000000E-002     7.8972041213422615E-031
  -2.9400000000000003E-002     1.1309548091300744E-030
  -2.9350000000000001E-002     1.1932557011216154E-030
  -2.9300000000000000E-002     7.7139730195957217E-031
  -2.9249999999999998E-002    -2.5021848130281635E-031
  -2.9200000000000000E-002    -1.7818743329402450E-030
  -2.9150000000000002E-002    -3.4384416589270127E-030
  -2.9100000000000001E-002    -4.5390790596166992E-030
  -2.9049999999999999E-002    -4.2540459611127542E-030
  -2.8999999999999998E-002    -1.9131972306240111E-030
  -2.8950000000000000E-002     2.5849027122333762E-030
  -2.8900000000000002E-002     8.4098110013004266E-030
  -2.8850000000000001E-002     1.3683459939152646E-029
  -2.8799999999999999E-002     1.5794031981344233E-029
  -2.8749999999999998E-002     1.2203114183283547E-029
  -2.8700000000000000E-002     1.6071455532561532E-030
  -2.8650000000000002E-002    -1.4910083400310185E-029
  -2.8600000000000000E-002    -3.3245354139846231E-029
  -2.8549999999999999E-002    -4.6653238675162251E-029
  -2.8500000000000001E-002    -4.7379642251338637E-029
  -2.8450000000000000E-002    -2.9372085432638039E-029
  -2.8400000000000002E-002     8.6035191109570550E-030
  -2.8350000000000000E-002     6.0490540221424457E-029
  -2.8299999999999999E-002     1.1226921706061680E-028
  -2.8250000000000001E-002     1.4397267827890682E-028
  -2.8200000000000003E-002     1.3465080938331320E-028
  -2.8150000000000001E-002     6.9657619990014562E-029
  -2.8100000000000000E-002    -5.1324046107411127E-029
  -2.8049999999999999E-002    -2.0794084521798193E-028
  -2.8000000000000001E-002    -3.5739651936228993E-028
  -2.7950000000000003E-002    -4.3994698930743516E-028
  -2.7900000000000001E-002    -3.9320374188397635E-028
  -2.7850000000000000E-002    -1.7441470998723419E-028
  -2.7799999999999998E-002     2.1360314181070942E-028
  -2.7750000000000000E-002     7.0112570767359549E-028
  -2.7700000000000002E-002     1.1458604920394924E-027
  -2.7650000000000001E-002     1.3537248235440791E-027
  -2.7600000000000000E-002     1.1314287729736400E-027
  -2.7549999999999998E-002     3.6522527334876888E-028
  -2.7500000000000000E-002    -8.9439972621258963E-028
  -2.7450000000000002E-002    -2.3754567454797861E-027
  -2.7400000000000001E-002    -3.5925470797066102E-027
  -2.7349999999999999E-002    -3.9477714306436115E-027
  -2.7299999999999998E-002    -2.9239644118017684E-027
  -2.7250000000000000E-002    -3.2932830703991808E-028
  -2.7200000000000002E-002     3.4872978357834949E-027
  -2.7150000000000001E-002     7.5522621678318889E-027
  -2.7099999999999999E-002     1.0401037080135364E-026
  -2.7049999999999998E-002     1.0459929543249881E-026
  -2.7000000000000000E-002     6.6147346299022891E-027
  -2.6950000000000002E-002    -1.1909966440352090E-027
  -2.6900000000000000E-002    -1.1550028790988875E-026
  -2.6849999999999999E-002    -2.1596785277318969E-026
  -2.6800000000000001E-002    -2.7554799990200048E-026
  -2.6749999999999999E-002    -2.5795499945051282E-026
  -2.6700000000000002E-002    -1.4184521886311700E-026
  -2.6650000000000000E-002     6.6706133861007506E-027
  -2.6599999999999999E-002     3.2727689755826147E-026
  -2.6550000000000001E-002     5.6765063064467828E-026
  -2.6500000000000003E-002     6.9777981961478479E-026
  -2.6450000000000001E-002     6.3404840023527068E-026
  -2.6400000000000000E-002     3.2928052443152223E-026
  -2.6349999999999998E-002    -1.9910795979736220E-026
  -2.6300000000000000E-002    -8.5224099206084932E-026
  -2.6250000000000002E-002    -1.4534225231105109E-025
  -2.6200000000000001E-002    -1.7786134896103012E-025
  -2.6150000000000000E-002    -1.6141173228339517E-025
  -2.6099999999999998E-002    -8.3316292650526233E-026
  -2.6050000000000000E-002     5.2690161849936938E-026
  -2.6000000000000002E-002     2.2134116444181821E-025
  -2.5950000000000001E-002     3.7624262794397438E-025
  -2.5899999999999999E-002     4.5800461436460462E-025
  -2.5849999999999998E-002     4.1037967600388565E-025
  -2.5800000000000000E-002     2.0174696206379857E-025
  -2.5750000000000002E-002    -1.5393474991429270E-025
  -2.5700000000000001E-002    -5.8484914611346971E-025
  -2.5649999999999999E-002    -9.6580605530837309E-025
  -2.5599999999999998E-002    -1.1442252358207653E-024
  -2.5550000000000000E-002    -9.8578714479729741E-025
  -2.5500000000000002E-002    -4.2959839630898366E-025
  -2.5450000000000000E-002     4.6456763778640617E-025
  -2.5399999999999999E-002     1.4973196724952615E-024
  -2.5349999999999998E-002     2.3552805202039990E-024
  -2.5300000000000000E-002     2.6859439654125433E-024
  -2.5250000000000002E-002     2.2094766428624947E-024
  -2.5200000000000000E-002     8.3805741125172519E-025
  -2.5149999999999999E-002    -1.2374977039455220E-024
  -2.5100000000000001E-002    -3.5330064062972617E-024
  -2.5049999999999999E-002    -5.3519138042987150E-024
  -2.5000000000000001E-002    -5.9586396533272622E-024
  -2.4950000000000000E-002    -4.8090577405354051E-024
  -2.4899999999999999E-002    -1.7764684536595378E-024
  -2.4850000000000001E-002     2.6999632310964566E-024
  -2.4800000000000003E-002     7.6078001302255852E-024
  -2.4750000000000001E-002     1.1528119962885620E-023
  -2.4700000000000000E-002     1.2964996205750413E-023
  -2.4649999999999998E-002     1.0777699514561557E-023
  -2.4600000000000000E-002     4.6155623379880347E-024
  -2.4550000000000002E-002    -4.7660668213770406E-024
  -2.4500000000000001E-002    -1.5426121776325886E-023
  -2.4450000000000000E-002    -2.4478605549084029E-023
  -2.4399999999999998E-002    -2.8676423656490500E-023
  -2.4350000000000000E-002    -2.5275398798906938E-023
  -2.4299999999999999E-002    -1.3017399827669997E-023
  -2.4250000000000001E-002     7.0187291280540743E-024
  -2.4199999999999999E-002     3.1002438610505770E-023
  -2.4150000000000001E-002     5.2656191235225160E-023
  -2.4100000000000000E-002     6.4440327531081337E-023
  -2.4049999999999998E-002     5.9549087104203135E-023
  -2.4000000000000000E-002     3.4347327376610874E-023
  -2.3949999999999999E-002    -9.4147998554483505E-024
  -2.3900000000000001E-002    -6.3439158197234843E-023
  -2.3850000000000000E-002    -1.1352671002978130E-022
  -2.3800000000000002E-002    -1.4241548953950217E-022
  -2.3750000000000000E-002    -1.3454205775261061E-022
  -2.3699999999999999E-002    -8.1690408211561457E-023
  -2.3650000000000001E-002     1.2144287728497533E-023
  -2.3599999999999999E-002     1.2857372914759419E-022
  -2.3550000000000001E-002     2.3681956538717653E-022
  -2.3500000000000000E-002     3.0036539004481954E-022
  -2.3449999999999999E-002     2.8724500558279307E-022
  -2.3400000000000001E-002     1.8146537833541294E-022
  -2.3349999999999999E-002    -7.9147922505001137E-024
  -2.3300000000000001E-002    -2.4354084258660507E-022
  -2.3250000000000000E-002    -4.6469093543481320E-022
  -2.3199999999999998E-002    -6.0057232223825154E-022
  -2.3150000000000000E-002    -5.8958552973567109E-022
  -2.3099999999999999E-002    -3.9987634176576623E-022
  -2.3050000000000001E-002    -4.5287904584448137E-023
  -2.3000000000000000E-002     4.0880938106322086E-022
  -2.2950000000000002E-002     8.5333122070579643E-022
  -2.2900000000000000E-002     1.1572249171959516E-021
  -2.2849999999999999E-002     1.1997262479335220E-021
  -2.2800000000000001E-002     9.0640828190779453E-022
  -2.2749999999999999E-002     2.8022884675414351E-022
  -2.2700000000000001E-002    -5.8153611274545423E-022
  -2.2650000000000000E-002    -1.4918828153320390E-021
  -2.2599999999999999E-002    -2.2039213240586655E-021
  -2.2550000000000001E-002    -2.4643467737908493E-021
  -2.2499999999999999E-002    -2.0825297191833662E-021
  -2.2450000000000001E-002    -1.0008615773740534E-021
  -2.2400000000000000E-002     6.5273618024149951E-022
  -2.2349999999999998E-002     2.5503648507009907E-021
  -2.2300000000000000E-002     4.2036556020402234E-021
  -2.2249999999999999E-002     5.0623058320027587E-021
  -2.2200000000000001E-002     4.6602976476837523E-021
  -2.2150000000000000E-002     2.7796620669614449E-021
  -2.2100000000000002E-002    -4.1385780443698106E-022
  -2.2050000000000000E-002    -4.3145212300555119E-021
  -2.1999999999999999E-002    -7.9411107983238497E-021
  -2.1950000000000001E-002    -1.0136675614664004E-020
  -2.1899999999999999E-002    -9.8776922520548798E-021
  -2.1850000000000001E-002    -6.6235914886640767E-021
  -2.1800000000000000E-002    -6.0558262590451955E-022
  -2.1749999999999999E-002     7.0527889029931498E-021
  -2.1700000000000001E-002     1.4463115095719584E-020
  -2.1649999999999999E-002     1.9366398400333732E-020
  -2.1600000000000001E-002     1.9731715575931763E-020
  -2.1550000000000000E-002     1.4418352678197842E-020
  -2.1499999999999998E-002     3.7111358780874447E-021
  -2.1450000000000000E-002    -1.0459952435876484E-020
  -2.1399999999999999E-002    -2.4744096558549655E-020
  -2.1350000000000001E-002    -3.5055619334178299E-020
  -2.1299999999999999E-002    -3.7605394110468774E-020
  -2.1250000000000002E-002    -3.0041513285653894E-020
  -2.1200000000000000E-002    -1.2393862103657386E-020
  -2.1149999999999999E-002     1.2475062664139882E-020
  -2.1100000000000001E-002     3.9120313489351826E-020
  -2.1049999999999999E-002     6.0515330492056918E-020
  -2.1000000000000001E-002     6.9662942002970934E-020
  -2.0950000000000000E-002     6.1497019229608661E-020
  -2.0899999999999998E-002     3.4630602528645758E-020
  -2.0850000000000000E-002    -7.5291192765005365E-021
  -2.0799999999999999E-002    -5.6707018785088264E-020
  -2.0750000000000001E-002    -1.0095518076211875E-019
  -2.0700000000000000E-002    -1.2707568349444925E-019
  -2.0649999999999998E-002    -1.2391096070315525E-019
  -2.0600000000000000E-002    -8.5834582922015669E-020
  -2.0549999999999999E-002    -1.5556988399721221E-020
  -2.0500000000000001E-002     7.4685200229564290E-020
  -2.0449999999999999E-002     1.6429236831220069E-019
  -2.0400000000000001E-002     2.2809342966524244E-019
  -2.0350000000000000E-002     2.4236394125778085E-019
  -2.0299999999999999E-002     1.9190930746152238E-019
  -2.0250000000000001E-002     7.6420529370593084E-020
  -2.0199999999999999E-002    -8.5952728394382494E-020
  -2.0150000000000001E-002    -2.5956493038688342E-019
  -2.0100000000000000E-002    -3.9759573225463505E-019
  -2.0049999999999998E-002    -4.5311843549001214E-019
  -2.0000000000000000E-002    -3.9270318212195370E-019
  -1.9949999999999999E-002    -2.0904876723438820E-019
  -1.9900000000000001E-002     7.1355974609539910E-020
  -1.9850000000000000E-002     3.8889052564247196E-019
  -1.9799999999999998E-002     6.6130020078663545E-019
  -1.9750000000000000E-002     8.0287996241890560E-019
  -1.9699999999999999E-002     7.4836075175718006E-019
  -1.9650000000000001E-002     4.7537774374652441E-019
  -1.9599999999999999E-002     1.8734108749290810E-020
  -1.9550000000000001E-002    -5.2907298799429433E-019
  -1.9500000000000000E-002    -1.0335215248129259E-018
  -1.9449999999999999E-002    -1.3481373707113806E-018
  -1.9400000000000001E-002    -1.3528426628225628E-018
  -1.9349999999999999E-002    -9.9125841671831018E-019
  -1.9300000000000001E-002    -2.9661533335988490E-019
  -1.9250000000000000E-002     6.0240694146983769E-019
  -1.9199999999999998E-002     1.5004245284511315E-018
  -1.9150000000000000E-002     2.1573438260241354E-018
  -1.9099999999999999E-002     2.3560861599789116E-018
  -1.9050000000000001E-002     1.9634933530042688E-018
  -1.9000000000000000E-002     9.7929580645801850E-019
  -1.8949999999999998E-002    -4.4119325511261122E-019
  -1.8900000000000000E-002    -2.0006706950500610E-018
  -1.8849999999999999E-002    -3.3123767605494465E-018
  -1.8800000000000001E-002    -3.9850203602386043E-018
  -1.8749999999999999E-002    -3.7243014007448903E-018
  -1.8700000000000001E-002    -2.4280830981176836E-018
  -1.8650000000000000E-002    -2.4934531782025843E-019
  -1.8599999999999998E-002     2.3959297682984316E-018
  -1.8550000000000001E-002     4.8891651473512564E-018
  -1.8499999999999999E-002     6.5357651736566184E-018
  -1.8450000000000001E-002     6.7373791108898927E-018
  -1.8400000000000000E-002     5.1723500274560419E-018
  -1.8349999999999998E-002     1.9363724242162301E-018
  -1.8300000000000000E-002    -2.4038474345456833E-018
  -1.8249999999999999E-002    -6.8765946831418211E-018
  -1.8200000000000001E-002    -1.0296212563251601E-017
  -1.8149999999999999E-002    -1.1549906005093401E-017
  -1.8100000000000002E-002    -9.9175757505555069E-018
  -1.8050000000000000E-002    -5.3403087803204520E-018
  -1.7999999999999999E-002     1.4478211902699561E-018
  -1.7950000000000001E-002     8.9861008318664266E-018
  -1.7899999999999999E-002     1.5366852372707355E-017
  -1.7850000000000001E-002     1.8685072144025421E-017
  -1.7800000000000000E-002     1.7559194469044446E-017
  -1.7749999999999998E-002     1.1588701528019711E-017
  -1.7700000000000000E-002     1.6122676113805230E-018
  -1.7649999999999999E-002    -1.0333528675699465E-017
  -1.7600000000000001E-002    -2.1385340044515971E-017
  -1.7550000000000000E-002    -2.8497926655796926E-017
  -1.7499999999999998E-002    -2.9225233728258788E-017
  -1.7450000000000000E-002    -2.2446953665791625E-017
  -1.7399999999999999E-002    -8.8422681004294024E-018
  -1.7350000000000001E-002     9.0437066059001066E-018
  -1.7299999999999999E-002     2.7206812224829413E-017
  -1.7250000000000001E-002     4.1016393704071071E-017
  -1.7200000000000000E-002     4.6313356971085410E-017
  -1.7149999999999999E-002     4.0529883692143954E-017
  -1.7100000000000001E-002     2.3554724948769982E-017
  -1.7049999999999999E-002    -1.9018582945116875E-018
  -1.7000000000000001E-002    -3.0597488585777787E-017
  -1.6950000000000000E-002    -5.5717119946628294E-017
  -1.6899999999999998E-002    -7.0359340160470153E-017
  -1.6850000000000000E-002    -6.9259439697614126E-017
  -1.6799999999999999E-002    -5.0359442131937059E-017
  -1.6750000000000001E-002    -1.5812242149425722E-017
  -1.6700000000000000E-002     2.7920281741764935E-017
  -1.6649999999999998E-002     7.1046627587249317E-017
  -1.6600000000000000E-002     1.0243175643085521E-016
  -1.6549999999999999E-002     1.1224914886701051E-016
  -1.6500000000000001E-002     9.4724900111460567E-017
  -1.6449999999999999E-002     5.0272524698994224E-017
  -1.6400000000000001E-002    -1.3647020311660175E-017
  -1.6350000000000000E-002    -8.3382486004099268E-017
  -1.6299999999999999E-002    -1.4172286425890644E-016
  -1.6250000000000001E-002    -1.7188500329884126E-016
  -1.6199999999999999E-002    -1.6200102687019178E-016
  -1.6150000000000001E-002    -1.0897091942338282E-016
  -1.6100000000000000E-002    -2.0541046480983052E-017
  -1.6049999999999998E-002     8.5215863086603514E-017
  -1.6000000000000000E-002     1.8324920253686842E-016
  -1.5949999999999999E-002     2.4719192220673556E-016
  -1.5900000000000001E-002     2.5611511078942613E-016
  -1.5850000000000000E-002     2.0070017106146250E-016
  -1.5799999999999998E-002     8.7106464260191866E-017
  -1.5750000000000000E-002    -6.2766473959237221E-017
  -1.5699999999999999E-002    -2.1509817738475700E-016
  -1.5650000000000001E-002    -3.3148720497376949E-016
  -1.5599999999999999E-002    -3.7826583753870614E-016
  -1.5550000000000001E-002    -3.3558138395571212E-016
  -1.5500000000000000E-002    -2.0389660662931814E-016
  -1.5449999999999998E-002    -6.0203107544719099E-018
  -1.5400000000000000E-002     2.1625056646426084E-016
  -1.5349999999999999E-002     4.1052752415357270E-016
  -1.5300000000000001E-002     5.2565103535418295E-016
  -1.5250000000000000E-002     5.2436347926896070E-016
  -1.5199999999999998E-002     3.9385721232896821E-016
  -1.5150000000000000E-002     1.5148040159052441E-016
  -1.5099999999999999E-002    -1.5621402764415032E-016
  -1.5050000000000001E-002    -4.6151089181982807E-016
  -1.4999999999999999E-002    -6.8950772586777446E-016
  -1.4949999999999998E-002    -7.7538183088350238E-016
  -1.4900000000000000E-002    -6.8125778225649279E-016
  -1.4849999999999999E-002    -4.0863823856138251E-016
  -1.4800000000000001E-002    -2.8817807693773567E-018
  -1.4749999999999999E-002     4.5238838635534206E-016
  -1.4700000000000001E-002     8.5095425251526798E-016
  -1.4650000000000000E-002     1.0873185024495704E-015
  -1.4599999999999998E-002     1.0829865174492807E-015
  -1.4550000000000000E-002     8.0956906311110720E-016
  -1.4499999999999999E-002     3.0241577201154548E-016
  -1.4450000000000001E-002    -3.4005897526635320E-016
  -1.4400000000000000E-002    -9.7322362001330158E-016
  -1.4349999999999998E-002    -1.4371596489559638E-015
  -1.4300000000000000E-002    -1.5955514968959572E-015
  -1.4249999999999999E-002    -1.3734193413615493E-015
  -1.4200000000000001E-002    -7.8362610736676848E-016
  -1.4149999999999999E-002     6.6235059689698377E-017
  -1.4099999999999998E-002     9.9075980025929778E-016
  -1.4050000000000000E-002     1.7657452708611261E-015
  -1.3999999999999999E-002     2.1814533415762500E-015
  -1.3950000000000001E-002     2.0976114516728714E-015
  -1.3899999999999999E-002     1.4859159861570470E-015
  -1.3850000000000001E-002     4.4777247623320725E-016
  -1.3800000000000000E-002    -7.9950972922104669E-016
  -1.3749999999999998E-002    -1.9671268695596490E-015
  -1.3700000000000000E-002    -2.7608186885604219E-015
  -1.3649999999999999E-002    -2.9533734720697370E-015
  -1.3600000000000001E-002    -2.4458499436296020E-015
  -1.3550000000000000E-002    -1.3015901811185494E-015
  -1.3499999999999998E-002     2.5696619605383416E-016
  -1.3450000000000000E-002     1.8900559372956410E-015
  -1.3399999999999999E-002     3.2131287325973163E-015
  -1.3350000000000001E-002     3.8847322807369585E-015
  -1.3299999999999999E-002     3.6901362644420824E-015
  -1.3249999999999998E-002     2.6012315325504697E-015
  -1.3200000000000000E-002     7.9766655306051292E-016
  -1.3149999999999998E-002    -1.3580339749006826E-015
  -1.3100000000000001E-002    -3.3890384437839218E-015
  -1.3049999999999999E-002    -4.8045741414210374E-015
  -1.3000000000000001E-002    -5.2124578060975839E-015
  -1.2950000000000000E-002    -4.4197936975971116E-015
  -1.2899999999999998E-002    -2.4979752534358226E-015
  -1.2850000000000000E-002     2.0672341936265927E-016
  -1.2799999999999999E-002     3.1257900781430765E-015