  -4.0000000000000001E-002     0.0000000000000000     
  -3.9949999999999999E-002     0.0000000000000000     
  -3.9899999999999998E-002     0.0000000000000000     
  -3.9850000000000003E-002     0.0000000000000000     
  -3.9800000000000002E-002     0.0000000000000000     
  -3.9750000000000001E-002     0.0000000000000000     
  -3.9699999999999999E-002     0.0000000000000000     
  -3.9649999999999998E-002     0.0000000000000000     
  -3.9600000000000003E-002     0.0000000000000000     
  -3.9550000000000002E-002     0.0000000000000000     
  -3.9500000000000000E-002     0.0000000000000000     
  -3.9449999999999999E-002     0.0000000000000000     
  -3.9399999999999998E-002     0.0000000000000000     
  -3.9350000000000003E-002     0.0000000000000000     
  -3.9300000000000002E-002     0.0000000000000000     
  -3.9250000000000000E-002     0.0000000000000000     
  -3.9199999999999999E-002     0.0000000000000000     
  -3.9150000000000004E-002     0.0000000000000000     
  -3.9100000000000003E-002     0.0000000000000000     
  -3.9050000000000001E-002     0.0000000000000000     
  -3.9000000000000000E-002     0.0000000000000000     
  -3.8949999999999999E-002     0.0000000000000000     
  -3.8900000000000004E-002    -5.9812462196039654E-039
  -3.8850000000000003E-002    -3.5673368593116942E-038
  -3.8800000000000001E-002    -1.5464530631546680E-037
  -3.8750000000000000E-002    -4.5897072023985589E-037
  -3.8699999999999998E-002    -9.4564373720357255E-037
  -3.8650000000000004E-002    -1.3101522327528746E-037
  -3.8600000000000002E-002     8.4752040645573843E-036
  -3.8550000000000001E-002     4.1908940015000352E-035
  -3.8500000000000000E-002     1.2534653866177424E-034
  -3.8449999999999998E-002     2.4927432269380069E-034
  -3.8400000000000004E-002     2.2981805373556685E-034
  -3.8350000000000002E-002    -5.4765628222935387E-034
  -3.8300000000000001E-002    -3.2977270593636868E-033
  -3.8249999999999999E-002    -9.2041947854345353E-033
  -3.8199999999999998E-002    -1.6723116552822861E-032
  -3.8150000000000003E-002    -1.5974996825907284E-032
  -3.8100000000000002E-002     1.7399855224889359E-032
  -3.8050000000000000E-002     1.1935870183554828E-031
  -3.7999999999999999E-002     3.0786355822859665E-031
  -3.7949999999999998E-002     5.1108927458955945E-031
  -3.7900000000000003E-002     4.6853049597462426E-031
  -3.7850000000000002E-002    -3.1049843613999697E-031
  -3.7800000000000000E-002    -2.3643509783174581E-030
  -3.7749999999999999E-002    -5.6988897363536780E-030
  -3.7699999999999997E-002    -8.8348612572193856E-030
  -3.7650000000000003E-002    -7.9838443271096789E-030
  -3.7600000000000001E-002     2.5510786034165126E-030
  -3.7550000000000000E-002     2.7440677265603974E-029
  -3.7499999999999999E-002     6.4421902445105626E-029
  -3.7449999999999997E-002     9.7306314029102462E-029
  -3.7400000000000003E-002     9.2900233021389525E-029
  -3.7350000000000001E-002     8.6406665567358886E-030
  -3.7300000000000000E-002    -1.8447198867969367E-028
  -3.7249999999999998E-002    -4.6676125553224680E-028
  -3.7200000000000004E-002    -7.3690952358206190E-028
  -3.7150000000000002E-002    -8.0446709600176022E-028
  -3.7100000000000001E-002    -4.3112423394171581E-028
  -3.7050000000000000E-002     5.6850093606244647E-028
  -3.6999999999999998E-002     2.1785025315127748E-027
  -3.6950000000000004E-002     4.0252290731663974E-027
  -3.6900000000000002E-002     5.2817465193630640E-027
  -3.6850000000000001E-002     4.7330609430837105E-027
  -3.6799999999999999E-002     1.1205835520358213E-027
  -3.6749999999999998E-002    -6.1551219664337646E-027
  -3.6700000000000003E-002    -1.6064344181479635E-026
  -3.6650000000000002E-002    -2.5135194796769069E-026
  -3.6600000000000001E-002    -2.7593508124637048E-026
  -3.6549999999999999E-002    -1.7309344518462544E-026
  -3.6499999999999998E-002     8.3025500216203483E-027
  -3.6450000000000003E-002     4.3889101272343782E-026
  -3.6400000000000002E-002     7.4556661911447281E-026
  -3.6350000000000000E-002     8.0753337353898827E-026
  -3.6299999999999999E-002     5.0543567092933694E-026
  -3.6249999999999998E-002    -5.9833388065891597E-027
  -3.6200000000000003E-002    -5.1892866532214714E-026
  -3.6150000000000002E-002    -4.0526641379150491E-026
  -3.6100000000000000E-002     4.3923061348316159E-026
  -3.6049999999999999E-002     1.4229775717662066E-025
  -3.6000000000000004E-002     1.1281129710901729E-025
  -3.5950000000000003E-002    -2.0163712284959689E-025
  -3.5900000000000001E-002    -8.3131894285560546E-025
  -3.5850000000000000E-002    -1.5315223732500941E-024
  -3.5799999999999998E-002    -1.7557898589051896E-024
  -3.5750000000000004E-002    -8.6660978433253126E-025
  -3.5700000000000003E-002     1.4207235336042246E-024
  -3.5650000000000001E-002     4.5641531487643465E-024
  -3.5600000000000000E-002     7.0521175582790446E-024
  -3.5549999999999998E-002     6.9111151688914427E-024
  -3.5500000000000004E-002     2.8519517234215450E-024
  -3.5450000000000002E-002    -4.4732722118932415E-024
  -3.5400000000000001E-002    -1.2014040331430504E-023
  -3.5349999999999999E-002    -1.5432634628170645E-023
  -3.5299999999999998E-002    -1.1708951683418711E-023
  -3.5250000000000004E-002    -1.9257644460413604E-024
  -3.5200000000000002E-002     7.9135272417073307E-024
  -3.5150000000000001E-002     9.7127724907957124E-024
  -3.5099999999999999E-002    -6.5884701706665117E-025
  -3.5049999999999998E-002    -1.7381761360818478E-023
  -3.5000000000000003E-002    -2.3848377981473608E-023
  -3.4950000000000002E-002    -6.7959456005035309E-025
  -3.4900000000000000E-002     5.8787673397935415E-023
  -3.4849999999999999E-002     1.3369645377500097E-022
  -3.4799999999999998E-002     1.7375979598146163E-022
  -3.4750000000000003E-002     1.1926878583098401E-022
  -3.4700000000000002E-002    -5.9674358808540704E-023
  -3.4650000000000000E-002    -3.2315831019644238E-022
  -3.4599999999999999E-002    -5.4934293497898475E-022
  -3.4549999999999997E-002    -5.7335332117732811E-022
  -3.4500000000000003E-002    -2.7564024994115445E-022
  -3.4450000000000001E-002     3.1698599504751528E-022
  -3.4400000000000000E-002     9.8034816129275562E-022
  -3.4349999999999999E-002     1.3490693759420106E-021
  -3.4299999999999997E-002     1.0900930290144850E-021
  -3.4250000000000003E-002     1.2948414580160256E-022
  -3.4200000000000001E-002    -1.1945924990164967E-021
  -3.4150000000000000E-002    -2.1847330997177503E-021
  -3.4099999999999998E-002    -2.0945922405652172E-021
  -3.4049999999999997E-002    -6.0042665630650187E-022
  -3.4000000000000002E-002     1.8080270313180448E-021
  -3.3950000000000001E-002     3.8076140802328552E-021
  -3.3900000000000000E-002     3.7638794277062990E-021
  -3.3849999999999998E-002     6.8911652826822497E-022
  -3.3799999999999997E-002    -4.7922487221060431E-021
  -3.3750000000000002E-002    -1.0083348350637003E-020
  -3.3700000000000001E-002    -1.1349627042092331E-020
  -3.3649999999999999E-002    -5.3675653123603560E-021
  -3.3599999999999998E-002     8.1612517124028643E-021
  -3.3550000000000003E-002     2.5018909124159749E-020
  -3.3500000000000002E-002     3.6839294324536092E-020
  -3.3450000000000001E-002     3.4025020027507950E-020
  -3.3399999999999999E-002     1.0586431232302836E-020
  -3.3349999999999998E-002    -3.1020612007499422E-020
  -3.3300000000000003E-002    -7.7667515851099599E-020
  -3.3250000000000002E-002    -1.0805332705418075E-019
  -3.3200000000000000E-002    -1.0027924622663955E-019
  -3.3149999999999999E-002    -4.2352017367600337E-020
  -3.3099999999999997E-002     5.8650882501455296E-020
  -3.3050000000000003E-002     1.7358483637631029E-019
  -3.3000000000000002E-002     2.5756207391315976E-019
  -3.2950000000000000E-002     2.6511953042912579E-019
  -3.2899999999999999E-002     1.6951894021785350E-019
  -3.2850000000000004E-002    -2.1446637834833517E-020
  -3.2800000000000003E-002    -2.6069499730200848E-019
  -3.2750000000000001E-002    -4.7215031895842250E-019
  -3.2700000000000000E-002    -5.7417637452892733E-019
  -3.2649999999999998E-002    -5.0838460645075734E-019
  -3.2600000000000004E-002    -2.6303082216832427E-019
  -3.2550000000000003E-002     1.1827637736777088E-019
  -3.2500000000000001E-002     5.4610960036784274E-019
  -3.2450000000000000E-002     9.0910684047511456E-019
  -3.2399999999999998E-002     1.1027199692721095E-018
  -3.2350000000000004E-002     1.0525362037182857E-018
  -3.2300000000000002E-002     7.2644035447134206E-019
  -3.2250000000000001E-002     1.3734239145577556E-019
  -3.2199999999999999E-002    -6.5600876868773137E-019
  -3.2149999999999998E-002    -1.5428199084544255E-018
  -3.2100000000000004E-002    -2.3489844124853083E-018
  -3.2050000000000002E-002    -2.8329442667205557E-018
  -3.2000000000000001E-002    -2.7097917393118590E-018
  -3.1949999999999999E-002    -1.7225588192285997E-018
  -3.1899999999999998E-002     2.3802526849078734E-019
  -3.1850000000000003E-002     2.9940714975927811E-018
  -3.1800000000000002E-002     5.9808024805969192E-018
  -3.1750000000000000E-002     8.2602844288876450E-018
  -3.1699999999999999E-002     8.7050986477082418E-018
  -3.1649999999999998E-002     6.3548256866401131E-018
  -3.1600000000000003E-002     8.6969465951606407E-019
  -3.1550000000000002E-002    -7.0701645750566091E-018
  -3.1500000000000000E-002    -1.5608889356500681E-017
  -3.1449999999999999E-002    -2.1960490978541944E-017
  -3.1399999999999997E-002    -2.3105095670763469E-017
  -3.1350000000000003E-002    -1.6819846177291829E-017
  -3.1300000000000001E-002    -2.7584081140235652E-018
  -3.1250000000000000E-002     1.6814337071224982E-017
  -3.1199999999999999E-002     3.7010684002609911E-017
  -3.1150000000000001E-002     5.1245736743556912E-017
  -3.1100000000000003E-002     5.3026536394417151E-017
  -3.1050000000000001E-002     3.8198351628027407E-017
  -3.1000000000000000E-002     6.9768547442117442E-018
  -3.0949999999999998E-002    -3.4989967707637351E-017
  -3.0900000000000000E-002    -7.7122952400122390E-017
  -3.0850000000000002E-002    -1.0616393371489124E-016
  -3.0800000000000001E-002    -1.0981531878277052E-016
  -3.0750000000000000E-002    -8.0866955495947115E-017
  -3.0699999999999998E-002    -2.0574653007115814E-017
  -3.0650000000000000E-002     5.9934304079041485E-017
  -3.0600000000000002E-002     1.4104168257991838E-016
  -3.0550000000000001E-002     1.9887982192371115E-016
  -3.0499999999999999E-002     2.1163249871471523E-016
  -3.0449999999999998E-002     1.6633889502956977E-016
  -3.0400000000000000E-002     6.4263060213450008E-017
  -3.0350000000000002E-002    -7.6956031299430983E-017
  -3.0300000000000001E-002    -2.2545891491428505E-016
  -3.0249999999999999E-002    -3.4161962196789329E-016
  -3.0200000000000001E-002    -3.8759554961867967E-016
  -3.0150000000000000E-002    -3.3779630130302078E-016
  -3.0100000000000002E-002    -1.8762791323209431E-016
  -3.0050000000000000E-002     4.1944438893814260E-017
  -2.9999999999999999E-002     3.0566067353552055E-016
  -2.9950000000000001E-002     5.4145299352457058E-016
  -2.9899999999999999E-002     6.8315243063204721E-016
  -2.9850000000000002E-002     6.7615036351200095E-016
  -2.9800000000000000E-002     4.9287234724397552E-016
  -2.9749999999999999E-002     1.4456202263923775E-016
  -2.9700000000000001E-002    -3.1389428538519198E-016
  -2.9650000000000003E-002    -7.8852373132573613E-016
  -2.9600000000000001E-002    -1.1611651474779119E-015
  -2.9550000000000000E-002    -1.3136400004671206E-015
  -2.9499999999999998E-002    -1.1576991942896383E-015
  -2.9450000000000000E-002    -6.6481694167467980E-016
  -2.9400000000000003E-002     1.1189232779456215E-016
  -2.9350000000000001E-002     1.0316983778386675E-015
  -2.9300000000000000E-002     1.8824220464213502E-015
  -2.9249999999999998E-002     2.4205445737174384E-015
  -2.9200000000000000E-002     2.4305678717023780E-015
  -2.9150000000000002E-002     1.7917405503026202E-015
  -2.9100000000000001E-002     5.3454470140666279E-016
  -2.9049999999999999E-002    -1.1324820410716887E-015
  -2.8999999999999998E-002    -2.8411059831617798E-015
  -2.8950000000000000E-002    -4.1324783979907215E-015
  -2.8900000000000002E-002    -4.5681133944029011E-015
  -2.8850000000000001E-002    -3.8588898602720733E-015
  -2.8799999999999999E-002    -1.9773154748915438E-015
  -2.8749999999999998E-002     7.8389398939960612E-016
  -2.8700000000000000E-002     3.8347791276618578E-015
  -2.8650000000000002E-002     6.4008964796204721E-015
  -2.8600000000000000E-002     7.7083841372856559E-015
  -2.8549999999999999E-002     7.1992288906785358E-015
  -2.8500000000000001E-002     4.7190797897238050E-015
  -2.8450000000000000E-002     6.1975397764145887E-016
  -2.8400000000000002E-002    -4.2642681350647691E-015
  -2.8350000000000000E-002    -8.7747195342519011E-015
  -2.8299999999999999E-002    -1.1695653203240862E-014
  -2.8250000000000001E-002    -1.2065666647609135E-014
  -2.8200000000000003E-002    -9.4567866727838501E-015
  -2.8150000000000001E-002    -4.1431249818142799E-015
  -2.8100000000000000E-002     2.8937556984610814E-015
  -2.8049999999999999E-002     1.0136535679416770E-014
  -2.8000000000000001E-002     1.5850381511890097E-014
  -2.7950000000000003E-002     1.8479545024741196E-014
  -2.7900000000000001E-002     1.7032779961865052E-014
  -2.7850000000000000E-002     1.1367858606108819E-014
  -2.7799999999999998E-002     2.3055497795824321E-015
  -2.7750000000000000E-002    -8.4616075124257113E-015
  -2.7700000000000002E-002    -1.8659099094911330E-014
  -2.7650000000000001E-002    -2.5872484136224327E-014
  -2.7600000000000000E-002    -2.8063964360833474E-014
  -2.7549999999999998E-002    -2.4066409336775785E-014
  -2.7500000000000000E-002    -1.3952978087175302E-014
  -2.7450000000000002E-002     8.0899532381281836E-016
  -2.7400000000000001E-002     1.7483614036060673E-014
  -2.7349999999999999E-002     3.2491177357180187E-014
  -2.7299999999999998E-002     4.2093069355805081E-014
  -2.7250000000000000E-002     4.3232169361070058E-014
  -2.7200000000000002E-002     3.4364419003186289E-014
  -2.7150000000000001E-002     1.6081116749285426E-014
  -2.7099999999999999E-002    -8.6730593307478235E-015
  -2.7049999999999998E-002    -3.4922654380515621E-014
  -2.7000000000000000E-002    -5.6550155949238069E-014
  -2.6950000000000002E-002    -6.7631224069651462E-014
  -2.6900000000000000E-002    -6.3951464569621575E-014
  -2.6849999999999999E-002    -4.4337861329431284E-014
  -2.6800000000000001E-002    -1.1418852445950058E-014
  -2.6749999999999999E-002     2.8485123015639333E-014
  -2.6700000000000002E-002     6.6450120772699418E-014
  -2.6650000000000000E-002     9.2872983690635541E-014
  -2.6599999999999999E-002     9.9836156142409075E-014
  -2.6550000000000001E-002     8.3339991431396055E-014
  -2.6500000000000003E-002     4.4789694443247585E-014
  -2.6450000000000001E-002    -8.7478529513381012E-015
  -2.6400000000000000E-002    -6.5722810779472737E-014
  -2.6349999999999998E-002    -1.1255502037533170E-013
  -2.6300000000000000E-002    -1.3684045425521751E-013
  -2.6250000000000002E-002    -1.3054494184965715E-013
  -2.6200000000000001E-002    -9.2362055995273858E-014
  -2.6150000000000000E-002    -2.8574457225685555E-014
  -2.6099999999999998E-002     4.7893144209032704E-014
  -2.6050000000000000E-002     1.2009472236001445E-013
  -2.6000000000000002E-002     1.7079551138396561E-013
  -2.5950000000000001E-002     1.8646297173508227E-013
  -2.5899999999999999E-002     1.6058280951676243E-013
  -2.5849999999999998E-002     9.5518491782589455E-014
  -2.5800000000000000E-002     2.4689877797895859E-015
  -2.5750000000000002E-002    -1.0048986973887237E-013
  -2.5700000000000001E-002    -1.9188041158968740E-013
  -2.5649999999999999E-002    -2.5110988659302974E-013
  -2.5599999999999998E-002    -2.6272390850577065E-013
  -2.5550000000000000E-002    -2.1981327688745048E-013
  -2.5500000000000002E-002    -1.2593063913806284E-013
  -2.5450000000000000E-002     4.8686567039705337E-015
  -2.5399999999999999E-002     1.4995010109554462E-013
  -2.5349999999999998E-002     2.8177456082512792E-013
  -2.5300000000000000E-002     3.7282067232584141E-013
  -2.5250000000000002E-002     4.0099311325476785E-013
  -2.5200000000000000E-002     3.5455724851590821E-013
  -2.5149999999999999E-002     2.3556190086358251E-013
  -2.5100000000000001E-002     6.0816505527060038E-014
  -2.5049999999999999E-002    -1.4016930192606653E-013
  -2.5000000000000001E-002    -3.3029552657329405E-013
  -2.4950000000000000E-002    -4.7230731040633246E-013
  -2.4899999999999999E-002    -5.3710648466288370E-013
  -2.4850000000000001E-002    -5.1099501788144591E-013
  -2.4800000000000003E-002    -3.9985203097678475E-013
  -2.4750000000000001E-002    -2.2875207233000416E-013
  -2.4700000000000000E-002    -3.6561401145178040E-014
  -2.4649999999999998E-002     1.3361354566277004E-013
  -2.4600000000000000E-002     2.4596172434876014E-013
  -2.4550000000000002E-002     2.8248162907913977E-013
  -2.4500000000000001E-002     2.4939611523026098E-013
  -2.4450000000000000E-002     1.7720549416132306E-013
  -2.4399999999999998E-002     1.1368000809520425E-013
  -2.4350000000000000E-002     1.1101344785172968E-013
  -2.4299999999999999E-002     2.1010363754414972E-013
  -2.4250000000000001E-002     4.2597381907601825E-013
  -2.4199999999999999E-002     7.3835405631821746E-013
  -2.4150000000000001E-002     1.0903552316896684E-012
  -2.4100000000000000E-002     1.3962604522324242E-012
  -2.4049999999999998E-002     1.5572346690496780E-012
  -2.4000000000000000E-002     1.4818175894676979E-012
  -2.3949999999999999E-002     1.1069254341556193E-012
  -2.3900000000000001E-002     4.1499073855734004E-013
  -2.3850000000000000E-002    -5.5619626988697718E-013
  -2.3800000000000002E-002    -1.7127769657108479E-012
  -2.3750000000000000E-002    -2.9132346358889708E-012
  -2.3699999999999999E-002    -3.9843245809102894E-012
  -2.3650000000000001E-002    -4.7419006212266369E-012
  -2.3599999999999999E-002    -5.0136448875475080E-012
  -2.3550000000000001E-002    -4.6609207469995509E-012
  -2.3500000000000000E-002    -3.5974951224460815E-012
  -2.3449999999999999E-002    -1.8035464110485027E-012
  -2.3400000000000001E-002     6.6601422550800272E-013
  -2.3349999999999999E-002     3.6793030921132921E-012
  -2.3300000000000001E-002     7.0311118034506657E-012
  -2.3250000000000000E-002     1.0451593477337515E-011
  -2.3199999999999998E-002     1.3618425542630371E-011
  -2.3150000000000000E-002     1.6170293418331494E-011
  -2.3099999999999999E-002     1.7719296388645830E-011
  -2.3050000000000001E-002     1.7860255157073487E-011
  -2.3000000000000000E-002     1.6175994337841904E-011
  -2.2950000000000002E-002     1.2239318767715188E-011
  -2.2900000000000000E-002     5.6142037303037332E-012
  -2.2849999999999999E-002    -4.1399787292427495E-012
  -2.2800000000000001E-002    -1.7457087345997529E-011
  -2.2749999999999999E-002    -3.4742836358521555E-011
  -2.2700000000000001E-002    -5.6343088636437541E-011
  -2.2650000000000000E-002    -8.2504956285257620E-011
  -2.2599999999999999E-002    -1.1333705713520101E-010
  -2.2550000000000001E-002    -1.4877768535211011E-010
  -2.2499999999999999E-002    -1.8857939895331864E-010
  -2.2450000000000001E-002    -2.3231650580641649E-010
  -2.2400000000000000E-002    -2.7941763937012862E-010
  -2.2349999999999998E-002    -3.2921993234458836E-010
  -2.2300000000000000E-002    -3.8103661732238673E-010
  -2.2249999999999999E-002    -4.3422596388107348E-010
  -2.2200000000000001E-002    -4.8824979615333665E-010
  -2.2150000000000000E-002    -5.4271114172672546E-010
  -2.2100000000000002E-002    -5.9736589474749091E-010
  -2.2050000000000000E-002    -6.5210951247883347E-010
  -2.1999999999999999E-002    -7.0694405703049184E-010
  -2.1950000000000001E-002    -7.6193646353791063E-010
  -2.1899999999999999E-002    -8.1717727236673527E-010
  -2.1850000000000001E-002    -8.7274977094379149E-010
  -2.1800000000000000E-002    -9.2871392799879318E-010
  -2.1749999999999999E-002    -9.8510561018811474E-010
  -2.1700000000000001E-002    -1.0419478128657179E-009
  -2.1649999999999999E-002    -1.0992676749525949E-009
  -2.1600000000000001E-002    -1.1571134398163522E-009
  -2.1550000000000000E-002    -1.2155668528633217E-009
  -2.1499999999999998E-002    -1.2747477756439900E-009
  -2.1450000000000000E-002    -1.3348121374336286E-009
  -2.1399999999999999E-002    -1.3959439444467040E-009
  -2.1350000000000001E-002    -1.4583428394091440E-009
  -2.1299999999999999E-002    -1.5222105813780167E-009
  -2.1250000000000002E-002    -1.5877357025154116E-009
  -2.1200000000000000E-002    -1.6550794460618670E-009
  -2.1149999999999999E-002    -1.7243633207546401E-009
  -2.1100000000000001E-002    -1.7956593375003304E-009
  -2.1049999999999999E-002    -1.8689877785806513E-009
  -2.1000000000000001E-002    -1.9443239006907378E-009
  -2.0950000000000000E-002    -2.0216133727571488E-009
  -2.0899999999999998E-002    -2.1007969912121241E-009
  -2.0850000000000000E-002    -2.1818368591408547E-009
  -2.0799999999999999E-002    -2.2647397309850770E-009
  -2.0750000000000001E-002    -2.3495678072669743E-009
  -2.0700000000000000E-002    -2.4364329421457763E-009
  -2.0649999999999998E-002    -2.5254715232720309E-009
  -2.0600000000000000E-002    -2.6168101726574748E-009
  -2.0549999999999999E-002    -2.7105270058350727E-009
  -2.0500000000000001E-002    -2.8066257789895684E-009
  -2.0449999999999999E-002    -2.9050322232990678E-009
  -2.0400000000000001E-002    -3.0056179066004608E-009
  -2.0350000000000000E-002    -3.1082509895154570E-009
  -2.0299999999999999E-002    -3.2128602906135420E-009
  -2.0250000000000001E-002    -3.3194978638783856E-009
  -2.0199999999999999E-002    -3.4283818910210143E-009
  -2.0150000000000001E-002    -3.5399048631160645E-009
  -2.0100000000000000E-002    -3.6546011243380182E-009
  -2.0049999999999998E-002    -3.7730781050475969E-009
  -2.0000000000000000E-002    -3.8959237812674887E-009
  -1.9949999999999999E-002    -4.0236123127813821E-009
  -1.9900000000000001E-002    -4.1564227478430712E-009
  -1.9850000000000000E-002    -4.2943955569740439E-009
  -1.9799999999999998E-002    -4.4373292048128770E-009
  -1.9750000000000000E-002    -4.5848228303804653E-009
  -1.9699999999999999E-002    -4.7363546854662074E-009
  -1.9650000000000001E-002    -4.8913794779088720E-009
  -1.9599999999999999E-002    -5.0494296730043559E-009
  -1.9550000000000001E-002    -5.2102008192683678E-009
  -1.9500000000000000E-002    -5.3736101793211883E-009
  -1.9449999999999999E-002    -5.5398180935336233E-009
  -1.9400000000000001E-002    -5.7092141121625151E-009
  -1.9349999999999999E-002    -5.8823697132243579E-009
  -1.9300000000000001E-002    -6.0599698152918494E-009
  -1.9250000000000000E-002    -6.2427382903510268E-009
  -1.9199999999999998E-002    -6.4313656584217026E-009
  -1.9150000000000000E-002    -6.6264489504009006E-009
  -1.9099999999999999E-002    -6.8284534297696336E-009
  -1.9050000000000001E-002    -7.0376907735357035E-009
  -1.9000000000000000E-002    -7.2543168659530872E-009
  -1.8949999999999998E-002    -7.4783460503868173E-009
  -1.8900000000000000E-002    -7.7096728519801744E-009
  -1.8849999999999999E-002    -7.9481042305821771E-009
  -1.8800000000000001E-002    -8.1933966910437301E-009
  -1.8749999999999999E-002    -8.4453009239032090E-009
  -1.8700000000000001E-002    -8.7036061642979913E-009
  -1.8650000000000000E-002    -8.9681772195646130E-009
  -1.8599999999999998E-002    -9.2389857219883049E-009
  -1.8550000000000001E-002    -9.5161176575667530E-009
  -1.8499999999999999E-002    -9.7997739603988795E-009
  -1.8450000000000001E-002    -1.0090247553514365E-008
  -1.8400000000000000E-002    -1.0387896580810489E-008
  -1.8349999999999998E-002    -1.0693128118599038E-008
  -1.8300000000000000E-002    -1.1006381342721910E-008
  -1.8249999999999999E-002    -1.1328137100595288E-008
  -1.8200000000000001E-002    -1.1658922611212119E-008
  -1.8149999999999999E-002    -1.1999320059487862E-008
  -1.8100000000000002E-002    -1.2349950197740747E-008
  -1.8050000000000000E-002    -1.2711432947319120E-008
  -1.7999999999999999E-002    -1.3084323626876928E-008
  -1.7950000000000001E-002    -1.3469037578918652E-008
  -1.7899999999999999E-002    -1.3865779091268613E-008
  -1.7850000000000001E-002    -1.4274506442880324E-008
  -1.7800000000000000E-002    -1.4694945155787265E-008
  -1.7749999999999998E-002    -1.5126658652821935E-008
  -1.7700000000000000E-002    -1.5569161067514833E-008
  -1.7649999999999999E-002    -1.6022058381446056E-008
  -1.7600000000000001E-002    -1.6485177858213496E-008
  -1.7550000000000000E-002    -1.6958675745145755E-008
  -1.7499999999999998E-002    -1.7443058382512811E-008
  -1.7450000000000000E-002    -1.7939167966758887E-008
  -1.7399999999999999E-002    -1.8448093322524226E-008
  -1.7350000000000001E-002    -1.8971043076659826E-008
  -1.7299999999999999E-002    -1.9509198540217341E-008
  -1.7250000000000001E-002    -2.0063576950664342E-008
  -1.7200000000000000E-002    -2.0634927396360603E-008
  -1.7149999999999999E-002    -2.1223670858192778E-008
  -1.7100000000000001E-002    -2.1829912453617407E-008
  -1.7049999999999999E-002    -2.2453491266744642E-008
  -1.7000000000000001E-002    -2.3094090487630069E-008
  -1.6950000000000000E-002    -2.3751353741635905E-008
  -1.6899999999999998E-002    -2.4425010258248042E-008
  -1.6850000000000000E-002    -2.5114965972378209E-008
  -1.6799999999999999E-002    -2.5821361344926033E-008
  -1.6750000000000001E-002    -2.6544583871016725E-008
  -1.6700000000000000E-002    -2.7285230271082383E-008
  -1.6649999999999998E-002    -2.8044066304462470E-008
  -1.6600000000000000E-002    -2.8821959756515448E-008
  -1.6549999999999999E-002    -2.9619836924985731E-008
  -1.6500000000000001E-002    -3.0438646817408776E-008
  -1.6449999999999999E-002    -3.1279339691440801E-008
  -1.6400000000000001E-002    -3.2142830447212291E-008
  -1.6350000000000000E-002    -3.3029966740403087E-008
  -1.6299999999999999E-002    -3.3941503243831375E-008
  -1.6250000000000001E-002    -3.4878028447441672E-008
  -1.6199999999999999E-002    -3.5839962066536215E-008
  -1.6150000000000001E-002    -3.6827552017394940E-008
  -1.6100000000000000E-002    -3.7840912400637399E-008
  -1.6049999999999998E-002    -3.8880110807025454E-008
  -1.6000000000000000E-002    -3.9945261203565468E-008
  -1.5949999999999999E-002    -4.1036597836497385E-008
  -1.5900000000000001E-002    -4.2154537946406307E-008
  -1.5850000000000000E-002    -4.3299689241693765E-008
  -1.5799999999999998E-002    -4.4472803787532090E-008
  -1.5750000000000000E-002    -4.5674731013514008E-008
  -1.5699999999999999E-002    -4.6906342443968011E-008
  -1.5650000000000001E-002    -4.8168516650854827E-008
  -1.5599999999999999E-002    -4.9462122970991152E-008
  -1.5550000000000001E-002    -5.0788076401998292E-008
  -1.5500000000000000E-002    -5.2147357416844258E-008
  -1.5449999999999998E-002    -5.3541031676038458E-008
  -1.5400000000000000E-002    -5.4970248327581543E-008
  -1.5349999999999999E-002    -5.6436151002189377E-008
  -1.5300000000000001E-002    -5.7939810356587557E-008
  -1.5250000000000000E-002    -5.9482092350125905E-008
  -1.5199999999999998E-002    -6.1063608318590377E-008
  -1.5150000000000000E-002    -6.2684694168503768E-008
  -1.5099999999999999E-002    -6.4345477758062375E-008
  -1.5050000000000001E-002    -6.6045997462785236E-008
  -1.4999999999999999E-002    -6.7786391826553766E-008
  -1.4949999999999998E-002    -6.9567027409175725E-008
  -1.4900000000000000E-002    -7.1388653108128881E-008
  -1.4849999999999999E-002    -7.3252440258005158E-008
  -1.4800000000000001E-002    -7.5159945433349314E-008
  -1.4749999999999999E-002    -7.7113013129823368E-008
  -1.4700000000000001E-002    -7.9113600671368963E-008
  -1.4650000000000000E-002    -8.1163589973432831E-008
  -1.4599999999999998E-002    -8.3264637189686257E-008
  -1.4550000000000000E-002    -8.5418117926065388E-008
  -1.4499999999999999E-002    -8.7625066018675852E-008
  -1.4450000000000001E-002    -8.9886279853227373E-008
  -1.4400000000000000E-002    -9.2202405029975153E-008
  -1.4349999999999998E-002    -9.4574063306094467E-008
  -1.4300000000000000E-002    -9.7001955241370647E-008
  -1.4249999999999999E-002    -9.9486892009286024E-008
  -1.4200000000000001E-002    -1.0202983635868670E-007
  -1.4149999999999999E-002    -1.0463183790062964E-007
  -1.4099999999999998E-002    -1.0729400256326718E-007
  -1.4050000000000000E-002    -1.1001747772753633E-007
  -1.3999999999999999E-002    -1.1280345605224986E-007
  -1.3950000000000001E-002    -1.1565323272266260E-007
  -1.3899999999999999E-002    -1.1856825648326582E-007
  -1.3850000000000001E-002    -1.2155015426776522E-007
  -1.3800000000000000E-002    -1.2460067902185093E-007
  -1.3749999999999998E-002    -1.2772160990297296E-007
  -1.3700000000000000E-002    -1.3091468997283345E-007
  -1.3649999999999999E-002    -1.3418150022578477E-007
  -1.3600000000000001E-002    -1.3752343146085171E-007
  -1.3550000000000000E-002    -1.4094168272033853E-007
  -1.3499999999999998E-002    -1.4443742905859539E-007
  -1.3450000000000000E-002    -1.4801187732508991E-007
  -1.3399999999999999E-002    -1.5166646930855111E-007
  -1.3350000000000001E-002    -1.5540284593159344E-007
  -1.3299999999999999E-002    -1.5922292871543653E-007
  -1.3249999999999998E-002    -1.6312875095460113E-007
  -1.3200000000000000E-002    -1.6712239132962697E-007
  -1.3149999999999998E-002    -1.7120581757208063E-007
  -1.3100000000000001E-002    -1.7538091601215870E-007
  -1.3049999999999999E-002    -1.7964947991524648E-007
  -1.3000000000000001E-002    -1.8401328870546503E-007
  -1.2950000000000000E-002    -1.8847414726266238E-007
  -1.2899999999999998E-002    -1.9303402181232392E-007
  -1.2850000000000000E-002    -1.9769499868501121E-007
  -1.2799999999999999E-002    -2.0245924970342206E-007