  -4.0000000000000001E-002     0.0000000000000000     
  -3.9949999999999999E-002     0.0000000000000000     
  -3.9899999999999998E-002     0.0000000000000000     
  -3.9850000000000003E-002     0.0000000000000000     
  -3.9800000000000002E-002     0.0000000000000000     
  -3.9750000000000001E-002     0.0000000000000000     
  -3.9699999999999999E-002     0.0000000000000000     
  -3.9649999999999998E-002     0.0000000000000000     
  -3.9600000000000003E-002     0.0000000000000000     
  -3.9550000000000002E-002     0.0000000000000000     
  -3.9500000000000000E-002     0.0000000000000000     
  -3.9449999999999999E-002     0.0000000000000000     
  -3.9399999999999998E-002     0.0000000000000000     
  -3.9350000000000003E-002     0.0000000000000000     
  -3.9300000000000002E-002     0.0000000000000000     
  -3.9250000000000000E-002     0.0000000000000000     
  -3.9199999999999999E-002     0.0000000000000000     
  -3.9150000000000004E-002     0.0000000000000000     
  -3.9100000000000003E-002     0.0000000000000000     
  -3.9050000000000001E-002     0.0000000000000000     
  -3.9000000000000000E-002     0.0000000000000000     
  -3.8949999999999999E-002     0.0000000000000000     
  -3.8900000000000004E-002     0.0000000000000000     
  -3.8850000000000003E-002     0.0000000000000000     
  -3.8800000000000001E-002     0.0000000000000000     
  -3.8750000000000000E-002     0.0000000000000000     
  -3.8699999999999998E-002     0.0000000000000000     
  -3.8650000000000004E-002     0.0000000000000000     
  -3.8600000000000002E-002     0.0000000000000000     
  -3.8550000000000001E-002     0.0000000000000000     
  -3.8500000000000000E-002     0.0000000000000000     
  -3.8449999999999998E-002     0.0000000000000000     
  -3.8400000000000004E-002     0.0000000000000000     
  -3.8350000000000002E-002     0.0000000000000000     
  -3.8300000000000001E-002     0.0000000000000000     
  -3.8249999999999999E-002     0.0000000000000000     
  -3.8199999999999998E-002     0.0000000000000000     
  -3.8150000000000003E-002     0.0000000000000000     
  -3.8100000000000002E-002     0.0000000000000000     
  -3.8050000000000000E-002     0.0000000000000000     
  -3.7999999999999999E-002     0.0000000000000000     
  -3.7949999999999998E-002     0.0000000000000000     
  -3.7900000000000003E-002     0.0000000000000000     
  -3.7850000000000002E-002     0.0000000000000000     
  -3.7800000000000000E-002     0.0000000000000000     
  -3.7749999999999999E-002     0.0000000000000000     
  -3.7699999999999997E-002     0.0000000000000000     
  -3.7650000000000003E-002     0.0000000000000000     
  -3.7600000000000001E-002     0.0000000000000000     
  -3.7550000000000000E-002     0.0000000000000000     
  -3.7499999999999999E-002     0.0000000000000000     
  -3.7449999999999997E-002     0.0000000000000000     
  -3.7400000000000003E-002     0.0000000000000000     
  -3.7350000000000001E-002     0.0000000000000000     
  -3.7300000000000000E-002     0.0000000000000000     
  -3.7249999999999998E-002     0.0000000000000000     
  -3.7200000000000004E-002     0.0000000000000000     
  -3.7150000000000002E-002     0.0000000000000000     
  -3.7100000000000001E-002     0.0000000000000000     
  -3.7050000000000000E-002     0.0000000000000000     
  -3.6999999999999998E-002     0.0000000000000000     
  -3.6950000000000004E-002     0.0000000000000000     
  -3.6900000000000002E-002     0.0000000000000000     
  -3.6850000000000001E-002     0.0000000000000000     
  -3.6799999999999999E-002     0.0000000000000000     
  -3.6749999999999998E-002     0.0000000000000000     
  -3.6700000000000003E-002     0.0000000000000000     
  -3.6650000000000002E-002     0.0000000000000000     
  -3.6600000000000001E-002     0.0000000000000000     
  -3.6549999999999999E-002     0.0000000000000000     
  -3.6499999999999998E-002     0.0000000000000000     
  -3.6450000000000003E-002     0.0000000000000000     
  -3.6400000000000002E-002     0.0000000000000000     
  -3.6350000000000000E-002     0.0000000000000000     
  -3.6299999999999999E-002     0.0000000000000000     
  -3.6249999999999998E-002     0.0000000000000000     
  -3.6200000000000003E-002     0.0000000000000000     
  -3.6150000000000002E-002     0.0000000000000000     
  -3.6100000000000000E-002     0.0000000000000000     
  -3.6049999999999999E-002     0.0000000000000000     
  -3.6000000000000004E-002     0.0000000000000000     
  -3.5950000000000003E-002     0.0000000000000000     
  -3.5900000000000001E-002     0.0000000000000000     
  -3.5850000000000000E-002     0.0000000000000000     
  -3.5799999999999998E-002     0.0000000000000000     
  -3.5750000000000004E-002     0.0000000000000000     
  -3.5700000000000003E-002     0.0000000000000000     
  -3.5650000000000001E-002     0.0000000000000000     
  -3.5600000000000000E-002     0.0000000000000000     
  -3.5549999999999998E-002     0.0000000000000000     
  -3.5500000000000004E-002     0.0000000000000000     
  -3.5450000000000002E-002     0.0000000000000000     
  -3.5400000000000001E-002     0.0000000000000000     
  -3.5349999999999999E-002     0.0000000000000000     
  -3.5299999999999998E-002     0.0000000000000000     
  -3.5250000000000004E-002     0.0000000000000000     
  -3.5200000000000002E-002     0.0000000000000000     
  -3.5150000000000001E-002     0.0000000000000000     
  -3.5099999999999999E-002     0.0000000000000000     
  -3.5049999999999998E-002     0.0000000000000000     
  -3.5000000000000003E-002     0.0000000000000000     
  -3.4950000000000002E-002     0.0000000000000000     
  -3.4900000000000000E-002     0.0000000000000000     
  -3.4849999999999999E-002     0.0000000000000000     
  -3.4799999999999998E-002     0.0000000000000000     
  -3.4750000000000003E-002     0.0000000000000000     
  -3.4700000000000002E-002     0.0000000000000000     
  -3.4650000000000000E-002     0.0000000000000000     
  -3.4599999999999999E-002     0.0000000000000000     
  -3.4549999999999997E-002     0.0000000000000000     
  -3.4500000000000003E-002     0.0000000000000000     
  -3.4450000000000001E-002     0.0000000000000000     
  -3.4400000000000000E-002     0.0000000000000000     
  -3.4349999999999999E-002     0.0000000000000000     
  -3.4299999999999997E-002     0.0000000000000000     
  -3.4250000000000003E-002     0.0000000000000000     
  -3.4200000000000001E-002     0.0000000000000000     
  -3.4150000000000000E-002     0.0000000000000000     
  -3.4099999999999998E-002     0.0000000000000000     
  -3.4049999999999997E-002     0.0000000000000000     
  -3.4000000000000002E-002     0.0000000000000000     
  -3.3950000000000001E-002     0.0000000000000000     
  -3.3900000000000000E-002     0.0000000000000000     
  -3.3849999999999998E-002     0.0000000000000000     
  -3.3799999999999997E-002     0.0000000000000000     
  -3.3750000000000002E-002     0.0000000000000000     
  -3.3700000000000001E-002     0.0000000000000000     
  -3.3649999999999999E-002     0.0000000000000000     
  -3.3599999999999998E-002     0.0000000000000000     
  -3.3550000000000003E-002     0.0000000000000000     
  -3.3500000000000002E-002     0.0000000000000000     
  -3.3450000000000001E-002     0.0000000000000000     
  -3.3399999999999999E-002     0.0000000000000000     
  -3.3349999999999998E-002     0.0000000000000000     
  -3.3300000000000003E-002     0.0000000000000000     
  -3.3250000000000002E-002     0.0000000000000000     
  -3.3200000000000000E-002     0.0000000000000000     
  -3.3149999999999999E-002     0.0000000000000000     
  -3.3099999999999997E-002     0.0000000000000000     
  -3.3050000000000003E-002     0.0000000000000000     
  -3.3000000000000002E-002     0.0000000000000000     
  -3.2950000000000000E-002     0.0000000000000000     
  -3.2899999999999999E-002     0.0000000000000000     
  -3.2850000000000004E-002     0.0000000000000000     
  -3.2800000000000003E-002     0.0000000000000000     
  -3.2750000000000001E-002     0.0000000000000000     
  -3.2700000000000000E-002     0.0000000000000000     
  -3.2649999999999998E-002     0.0000000000000000     
  -3.2600000000000004E-002     0.0000000000000000     
  -3.2550000000000003E-002     0.0000000000000000     
  -3.2500000000000001E-002     0.0000000000000000     
  -3.2450000000000000E-002     0.0000000000000000     
  -3.2399999999999998E-002     0.0000000000000000     
  -3.2350000000000004E-002     0.0000000000000000     
  -3.2300000000000002E-002     0.0000000000000000     
  -3.2250000000000001E-002     0.0000000000000000     
  -3.2199999999999999E-002     0.0000000000000000     
  -3.2149999999999998E-002     0.0000000000000000     
  -3.2100000000000004E-002     0.0000000000000000     
  -3.2050000000000002E-002     0.0000000000000000     
  -3.2000000000000001E-002     0.0000000000000000     
  -3.1949999999999999E-002     0.0000000000000000     
  -3.1899999999999998E-002     0.0000000000000000     
  -3.1850000000000003E-002     0.0000000000000000     
  -3.1800000000000002E-002     0.0000000000000000     
  -3.1750000000000000E-002     0.0000000000000000     
  -3.1699999999999999E-002     0.0000000000000000     
  -3.1649999999999998E-002     0.0000000000000000     
  -3.1600000000000003E-002     0.0000000000000000     
  -3.1550000000000002E-002     0.0000000000000000     
  -3.1500000000000000E-002     0.0000000000000000     
  -3.1449999999999999E-002     0.0000000000000000     
  -3.1399999999999997E-002     0.0000000000000000     
  -3.1350000000000003E-002     0.0000000000000000     
  -3.1300000000000001E-002     0.0000000000000000     
  -3.1250000000000000E-002     0.0000000000000000     
  -3.1199999999999999E-002     0.0000000000000000     
  -3.1150000000000001E-002     0.0000000000000000     
  -3.1100000000000003E-002     0.0000000000000000     
  -3.1050000000000001E-002     0.0000000000000000     
  -3.1000000000000000E-002     0.0000000000000000     
  -3.0949999999999998E-002     0.0000000000000000     
  -3.0900000000000000E-002     0.0000000000000000     
  -3.0850000000000002E-002     0.0000000000000000     
  -3.0800000000000001E-002     0.0000000000000000     
  -3.0750000000000000E-002     0.0000000000000000     
  -3.0699999999999998E-002     0.0000000000000000     
  -3.0650000000000000E-002     0.0000000000000000     
  -3.0600000000000002E-002     0.0000000000000000     
  -3.0550000000000001E-002     0.0000000000000000     
  -3.0499999999999999E-002     0.0000000000000000     
  -3.0449999999999998E-002     0.0000000000000000     
  -3.0400000000000000E-002     0.0000000000000000     
  -3.0350000000000002E-002     0.0000000000000000     
  -3.0300000000000001E-002     0.0000000000000000     
  -3.0249999999999999E-002     0.0000000000000000     
  -3.0200000000000001E-002     0.0000000000000000     
  -3.0150000000000000E-002     0.0000000000000000     
  -3.0100000000000002E-002     0.0000000000000000     
  -3.0050000000000000E-002     0.0000000000000000     
  -2.9999999999999999E-002     0.0000000000000000     
  -2.9950000000000001E-002     0.0000000000000000     
  -2.9899999999999999E-002     0.0000000000000000     
  -2.9850000000000002E-002     0.0000000000000000     
  -2.9800000000000000E-002     0.0000000000000000     
  -2.9749999999999999E-002     0.0000000000000000     
  -2.9700000000000001E-002     0.0000000000000000     
  -2.9650000000000003E-002     0.0000000000000000     
  -2.9600000000000001E-002     0.0000000000000000     
  -2.9550000000000000E-002     0.0000000000000000     
  -2.9499999999999998E-002     0.0000000000000000     
  -2.9450000000000000E-002     0.0000000000000000     
  -2.9400000000000003E-002     0.0000000000000000     
  -2.9350000000000001E-002     0.0000000000000000     
  -2.9300000000000000E-002     0.0000000000000000     
  -2.9249999999999998E-002     0.0000000000000000     
  -2.9200000000000000E-002     0.0000000000000000     
  -2.9150000000000002E-002     0.0000000000000000     
  -2.9100000000000001E-002     0.0000000000000000     
  -2.9049999999999999E-002     0.0000000000000000     
  -2.8999999999999998E-002     0.0000000000000000     
  -2.8950000000000000E-002     0.0000000000000000     
  -2.8900000000000002E-002     0.0000000000000000     
  -2.8850000000000001E-002     0.0000000000000000     
  -2.8799999999999999E-002     0.0000000000000000     
  -2.8749999999999998E-002     0.0000000000000000     
  -2.8700000000000000E-002     0.0000000000000000     
  -2.8650000000000002E-002     0.0000000000000000     
  -2.8600000000000000E-002     0.0000000000000000     
  -2.8549999999999999E-002     0.0000000000000000     
  -2.8500000000000001E-002     0.0000000000000000     
  -2.8450000000000000E-002     0.0000000000000000     
  -2.8400000000000002E-002     0.0000000000000000     
  -2.8350000000000000E-002     0.0000000000000000     
  -2.8299999999999999E-002     0.0000000000000000     
  -2.8250000000000001E-002     0.0000000000000000     
  -2.8200000000000003E-002     0.0000000000000000     
  -2.8150000000000001E-002     0.0000000000000000     
  -2.8100000000000000E-002     0.0000000000000000     
  -2.8049999999999999E-002     0.0000000000000000     
  -2.8000000000000001E-002     0.0000000000000000     
  -2.7950000000000003E-002     0.0000000000000000     
  -2.7900000000000001E-002     0.0000000000000000     
  -2.7850000000000000E-002     0.0000000000000000     
  -2.7799999999999998E-002     0.0000000000000000     
  -2.7750000000000000E-002     0.0000000000000000     
  -2.7700000000000002E-002     0.0000000000000000     
  -2.7650000000000001E-002     0.0000000000000000     
  -2.7600000000000000E-002     0.0000000000000000     
  -2.7549999999999998E-002     0.0000000000000000     
  -2.7500000000000000E-002     0.0000000000000000     
  -2.7450000000000002E-002     0.0000000000000000     
  -2.7400000000000001E-002     0.0000000000000000     
  -2.7349999999999999E-002     0.0000000000000000     
  -2.7299999999999998E-002     0.0000000000000000     
  -2.7250000000000000E-002     0.0000000000000000     
  -2.7200000000000002E-002     0.0000000000000000     
  -2.7150000000000001E-002     0.0000000000000000     
  -2.7099999999999999E-002     0.0000000000000000     
  -2.7049999999999998E-002     0.0000000000000000     
  -2.7000000000000000E-002     0.0000000000000000     
  -2.6950000000000002E-002     0.0000000000000000     
  -2.6900000000000000E-002     0.0000000000000000     
  -2.6849999999999999E-002     0.0000000000000000     
  -2.6800000000000001E-002     0.0000000000000000     
  -2.6749999999999999E-002     0.0000000000000000     
  -2.6700000000000002E-002     0.0000000000000000     
  -2.6650000000000000E-002     0.0000000000000000     
  -2.6599999999999999E-002     0.0000000000000000     
  -2.6550000000000001E-002     0.0000000000000000     
  -2.6500000000000003E-002     0.0000000000000000     
  -2.6450000000000001E-002     0.0000000000000000     
  -2.6400000000000000E-002     0.0000000000000000     
  -2.6349999999999998E-002     0.0000000000000000     
  -2.6300000000000000E-002     0.0000000000000000     
  -2.6250000000000002E-002     0.0000000000000000     
  -2.6200000000000001E-002     0.0000000000000000     
  -2.6150000000000000E-002    -1.1836001674571896E-038
  -2.6099999999999998E-002    -2.8482514668131993E-038
  -2.6050000000000000E-002    -4.0336208241826979E-038
  -2.6000000000000002E-002    -1.7802225072759786E-038
  -2.5950000000000001E-002     4.0390922762777579E-038
  -2.5899999999999999E-002     1.2500996001702633E-037
  -2.5849999999999998E-002     2.0458165352209029E-037
  -2.5800000000000000E-002     2.1432090119219318E-037
  -2.5750000000000002E-002     1.1709070211966855E-037
  -2.5700000000000001E-002    -9.9691862846906915E-038
  -2.5649999999999999E-002    -3.9144926413341886E-037
  -2.5599999999999998E-002    -6.5624500803960801E-037
  -2.5550000000000000E-002    -7.4432453303745956E-037
  -2.5500000000000002E-002    -5.3515376417886654E-037
  -2.5450000000000000E-002     4.5317370362344850E-038
  -2.5399999999999999E-002     8.9559493293814067E-037
  -2.5349999999999998E-002     1.7605306258233839E-036
  -2.5300000000000000E-002     2.2442199282208088E-036
  -2.5250000000000002E-002     1.9532712886541042E-036
  -2.5200000000000000E-002     6.7937029234365416E-037
  -2.5149999999999999E-002    -1.4582063445655005E-036
  -2.5100000000000001E-002    -3.8874751182508400E-036
  -2.5049999999999999E-002    -5.6909481187624591E-036
  -2.5000000000000001E-002    -5.8648213624115341E-036
  -2.4950000000000000E-002    -3.7191361664502375E-036
  -2.4899999999999999E-002     7.1438150829192832E-037
  -2.4850000000000001E-002     6.4607269540931254E-036
  -2.4800000000000003E-002     1.1714828260489415E-035
  -2.4750000000000001E-002     1.4342696693007027E-035
  -2.4700000000000000E-002     1.2614187478723066E-035
  -2.4649999999999998E-002     5.9517550715514866E-036
  -2.4600000000000000E-002    -4.6472259282652159E-036
  -2.4550000000000002E-002    -1.6714623170993322E-035
  -2.4500000000000001E-002    -2.6935949719047618E-035
  -2.4450000000000000E-002    -3.2046982917873861E-035
  -2.4399999999999998E-002    -2.9631160399801294E-035
  -2.4350000000000000E-002    -1.8533222532214675E-035
  -2.4299999999999999E-002     1.1031886462154819E-036
  -2.4250000000000001E-002     2.7831178103085996E-035
  -2.4199999999999999E-002     5.8465327040133900E-035
  -2.4150000000000001E-002     8.7050972542605774E-035
  -2.4100000000000000E-002     1.0378422058569158E-034
  -2.4049999999999998E-002     9.5225369665671253E-035
  -2.4000000000000000E-002     4.7434545291046766E-035
  -2.3949999999999999E-002    -4.7135594985019934E-035
  -2.3900000000000001E-002    -1.8020124079269110E-034
  -2.3850000000000000E-002    -3.1958403801664188E-034
  -2.3800000000000002E-002    -4.0845296986546189E-034
  -2.3750000000000000E-002    -3.7740480732672382E-034
  -2.3699999999999999E-002    -1.7095893370410263E-034
  -2.3650000000000001E-002     2.1713234176319842E-034
  -2.3599999999999999E-002     7.1332610924203719E-034
  -2.3550000000000001E-002     1.1567558237833634E-033
  -2.3500000000000000E-002     1.3302452760279789E-033
  -2.3449999999999999E-002     1.0331799700640807E-033
  -2.3400000000000001E-002     1.8007593356801298E-034
  -2.3349999999999999E-002    -1.1110297841302331E-033
  -2.3300000000000001E-002    -2.4861936907792100E-033
  -2.3250000000000000E-002    -3.4163208115984816E-033
  -2.3199999999999998E-002    -3.3581811957971704E-033
  -2.3150000000000000E-002    -1.9786563127714535E-033
  -2.3099999999999999E-002     6.3631299857160076E-034
  -2.3050000000000001E-002     3.8844731108562128E-033
  -2.3000000000000000E-002     6.7364147745879895E-033
  -2.2950000000000002E-002     8.0235958476401315E-033
  -2.2900000000000000E-002     6.8534486892009330E-033
  -2.2849999999999999E-002     3.0080875094695875E-033
  -2.2800000000000001E-002    -2.8389877776672902E-033
  -2.2749999999999999E-002    -9.2050799288936384E-033
  -2.2700000000000001E-002    -1.4186053939814430E-032
  -2.2650000000000000E-002    -1.6027332364698838E-032
  -2.2599999999999999E-002    -1.3668995215793408E-032
  -2.2550000000000001E-002    -7.0616941252721681E-033
  -2.2499999999999999E-002     2.8418660981295112E-033
  -2.2450000000000001E-002     1.4351767934151361E-032
  -2.2400000000000000E-002     2.5365373684813056E-032
  -2.2349999999999998E-002     3.3550911150908376E-032
  -2.2300000000000000E-002     3.6344167889633816E-032
  -2.2249999999999999E-002     3.0962319136186879E-032
  -2.2200000000000001E-002     1.4830045545345243E-032
  -2.2150000000000000E-002    -1.3234817421069445E-032
  -2.2100000000000002E-002    -5.1114615154613244E-032
  -2.2050000000000000E-002    -9.1444312109839129E-032
  -2.1999999999999999E-002    -1.2090680372372691E-031
  -2.1950000000000001E-002    -1.2220086157815048E-031
  -2.1899999999999999E-002    -7.9453587900767780E-032
  -2.1850000000000001E-002     1.3648900445003926E-032
  -2.1800000000000000E-002     1.4564235234714394E-031
  -2.1749999999999999E-002     2.8305250908233907E-031
  -2.1700000000000001E-002     3.7422138299866035E-031
  -2.1649999999999999E-002     3.6316942862374052E-031
  -2.1600000000000001E-002     2.1148944022626177E-031
  -2.1550000000000000E-002    -7.8355870141211824E-032
  -2.1499999999999998E-002    -4.4818659631822144E-031
  -2.1450000000000000E-002    -7.8732563633894157E-031
  -2.1399999999999999E-002    -9.5872960369357098E-031
  -2.1350000000000001E-002    -8.4435213669934333E-031
  -2.1299999999999999E-002    -3.9660644947674761E-031
  -2.1250000000000002E-002     3.2350438756521677E-031
  -2.1200000000000000E-002     1.1404508643131864E-030
  -2.1149999999999999E-002     1.8003878232058784E-030
  -2.1100000000000001E-002     2.0443089591344772E-030
  -2.1049999999999999E-002     1.6969816737643146E-030
  -2.1000000000000001E-002     7.4071713315138342E-031
  -2.0950000000000000E-002    -6.5514306991618665E-031
  -2.0899999999999998E-002    -2.1637803338780126E-030
  -2.0850000000000000E-002    -3.3823006520094954E-030
  -2.0799999999999999E-002    -3.9376077306078467E-030
  -2.0750000000000001E-002    -3.5808079642965107E-030
  -2.0700000000000000E-002    -2.2423375947432232E-030
  -2.0649999999999998E-002    -4.1591606708856037E-032
  -2.0600000000000000E-002     2.7316591531820664E-030
  -2.0549999999999999E-002     5.6361947344179448E-030
  -2.0500000000000001E-002     8.0831103719177795E-030
  -2.0449999999999999E-002     9.3416745686639306E-030
  -2.0400000000000001E-002     8.6000992831576882E-030
  -2.0350000000000000E-002     5.1453277263753789E-030
  -2.0299999999999999E-002    -1.3098676420768158E-030
  -2.0250000000000001E-002    -1.0209913407483356E-029
  -2.0199999999999999E-002    -1.9814866363234529E-029
  -2.0150000000000001E-002    -2.7174448688104008E-029
  -2.0100000000000000E-002    -2.8637985041996477E-029
  -2.0049999999999998E-002    -2.0968519933689420E-029
  -2.0000000000000000E-002    -2.8635616905349995E-030
  -1.9949999999999999E-002     2.3608628949959432E-029
  -1.9900000000000001E-002     5.2334205489777486E-029
  -1.9850000000000000E-002     7.3861512934232368E-029
  -1.9799999999999998E-002     7.7749090024770919E-029
  -1.9750000000000000E-002     5.6197527901577616E-029
  -1.9699999999999999E-002     7.9383449113401663E-030
  -1.9650000000000001E-002    -5.9094271939891330E-029
  -1.9599999999999999E-002    -1.2774335782789344E-028
  -1.9550000000000001E-002    -1.7504865292919088E-028
  -1.9500000000000000E-002    -1.7875349484556141E-028
  -1.9449999999999999E-002    -1.2526633774253974E-028
  -1.9400000000000001E-002    -1.6516585582977389E-029
  -1.9349999999999999E-002     1.2698284389635303E-028
  -1.9300000000000001E-002     2.6868547518594837E-028
  -1.9250000000000000E-002     3.6430783141839348E-028
  -1.9199999999999998E-002     3.7404511363021318E-028
  -1.9150000000000000E-002     2.7535673995500943E-028
  -1.9099999999999999E-002     7.2491066148792337E-029
  -1.9050000000000001E-002    -2.0029787883730359E-028
  -1.9000000000000000E-002    -4.8312972182464251E-028
  -1.8949999999999998E-002    -7.0170586726555103E-028
  -1.8900000000000000E-002    -7.8299806111069523E-028
  -1.8849999999999999E-002    -6.7242968058664285E-028
  -1.8800000000000001E-002    -3.4979145563168062E-028
  -1.8749999999999999E-002     1.5836023818058281E-028
  -1.8700000000000001E-002     7.7200526606904063E-028
  -1.8650000000000000E-002     1.3595338727730250E-027
  -1.8599999999999998E-002     1.7519834341022507E-027
  -1.8550000000000001E-002     1.7732363935793317E-027
  -1.8499999999999999E-002     1.2868896373129543E-027
  -1.8450000000000001E-002     2.5414758183595338E-028
  -1.8400000000000000E-002    -1.2116675688921305E-027
  -1.8349999999999998E-002    -2.8162716363943836E-027
  -1.8300000000000000E-002    -4.1057228201791760E-027
  -1.8249999999999999E-002    -4.5544763987749935E-027
  -1.8200000000000001E-002    -3.7173610541552714E-027
  -1.8149999999999999E-002    -1.4151766995515563E-027
  -1.8100000000000002E-002     2.1030362852466000E-027
  -1.8050000000000000E-002     6.0917533189296434E-027
  -1.7999999999999999E-002     9.3953534213374518E-027
  -1.7950000000000001E-002     1.0711398482947050E-026
  -1.7899999999999999E-002     8.9927767699552276E-027
  -1.7850000000000001E-002     3.8859035307508436E-027
  -1.7800000000000000E-002    -3.9424663073840173E-027
  -1.7749999999999998E-002    -1.2738444273122810E-026
  -1.7700000000000000E-002    -1.9948627398077869E-026
  -1.7649999999999999E-002    -2.2853659635841397E-026
  -1.7600000000000001E-002    -1.9415262855251405E-026
  -1.7550000000000000E-002    -9.1002049987560566E-027
  -1.7499999999999998E-002     6.5974562945538364E-027
  -1.7450000000000000E-002     2.4168598669185822E-026
  -1.7399999999999999E-002     3.8735898176557359E-026
  -1.7350000000000001E-002     4.5249246884061537E-026
  -1.7299999999999999E-002     3.9958720427265383E-026
  -1.7250000000000001E-002     2.1771210550812213E-026
  -1.7200000000000000E-002    -6.9201098736046697E-027
  -1.7149999999999999E-002    -4.0243894832510261E-026
  -1.7100000000000001E-002    -6.9812554382048584E-026
  -1.7049999999999999E-002    -8.6519044516928522E-026
  -1.7000000000000001E-002    -8.2832266555513920E-026
  -1.6950000000000000E-002    -5.5104397970296940E-026
  -1.6899999999999998E-002    -5.3446788992181404E-027
  -1.6850000000000000E-002     5.8049108535284987E-026
  -1.6799999999999999E-002     1.2098476950548749E-025
  -1.6750000000000001E-002     1.6596824811139012E-025
  -1.6700000000000000E-002     1.7586912904187871E-025
  -1.6649999999999998E-002     1.3865259603092176E-025
  -1.6600000000000000E-002     5.2148310782917795E-026
  -1.6549999999999999E-002    -7.2441046208646793E-026
  -1.6500000000000001E-002    -2.0974050190481200E-025
  -1.6449999999999999E-002    -3.2331716304056812E-025
  -1.6400000000000001E-002    -3.7314838799432321E-025
  -1.6350000000000000E-002    -3.2663004297766891E-025
  -1.6299999999999999E-002    -1.7081767289937399E-025
  -1.6250000000000001E-002     7.7667941562892313E-026
  -1.6199999999999999E-002     3.6909964802839458E-025
  -1.6150000000000001E-002     6.2666920483645570E-025
  -1.6100000000000000E-002     7.6302382437022486E-025
  -1.6049999999999998E-002     7.0493640353359137E-025
  -1.6000000000000000E-002     4.2023409384509082E-025
  -1.5949999999999999E-002    -6.1321655248419662E-026
  -1.5900000000000001E-002    -6.4169883988546032E-025
  -1.5850000000000000E-002    -1.1685686109128794E-024
  -1.5799999999999998E-002    -1.4699596152882784E-024
  -1.5750000000000000E-002    -1.4031711175297932E-024
  -1.5699999999999999E-002    -9.0539459006766783E-025
  -1.5650000000000001E-002    -3.0283566200423314E-026
  -1.5599999999999999E-002     1.0439173694576443E-024
  -1.5550000000000001E-002     2.0427582737237233E-024
  -1.5500000000000000E-002     2.6585341515741214E-024
  -1.5449999999999998E-002     2.6348312104595385E-024
  -1.5400000000000000E-002     1.8510414017263417E-024
  -1.5349999999999999E-002     3.8195356093119027E-025
  -1.5300000000000001E-002    -1.4887282548786396E-024
  -1.5250000000000000E-002    -3.3117321845944992E-024
  -1.5199999999999998E-002    -4.5686749069697026E-024
  -1.5150000000000000E-002    -4.8028802581970332E-024
  -1.5099999999999999E-002    -3.7543963935778925E-024
  -1.5050000000000001E-002    -1.4643395351065599E-024
  -1.4999999999999999E-002     1.6828250867969276E-024
  -1.4949999999999998E-002     4.9992039567756665E-024
  -1.4900000000000000E-002     7.6187337950953092E-024
  -1.4849999999999999E-002     8.6911810683733493E-024
  -1.4800000000000001E-002     7.6093553022424295E-024
  -1.4749999999999999E-002     4.2194591387392913E-024
  -1.4700000000000001E-002    -1.0419530952847291E-024
  -1.4650000000000000E-002    -7.1360192493356411E-024
  -1.4599999999999998E-002    -1.2567576486907883E-023
  -1.4550000000000000E-002    -1.5689506700262169E-023
  -1.4499999999999999E-002    -1.5123064006047962E-023
  -1.4450000000000001E-002    -1.0207202473822683E-023
  -1.4400000000000000E-002    -1.3564529814469413E-024
  -1.4349999999999998E-002     9.8010830413231100E-024
  -1.4300000000000000E-002     2.0604741505379600E-023
  -1.4249999999999999E-002     2.7890952123838998E-023
  -1.4200000000000001E-002     2.8801503429016042E-023
  -1.4149999999999999E-002     2.1694591962756865E-023
  -1.4099999999999998E-002     6.9049286022890962E-024
  -1.4050000000000000E-002    -1.2916969849153478E-023
  -1.3999999999999999E-002    -3.3088545669838941E-023
  -1.3950000000000001E-002    -4.7854328950767622E-023
  -1.3899999999999999E-002    -5.1871289326155451E-023
  -1.3850000000000001E-002    -4.1873748743858564E-023
  -1.3800000000000000E-002    -1.8043851149319684E-023
  -1.3749999999999998E-002     1.5387339615643577E-023
  -1.3700000000000000E-002     5.0633036669443132E-023
  -1.3649999999999999E-002     7.7984331684778909E-023
  -1.3600000000000001E-002     8.8289953578556174E-023
  -1.3550000000000000E-002     7.5684926094736230E-023
  -1.3499999999999998E-002     3.9805630916045316E-023
  -1.3450000000000000E-002    -1.3229353496080480E-023
  -1.3399999999999999E-002    -7.1531557480352342E-023
  -1.3350000000000001E-002    -1.1987880678117390E-022
  -1.3299999999999999E-002    -1.4342169939149863E-022
  -1.3249999999999998E-002    -1.3179947928695398E-022
  -1.3200000000000000E-002    -8.2597213593638705E-023
  -1.3149999999999998E-002    -3.1375478866542190E-024
  -1.3100000000000001E-002     9.0066377025509788E-023
  -1.3049999999999999E-002     1.7433756286965157E-022
  -1.3000000000000001E-002     2.2587086934880484E-022
  -1.2950000000000000E-002     2.2575941273234486E-022
  -1.2899999999999998E-002     1.6563668127880005E-022
  -1.2850000000000000E-002     5.1483076434477144E-023
  -1.2799999999999999E-002    -9.5610556939637597E-023