  -4.0000000000000001E-002     0.0000000000000000     
  -3.9949999999999999E-002     0.0000000000000000     
  -3.9899999999999998E-002     0.0000000000000000     
  -3.9850000000000003E-002     0.0000000000000000     
  -3.9800000000000002E-002     0.0000000000000000     
  -3.9750000000000001E-002     0.0000000000000000     
  -3.9699999999999999E-002     0.0000000000000000     
  -3.9649999999999998E-002     0.0000000000000000     
  -3.9600000000000003E-002     0.0000000000000000     
  -3.9550000000000002E-002     0.0000000000000000     
  -3.9500000000000000E-002     0.0000000000000000     
  -3.9449999999999999E-002     0.0000000000000000     
  -3.9399999999999998E-002     0.0000000000000000     
  -3.9350000000000003E-002     0.0000000000000000     
  -3.9300000000000002E-002     0.0000000000000000     
  -3.9250000000000000E-002     0.0000000000000000     
  -3.9199999999999999E-002     0.0000000000000000     
  -3.9150000000000004E-002     0.0000000000000000     
  -3.9100000000000003E-002     0.0000000000000000     
  -3.9050000000000001E-002     0.0000000000000000     
  -3.9000000000000000E-002     0.0000000000000000     
  -3.8949999999999999E-002     0.0000000000000000     
  -3.8900000000000004E-002     0.0000000000000000     
  -3.8850000000000003E-002     0.0000000000000000     
  -3.8800000000000001E-002     0.0000000000000000     
  -3.8750000000000000E-002     0.0000000000000000     
  -3.8699999999999998E-002     0.0000000000000000     
  -3.8650000000000004E-002     0.0000000000000000     
  -3.8600000000000002E-002     0.0000000000000000     
  -3.8550000000000001E-002     0.0000000000000000     
  -3.8500000000000000E-002     0.0000000000000000     
  -3.8449999999999998E-002     0.0000000000000000     
  -3.8400000000000004E-002     0.0000000000000000     
  -3.8350000000000002E-002     0.0000000000000000     
  -3.8300000000000001E-002     0.0000000000000000     
  -3.8249999999999999E-002     0.0000000000000000     
  -3.8199999999999998E-002     0.0000000000000000     
  -3.8150000000000003E-002     0.0000000000000000     
  -3.8100000000000002E-002     0.0000000000000000     
  -3.8050000000000000E-002     0.0000000000000000     
  -3.7999999999999999E-002     0.0000000000000000     
  -3.7949999999999998E-002     0.0000000000000000     
  -3.7900000000000003E-002     0.0000000000000000     
  -3.7850000000000002E-002     0.0000000000000000     
  -3.7800000000000000E-002     0.0000000000000000     
  -3.7749999999999999E-002     0.0000000000000000     
  -3.7699999999999997E-002     0.0000000000000000     
  -3.7650000000000003E-002     0.0000000000000000     
  -3.7600000000000001E-002     0.0000000000000000     
  -3.7550000000000000E-002     0.0000000000000000     
  -3.7499999999999999E-002     0.0000000000000000     
  -3.7449999999999997E-002     0.0000000000000000     
  -3.7400000000000003E-002     0.0000000000000000     
  -3.7350000000000001E-002     0.0000000000000000     
  -3.7300000000000000E-002     0.0000000000000000     
  -3.7249999999999998E-002     0.0000000000000000     
  -3.7200000000000004E-002     0.0000000000000000     
  -3.7150000000000002E-002     0.0000000000000000     
  -3.7100000000000001E-002     0.0000000000000000     
  -3.7050000000000000E-002     0.0000000000000000     
  -3.6999999999999998E-002     0.0000000000000000     
  -3.6950000000000004E-002     0.0000000000000000     
  -3.6900000000000002E-002     0.0000000000000000     
  -3.6850000000000001E-002     0.0000000000000000     
  -3.6799999999999999E-002     0.0000000000000000     
  -3.6749999999999998E-002     0.0000000000000000     
  -3.6700000000000003E-002     0.0000000000000000     
  -3.6650000000000002E-002     0.0000000000000000     
  -3.6600000000000001E-002     0.0000000000000000     
  -3.6549999999999999E-002     0.0000000000000000     
  -3.6499999999999998E-002     0.0000000000000000     
  -3.6450000000000003E-002     0.0000000000000000     
  -3.6400000000000002E-002     0.0000000000000000     
  -3.6350000000000000E-002     0.0000000000000000     
  -3.6299999999999999E-002     0.0000000000000000     
  -3.6249999999999998E-002     0.0000000000000000     
  -3.6200000000000003E-002     0.0000000000000000     
  -3.6150000000000002E-002     0.0000000000000000     
  -3.6100000000000000E-002     0.0000000000000000     
  -3.6049999999999999E-002     0.0000000000000000     
  -3.6000000000000004E-002     0.0000000000000000     
  -3.5950000000000003E-002     0.0000000000000000     
  -3.5900000000000001E-002     0.0000000000000000     
  -3.5850000000000000E-002     0.0000000000000000     
  -3.5799999999999998E-002     0.0000000000000000     
  -3.5750000000000004E-002     1.9332306837869669E-039
  -3.5700000000000003E-002     4.1757933348834588E-039
  -3.5650000000000001E-002     6.6095491498769289E-039
  -3.5600000000000000E-002     6.8699256304717519E-039
  -3.5549999999999998E-002     1.6897540357976251E-039
  -3.5500000000000004E-002    -1.7425231185469279E-038
  -3.5450000000000002E-002    -4.6380423169696327E-038
  -3.5400000000000001E-002    -6.5868912565503502E-038
  -3.5349999999999999E-002    -3.1802456190509688E-038
  -3.5299999999999998E-002     3.4756005249103492E-038
  -3.5250000000000004E-002     1.5183216498889068E-037
  -3.5200000000000002E-002     2.7461107440967679E-037
  -3.5150000000000001E-002     2.7551577934670979E-037
  -3.5099999999999999E-002     5.9977401856917960E-038
  -3.5049999999999998E-002    -3.9141486983958556E-037
  -3.5000000000000003E-002    -8.6479219026633633E-037
  -3.4950000000000002E-002    -9.2157419616206757E-037
  -3.4900000000000000E-002    -1.4401351894626945E-037
  -3.4849999999999999E-002     1.4549899470118692E-036
  -3.4799999999999998E-002     3.0411481857330984E-036
  -3.4750000000000003E-002     3.0005840157349645E-036
  -3.4700000000000002E-002    -2.2612272942693567E-037
  -3.4650000000000000E-002    -6.5939340940242891E-036
  -3.4599999999999999E-002    -1.3026845123451261E-035
  -3.4549999999999997E-002    -1.3588771540630430E-035
  -3.4500000000000003E-002    -2.5002672764517764E-036
  -3.4450000000000001E-002     2.0424890168767852E-035
  -3.4400000000000000E-002     4.5052818988867989E-035
  -3.4349999999999999E-002     5.2007947105961142E-035
  -3.4299999999999997E-002     2.3328423091940762E-035
  -3.4250000000000003E-002    -3.9677098480646609E-035
  -3.4200000000000001E-002    -1.0281649026940825E-034
  -3.4150000000000000E-002    -1.0677695444225536E-034
  -3.4099999999999998E-002    -7.2345582862606219E-036
  -3.4049999999999997E-002     1.6404216749070149E-034
  -3.4000000000000002E-002     2.5958803594639589E-034
  -3.3950000000000001E-002     5.8677769246578967E-035
  -3.3900000000000000E-002    -5.7111203687565070E-034
  -3.3849999999999998E-002    -1.4355392299609452E-033
  -3.3799999999999997E-002    -1.8523524493365300E-033
  -3.3750000000000002E-002    -7.9225175139719367E-034
  -3.3700000000000001E-002     2.5176793735302840E-033
  -3.3649999999999999E-002     7.6276790058944578E-033
  -3.3599999999999998E-002     1.2031641693088604E-032
  -3.3550000000000003E-002     1.1277341013420041E-032
  -3.3500000000000002E-002     7.4958683016865313E-034
  -3.3450000000000001E-002    -2.0867828910234756E-032
  -3.3399999999999999E-002    -4.7734009348084887E-032
  -3.3349999999999998E-002    -6.5170716144879794E-032
  -3.3300000000000003E-002    -5.3063571975343618E-032
  -3.3250000000000002E-002     4.3067814541049833E-033
  -3.3200000000000000E-002     1.0426867839316310E-031
  -3.3149999999999999E-002     2.1433587198679021E-031
  -3.3099999999999997E-002     2.7282497083355391E-031
  -3.3050000000000003E-002     2.0894146854941233E-031
  -3.3000000000000002E-002    -1.8630941896804484E-032
  -3.2950000000000000E-002    -3.7845115672944011E-031
  -3.2899999999999999E-002    -7.4332894170596325E-031
  -3.2850000000000004E-002    -9.1347623071022712E-031
  -3.2800000000000003E-002    -6.9580059519233519E-031
  -3.2750000000000001E-002    -1.8267977806093058E-032
  -3.2700000000000000E-002     9.7504479670802193E-031
  -3.2649999999999998E-002     1.9163655402308437E-030
  -3.2600000000000004E-002     2.3366856188865760E-030
  -3.2550000000000003E-002     1.8933704787489882E-030
  -3.2500000000000001E-002     5.9521123300124892E-031
  -3.2450000000000000E-002    -1.1286142442681923E-030
  -3.2399999999999998E-002    -2.6240350798154414E-030
  -3.2350000000000004E-002    -3.4287526195119475E-030
  -3.2300000000000002E-002    -3.6661874640697424E-030
  -3.2250000000000001E-002    -4.0536579399544078E-030
  -3.2199999999999999E-002    -5.2709214107552321E-030
  -3.2149999999999998E-002    -6.8318923756801886E-030
  -3.2100000000000004E-002    -6.1559766324764514E-030
  -3.2050000000000002E-002     1.0952722665287097E-030
  -3.2000000000000001E-002     1.8591444848610265E-029
  -3.1949999999999999E-002     4.5082583116069079E-029
  -3.1899999999999998E-002     7.0282531733765943E-029
  -3.1850000000000003E-002     7.4270116881894502E-029
  -3.1800000000000002E-002     3.3707078437598014E-029
  -3.1750000000000000E-002    -6.4382630997413411E-029
  -3.1699999999999999E-002    -2.0536324830640467E-028
  -3.1649999999999998E-002    -3.3557547863901745E-028
  -3.1600000000000003E-002    -3.6834711149908599E-028
  -3.1550000000000002E-002    -2.1503146490395389E-028
  -3.1500000000000000E-002     1.6263765535120647E-028
  -3.1449999999999999E-002     6.9814730514907679E-028
  -3.1399999999999997E-002     1.1953318186054909E-027
  -3.1350000000000003E-002     1.3642209084581103E-027
  -3.1300000000000001E-002     9.2945934422862739E-028
  -3.1250000000000000E-002    -2.1293123251673923E-028
  -3.1199999999999999E-002    -1.8539907279249952E-027
  -3.1150000000000001E-002    -3.4299526936217786E-027
  -3.1100000000000003E-002    -4.1469108983202042E-027
  -3.1050000000000001E-002    -3.2765224654486304E-027
  -3.1000000000000000E-002    -5.3763156359083603E-028
  -3.0949999999999998E-002     3.5981841866838703E-027
  -3.0900000000000000E-002     7.8559215707659038E-027
  -3.0850000000000002E-002     1.0467211409068896E-026
  -3.0800000000000001E-002     9.7961290453047396E-027
  -3.0750000000000000E-002     5.0669714326478114E-027
  -3.0699999999999998E-002    -3.1184394694601579E-027
  -3.0650000000000000E-002    -1.2742618494704710E-026
  -3.0600000000000002E-002    -2.0888423420911459E-026
  -3.0550000000000001E-002    -2.4621028981148267E-026
  -3.0499999999999999E-002    -2.1858945865568435E-026
  -3.0449999999999998E-002    -1.1875460818277866E-026
  -3.0400000000000000E-002     4.6738531124781019E-027
  -3.0350000000000002E-002     2.5941937777941902E-026
  -3.0300000000000001E-002     4.8832487634986492E-026
  -3.0249999999999999E-002     6.8407322431274147E-026
  -3.0200000000000001E-002     7.7089986500533400E-026
  -3.0150000000000000E-002     6.4768896897954159E-026
  -3.0100000000000002E-002     2.1263458761680679E-026
  -3.0050000000000000E-002    -5.8021320433389713E-026
  -2.9999999999999999E-002    -1.6425814378504331E-025
  -2.9950000000000001E-002    -2.6866807564115559E-025
  -2.9899999999999999E-002    -3.2260685942483673E-025
  -2.9850000000000002E-002    -2.6910704472200523E-025
  -2.9800000000000000E-002    -6.6901007237687095E-026
  -2.9749999999999999E-002     2.7875110813147200E-025
  -2.9700000000000001E-002     6.9126084780085268E-025
  -2.9650000000000003E-002     1.0204870646242600E-024
  -2.9600000000000001E-002     1.0761288788749439E-024
  -2.9550000000000000E-002     6.9760699575023382E-025
  -2.9499999999999998E-002    -1.5689753857894600E-025
  -2.9450000000000000E-002    -1.3368333143673048E-024
  -2.9400000000000003E-002    -2.4827510592406603E-024
  -2.9350000000000001E-002    -3.0979002055348434E-024
  -2.9300000000000000E-002    -2.7094144905588613E-024
  -2.9249999999999998E-002    -1.0797462275035350E-024
  -2.9200000000000000E-002     1.6072752879029981E-024
  -2.9150000000000002E-002     4.6747360764992910E-024
  -2.9100000000000001E-002     7.0617531345232180E-024
  -2.9049999999999999E-002     7.6218304673771595E-024
  -2.8999999999999998E-002     5.5420733794802328E-024
  -2.8950000000000000E-002     7.4842991672694583E-025
  -2.8900000000000002E-002    -5.8632298522918878E-024
  -2.8850000000000001E-002    -1.2496084740339412E-023
  -2.8799999999999999E-002    -1.6857799551702012E-023
  -2.8749999999999998E-002    -1.6822394317653034E-023
  -2.8700000000000000E-002    -1.1168131231941917E-023
  -2.8650000000000002E-002    -1.6589658603009553E-025
  -2.8600000000000000E-002     1.4179330189093317E-023
  -2.8549999999999999E-002     2.8341860944481367E-023
  -2.8500000000000001E-002     3.7936736348213226E-023
  -2.8450000000000000E-002     3.8722423588497456E-023
  -2.8400000000000002E-002     2.7776096631048193E-023
  -2.8350000000000000E-002     4.6419050521633292E-024
  -2.8299999999999999E-002    -2.7774802971726827E-023
  -2.8250000000000001E-002    -6.2840936429803819E-023
  -2.8200000000000003E-002    -9.0679946445853563E-023
  -2.8150000000000001E-002    -9.9814270947684520E-023
  -2.8100000000000000E-002    -8.0094047050795901E-023
  -2.8049999999999999E-002    -2.6626723603866778E-023
  -2.8000000000000001E-002     5.6185595894680231E-023
  -2.7950000000000003E-002     1.5200522344868727E-022
  -2.7900000000000001E-002     2.3310220412656747E-022
  -2.7850000000000000E-002     2.6548059080249083E-022
  -2.7799999999999998E-002     2.1873597387995121E-022
  -2.7750000000000000E-002     7.8846160929429113E-023
  -2.7700000000000002E-002    -1.3996987300020823E-022
  -2.7650000000000001E-002    -3.8947080315261355E-022
  -2.7600000000000000E-002    -5.9242808448216838E-022
  -2.7549999999999998E-002    -6.6062779236273948E-022
  -2.7500000000000000E-002    -5.2353305453569882E-022
  -2.7450000000000002E-002    -1.6021865558268342E-022
  -2.7400000000000001E-002     3.7658446136921295E-022
  -2.7349999999999999E-002     9.5598772900242901E-022
  -2.7299999999999998E-002     1.3916572914487421E-021
  -2.7250000000000000E-002     1.4912937014724294E-021
  -2.7200000000000002E-002     1.1222809497907873E-021
  -2.7150000000000001E-002     2.7415914338530775E-022
  -2.7099999999999999E-002    -9.0507529650155768E-022
  -2.7049999999999998E-002    -2.1178974595222896E-021
  -2.7000000000000000E-002    -2.9788357715948651E-021
  -2.6950000000000002E-002    -3.1195463205494826E-021
  -2.6900000000000000E-002    -2.3117368935611238E-021
  -2.6849999999999999E-002    -5.7163638449309483E-022
  -2.6800000000000001E-002     1.7906780501000059E-021
  -2.6749999999999999E-002     4.2024901003313903E-021
  -2.6700000000000002E-002     5.9449804534303135E-021
  -2.6650000000000000E-002     6.3354105298969826E-021
  -2.6599999999999999E-002     4.9338655903064444E-021
  -2.6550000000000001E-002     1.7211871566173062E-021
  -2.6500000000000003E-002    -2.8049170410857741E-021
  -2.6450000000000001E-002    -7.6553073722391197E-021
  -2.6400000000000000E-002    -1.1512473291712883E-020
  -2.6349999999999998E-002    -1.3017324522614153E-020
  -2.6300000000000000E-002    -1.1134110766533505E-020
  -2.6250000000000002E-002    -5.5192413281979634E-021
  -2.6200000000000001E-002     3.2004070625938432E-021
  -2.6150000000000000E-002     1.3339000611404359E-020
  -2.6099999999999998E-002     2.2334336082994208E-020
  -2.6050000000000000E-002     2.7235626052033914E-020
  -2.6000000000000002E-002     2.5454334806854411E-020
  -2.5950000000000001E-002     1.5641111136287559E-020
  -2.5899999999999999E-002    -1.5376168046254339E-021
  -2.5849999999999998E-002    -2.2999611406777288E-020
  -2.5800000000000000E-002    -4.3474770353463001E-020
  -2.5750000000000002E-002    -5.6491550009063616E-020
  -2.5700000000000001E-002    -5.6042552339103245E-020
  -2.5649999999999999E-002    -3.8595637791301336E-020
  -2.5599999999999998E-002    -4.8958235368906133E-021
  -2.5550000000000000E-002     3.9093598812222547E-020
  -2.5500000000000002E-002     8.2661267779618779E-020
  -2.5450000000000000E-002     1.1245925119749638E-019
  -2.5399999999999999E-002     1.1599890681464776E-019
  -2.5349999999999998E-002     8.5749061686264632E-020
  -2.5300000000000000E-002     2.2664317731404447E-020
  -2.5250000000000002E-002    -6.2116583722713613E-020
  -2.5200000000000000E-002    -1.4835204296133278E-019
  -2.5149999999999999E-002    -2.1082029572720156E-019
  -2.5100000000000001E-002    -2.2583616803939965E-019
  -2.5049999999999999E-002    -1.7863911060670712E-019
  -2.5000000000000001E-002    -6.9580372018754575E-020
  -2.4950000000000000E-002     8.2964547712125104E-020
  -2.4899999999999999E-002     2.4439994320117129E-019
  -2.4850000000000001E-002     3.7071754267615664E-019
  -2.4800000000000003E-002     4.1919385082999655E-019
  -2.4750000000000001E-002     3.6059717009146796E-019
  -2.4700000000000000E-002     1.8976443096397335E-019
  -2.4649999999999998E-002    -6.8585949007161012E-020
  -2.4600000000000000E-002    -3.6110500086006082E-019
  -2.4550000000000002E-002    -6.1490952248832330E-019
  -2.4500000000000001E-002    -7.5341398416582471E-019
  -2.4450000000000000E-002    -7.1594859494283617E-019
  -2.4399999999999998E-002    -4.7682511919134820E-019
  -2.4350000000000000E-002    -5.8941836025705192E-020
  -2.4299999999999999E-002     4.6252031989710272E-019
  -2.4250000000000001E-002     9.6919103273880529E-019
  -2.4199999999999999E-002     1.3217283463479555E-018
  -2.4150000000000001E-002     1.3923026123969544E-018
  -2.4100000000000000E-002     1.1012171397692221E-018
  -2.4049999999999998E-002     4.4897879012746727E-019
  -2.4000000000000000E-002    -4.6585217098771077E-019
  -2.3949999999999999E-002    -1.4513414659613991E-018
  -2.3900000000000001E-002    -2.2536284188195977E-018
  -2.3850000000000000E-002    -2.6129517318963186E-018
  -2.3800000000000002E-002    -2.3344628405203516E-018
  -2.3750000000000000E-002    -1.3572416921406888E-018
  -2.3699999999999999E-002     1.9874492194102391E-019
  -2.3650000000000001E-002     2.0265008622101451E-018
  -2.3599999999999999E-002     3.6778776541243084E-018
  -2.3550000000000001E-002     4.6598509868458047E-018
  -2.3500000000000000E-002     4.5642350207362587E-018
  -2.3449999999999999E-002     3.2002197356370494E-018
  -2.3400000000000001E-002     6.9183492711856568E-019
  -2.3349999999999999E-002    -2.4949150569182873E-018
  -2.3300000000000001E-002    -5.6167195820576388E-018
  -2.3250000000000000E-002    -7.8081026885507267E-018
  -2.3199999999999998E-002    -8.2991989056612986E-018
  -2.3150000000000000E-002    -6.6454634474000359E-018
  -2.3099999999999999E-002    -2.9067701540731227E-018
  -2.3050000000000001E-002     2.2823161310059276E-018
  -2.3000000000000000E-002     7.7877994709080583E-018
  -2.2950000000000002E-002     1.2198893477108856E-017
  -2.2900000000000000E-002     1.4159938464695737E-017
  -2.2849999999999999E-002     1.2738709049159114E-017
  -2.2800000000000001E-002     7.7388441320533011E-018
  -2.2749999999999999E-002    -1.3327324265714119E-019
  -2.2700000000000001E-002    -9.3107861033726216E-018
  -2.2650000000000000E-002    -1.7636158456043806E-017
  -2.2599999999999999E-002    -2.2821904872763324E-017
  -2.2550000000000001E-002    -2.3013615200960682E-017
  -2.2499999999999999E-002    -1.7329501400207935E-017
  -2.2450000000000001E-002    -6.2393784842790990E-018
  -2.2400000000000000E-002     8.3348087408642031E-018
  -2.2349999999999998E-002     2.3265134331890349E-017
  -2.2300000000000000E-002     3.4805809022255455E-017
  -2.2249999999999999E-002     3.9434860144387702E-017
  -2.2200000000000001E-002     3.4784150138307470E-017
  -2.2150000000000000E-002     2.0441084346842739E-017
  -2.2100000000000002E-002    -1.6028392280320559E-018
  -2.2050000000000000E-002    -2.7035512092080111E-017
  -2.1999999999999999E-002    -4.9918164733249166E-017
  -2.1950000000000001E-002    -6.3926128924236366E-017
  -2.1899999999999999E-002    -6.3917405272343169E-017
  -2.1850000000000001E-002    -4.7480074549212161E-017
  -2.1800000000000000E-002    -1.6045775279580791E-017
  -2.1749999999999999E-002     2.4807795758817044E-017
  -2.1700000000000001E-002     6.6096375764909896E-017
  -2.1649999999999999E-002     9.7202052223611052E-017
  -2.1600000000000001E-002     1.0838818842006844E-016
  -2.1550000000000000E-002     9.3508628269059772E-017
  -2.1499999999999998E-002     5.2214808577504752E-017
  -2.1450000000000000E-002    -9.0172253118377052E-018
  -2.1399999999999999E-002    -7.7507376233166527E-017
  -2.1350000000000001E-002    -1.3673191566939522E-016
  -2.1299999999999999E-002    -1.7005877044723648E-016
  -2.1250000000000002E-002    -1.6506466484619284E-016
  -2.1200000000000000E-002    -1.1737344740643532E-016
  -2.1149999999999999E-002    -3.2935367782035666E-017
  -2.1100000000000001E-002     7.2061302747696993E-017
  -2.1049999999999999E-002     1.7393404383697360E-016
  -2.1000000000000001E-002     2.4653535111944796E-016
  -2.0950000000000000E-002     2.6755940710787594E-016
  -2.0899999999999998E-002     2.2467464364501377E-016
  -2.0850000000000000E-002     1.1991065427189626E-016
  -2.0799999999999999E-002    -2.9007465200211433E-017
  -2.0750000000000001E-002    -1.9106526775837406E-016
  -2.0700000000000000E-002    -3.2794435523556724E-016
  -2.0649999999999998E-002    -4.0253532374168332E-016
  -2.0600000000000000E-002    -3.8819818073939125E-016
  -2.0549999999999999E-002    -2.7661453768496613E-016
  -2.0500000000000001E-002    -8.2170060361450053E-017
  -2.0449999999999999E-002     1.5860916967675614E-016
  -2.0400000000000001E-002     3.9304860030471035E-016
  -2.0350000000000000E-002     5.6300161494729737E-016
  -2.0299999999999999E-002     6.1826360005751768E-016
  -2.0250000000000001E-002     5.2986404850038879E-016
  -2.0199999999999999E-002     3.0001602100149010E-016
  -2.0150000000000001E-002    -3.4154969453052625E-017
  -2.0100000000000000E-002    -4.0489471292002041E-016
  -2.0049999999999998E-002    -7.2622422393806565E-016
  -2.0000000000000000E-002    -9.1259137901899117E-016
  -1.9949999999999999E-002    -9.0006334663111040E-016
  -1.9900000000000001E-002    -6.6515013705234958E-016
  -1.9850000000000000E-002    -2.3619775204979726E-016
  -1.9799999999999998E-002     3.0659724692946581E-016
  -1.9750000000000000E-002     8.4418732030300592E-016
  -1.9699999999999999E-002     1.2432298299441718E-015
  -1.9650000000000001E-002     1.3875555819679409E-015
  -1.9599999999999999E-002     1.2094676160074542E-015
  -1.9550000000000001E-002     7.1285391370485036E-016
  -1.9500000000000000E-002    -1.8851253464711483E-017
  -1.9449999999999999E-002    -8.3380159780813574E-016
  -1.9400000000000001E-002    -1.5414666049275376E-015
  -1.9349999999999999E-002    -1.9555897875205561E-015
  -1.9300000000000001E-002    -1.9409992818445863E-015
  -1.9250000000000000E-002    -1.4528425052769293E-015
  -1.9199999999999998E-002    -5.5755871959179975E-016
  -1.9150000000000000E-002     5.7157972718511292E-016
  -1.9099999999999999E-002     1.6858013713532850E-015
  -1.9050000000000001E-002     2.5138941462316173E-015
  -1.9000000000000000E-002     2.8259710735668001E-015
  -1.8949999999999998E-002     2.4933056322682846E-015
  -1.8900000000000000E-002     1.5293300689975691E-015
  -1.8849999999999999E-002     1.0020547283634320E-016
  -1.8800000000000001E-002    -1.5002315243925598E-015
  -1.8749999999999999E-002    -2.9082793470673553E-015
  -1.8700000000000001E-002    -3.7700847801080643E-015
  -1.8650000000000000E-002    -3.8264053887009321E-015
  -1.8599999999999998E-002    -2.9829753253128625E-015
  -1.8550000000000001E-002    -1.3487531432304508E-015
  -1.8499999999999999E-002     7.6982839821854896E-016
  -1.8450000000000001E-002     2.9214110958161343E-015
  -1.8400000000000000E-002     4.6013949974921121E-015
  -1.8349999999999998E-002     5.3653226913583977E-015
  -1.8300000000000000E-002     4.9397595531121980E-015
  -1.8249999999999999E-002     3.3044716001675023E-015
  -1.8200000000000001E-002     7.2353388409427353E-016
  -1.8149999999999999E-002    -2.2875653281319177E-015
  -1.8100000000000002E-002    -5.0581304341754628E-015
  -1.8050000000000000E-002    -6.9059052210594602E-015
  -1.7999999999999999E-002    -7.2990219971638909E-015
  -1.7950000000000001E-002    -5.9992230212291501E-015
  -1.7899999999999999E-002    -3.1495086944056332E-015
  -1.7850000000000001E-002     7.2132895417832921E-016
  -1.7800000000000000E-002     4.7874574449068264E-015
  -1.7749999999999998E-002     8.0962498760545703E-015
  -1.7700000000000000E-002     9.7865457278578234E-015
  -1.7649999999999999E-002     9.3059890195753591E-015
  -1.7600000000000001E-002     6.5735956182449771E-015
  -1.7550000000000000E-002     2.0421381016919110E-015
  -1.7499999999999998E-002    -3.3642715055386637E-015
  -1.7450000000000000E-002    -8.4329746760144438E-015
  -1.7399999999999999E-002    -1.1931107798918729E-014
  -1.7350000000000001E-002    -1.2900519687169769E-014
  -1.7299999999999999E-002    -1.0909243305346768E-014
  -1.7250000000000001E-002    -6.1950435503587478E-015
  -1.7200000000000000E-002     3.4132662660771922E-016
  -1.7149999999999999E-002     7.3017426063576443E-015
  -1.7100000000000001E-002     1.3085860404439114E-014
  -1.7049999999999999E-002     1.6253830592148841E-014
  -1.7000000000000001E-002     1.5874975180683788E-014
  -1.6950000000000000E-002     1.1779842438264201E-014
  -1.6899999999999998E-002     4.6511958270472292E-015
  -1.6850000000000000E-002    -4.0766629835644504E-015
  -1.6799999999999999E-002    -1.2498514010793220E-014
  -1.6750000000000001E-002    -1.8645467454187503E-014
  -1.6700000000000000E-002    -2.0933947077519488E-014
  -1.6649999999999998E-002    -1.8557038594023863E-014
  -1.6600000000000000E-002    -1.1725563012703603E-014
  -1.6549999999999999E-002    -1.6935552213499153E-015
  -1.6500000000000001E-002     9.4534614719646519E-015
  -1.6449999999999999E-002     1.9217367736449106E-014
  -1.6400000000000001E-002     2.5234129966060930E-014
  -1.6350000000000000E-002     2.5833041382258698E-014
  -1.6299999999999999E-002     2.0479985900831747E-014
  -1.6250000000000001E-002     9.9914465380398370E-015
  -1.6199999999999999E-002    -3.5511377570597750E-015
  -1.6150000000000001E-002    -1.7192959308706324E-014
  -1.6100000000000000E-002    -2.7737016009506113E-014
  -1.6049999999999998E-002    -3.2484545766739920E-014
  -1.6000000000000000E-002    -2.9915750928698260E-014
  -1.5949999999999999E-002    -2.0140603343746861E-014
  -1.5900000000000001E-002    -4.9914845124391189E-015
  -1.5850000000000000E-002     1.2293412722708174E-014
  -1.5799999999999998E-002     2.7749472868657078E-014
  -1.5750000000000000E-002     3.7587916555818675E-014
  -1.5699999999999999E-002     3.9115481157544902E-014
  -1.5650000000000001E-002     3.1448175788719076E-014
  -1.5599999999999999E-002     1.5832624032307175E-014
  -1.5550000000000001E-002    -4.5251848329109392E-015
  -1.5500000000000000E-002    -2.5108557910116558E-014
  -1.5449999999999998E-002    -4.1084031319588606E-014
  -1.5400000000000000E-002    -4.8419336716391255E-014
  -1.5349999999999999E-002    -4.4866201982425648E-014
  -1.5300000000000001E-002    -3.0572161294869313E-014
  -1.5250000000000000E-002    -8.1650842145816329E-015
  -1.5199999999999998E-002     1.7727549854982138E-014
  -1.5150000000000000E-002     4.1434493455992020E-014
  -1.5099999999999999E-002     5.7471687803660226E-014
  -1.5050000000000001E-002     6.1781921566375010E-014
  -1.4999999999999999E-002     5.2707489433761922E-014
  -1.4949999999999998E-002     3.1470887779098305E-014
  -1.4900000000000000E-002     2.0376833811741348E-015
  -1.4849999999999999E-002    -2.9634811551550183E-014
  -1.4800000000000001E-002    -5.6826361822100589E-014
  -1.4749999999999999E-002    -7.3512628940635573E-014
  -1.4700000000000001E-002    -7.5741442390076666E-014
  -1.4650000000000000E-002    -6.2612526841872343E-014
  -1.4599999999999998E-002    -3.6612548641874690E-014
  -1.4550000000000000E-002    -3.1856191119236326E-015
  -1.4499999999999999E-002     3.0413488843045120E-014
  -1.4450000000000001E-002     5.6762471543831109E-014
  -1.4400000000000000E-002     7.0052513289656961E-014
  -1.4349999999999998E-002     6.7581523602221449E-014
  -1.4300000000000000E-002     5.0568577147378481E-014
  -1.4249999999999999E-002     2.4032198292056017E-014
  -1.4200000000000001E-002    -4.3101274385628581E-015
  -1.4149999999999999E-002    -2.5918889959392662E-014
  -1.4099999999999998E-002    -3.3667715649362035E-014
  -1.4050000000000000E-002    -2.3894164572062334E-014
  -1.3999999999999999E-002     2.2722192759651127E-015
  -1.3950000000000001E-002     3.8695099937474784E-014
  -1.3899999999999999E-002     7.5266387703987542E-014
  -1.3850000000000001E-002     1.0002287104743009E-013
  -1.3800000000000000E-002     1.0190024086369425E-013
  -1.3749999999999998E-002     7.3507056356223414E-014
  -1.3700000000000000E-002     1.3273127468981748E-014
  -1.3649999999999999E-002    -7.3542066136047155E-014
  -1.3600000000000001E-002    -1.7524389837284385E-013
  -1.3550000000000000E-002    -2.7545103232063949E-013
  -1.3499999999999998E-002    -3.5585290787612511E-013
  -1.3450000000000000E-002    -3.9942190351231946E-013
  -1.3399999999999999E-002    -3.9344286777464736E-013
  -1.3350000000000001E-002    -3.3178058099257877E-013
  -1.3299999999999999E-002    -2.1598037184092683E-013
  -1.3249999999999998E-002    -5.5045077547382503E-014
  -1.3200000000000000E-002     1.3600235686354302E-013
  -1.3149999999999998E-002     3.3842546638661646E-013
  -1.3100000000000001E-002     5.3244819289878529E-013
  -1.3049999999999999E-002     6.9973899641098150E-013
  -1.3000000000000001E-002     8.2520178765076819E-013
  -1.2950000000000000E-002     8.9773656662831122E-013
  -1.2899999999999998E-002     9.0987925592309032E-013
  -1.2850000000000000E-002     8.5652018916440268E-013
  -1.2799999999999999E-002     7.3316990721487341E-013