  -4.0000000000000001E-002     0.0000000000000000     
  -3.9949999999999999E-002     0.0000000000000000     
  -3.9899999999999998E-002     0.0000000000000000     
  -3.9850000000000003E-002     0.0000000000000000     
  -3.9800000000000002E-002     0.0000000000000000     
  -3.9750000000000001E-002     0.0000000000000000     
  -3.9699999999999999E-002     0.0000000000000000     
  -3.9649999999999998E-002     0.0000000000000000     
  -3.9600000000000003E-002     0.0000000000000000     
  -3.9550000000000002E-002     0.0000000000000000     
  -3.9500000000000000E-002     0.0000000000000000     
  -3.9449999999999999E-002     0.0000000000000000     
  -3.9399999999999998E-002     0.0000000000000000     
  -3.9350000000000003E-002     0.0000000000000000     
  -3.9300000000000002E-002     0.0000000000000000     
  -3.9250000000000000E-002     0.0000000000000000     
  -3.9199999999999999E-002     0.0000000000000000     
  -3.9150000000000004E-002     0.0000000000000000     
  -3.9100000000000003E-002     0.0000000000000000     
  -3.9050000000000001E-002     0.0000000000000000     
  -3.9000000000000000E-002     0.0000000000000000     
  -3.8949999999999999E-002     0.0000000000000000     
  -3.8900000000000004E-002     0.0000000000000000     
  -3.8850000000000003E-002     0.0000000000000000     
  -3.8800000000000001E-002     0.0000000000000000     
  -3.8750000000000000E-002     0.0000000000000000     
  -3.8699999999999998E-002     0.0000000000000000     
  -3.8650000000000004E-002     0.0000000000000000     
  -3.8600000000000002E-002     0.0000000000000000     
  -3.8550000000000001E-002     0.0000000000000000     
  -3.8500000000000000E-002     0.0000000000000000     
  -3.8449999999999998E-002     0.0000000000000000     
  -3.8400000000000004E-002     0.0000000000000000     
  -3.8350000000000002E-002     0.0000000000000000     
  -3.8300000000000001E-002     0.0000000000000000     
  -3.8249999999999999E-002     0.0000000000000000     
  -3.8199999999999998E-002     0.0000000000000000     
  -3.8150000000000003E-002     0.0000000000000000     
  -3.8100000000000002E-002     0.0000000000000000     
  -3.8050000000000000E-002     0.0000000000000000     
  -3.7999999999999999E-002     0.0000000000000000     
  -3.7949999999999998E-002     0.0000000000000000     
  -3.7900000000000003E-002     0.0000000000000000     
  -3.7850000000000002E-002     0.0000000000000000     
  -3.7800000000000000E-002     0.0000000000000000     
  -3.7749999999999999E-002     0.0000000000000000     
  -3.7699999999999997E-002     0.0000000000000000     
  -3.7650000000000003E-002     0.0000000000000000     
  -3.7600000000000001E-002     0.0000000000000000     
  -3.7550000000000000E-002     0.0000000000000000     
  -3.7499999999999999E-002     0.0000000000000000     
  -3.7449999999999997E-002     0.0000000000000000     
  -3.7400000000000003E-002     0.0000000000000000     
  -3.7350000000000001E-002     0.0000000000000000     
  -3.7300000000000000E-002     0.0000000000000000     
  -3.7249999999999998E-002     0.0000000000000000     
  -3.7200000000000004E-002     0.0000000000000000     
  -3.7150000000000002E-002     0.0000000000000000     
  -3.7100000000000001E-002     0.0000000000000000     
  -3.7050000000000000E-002     0.0000000000000000     
  -3.6999999999999998E-002     0.0000000000000000     
  -3.6950000000000004E-002     0.0000000000000000     
  -3.6900000000000002E-002     0.0000000000000000     
  -3.6850000000000001E-002     0.0000000000000000     
  -3.6799999999999999E-002     0.0000000000000000     
  -3.6749999999999998E-002     0.0000000000000000     
  -3.6700000000000003E-002     0.0000000000000000     
  -3.6650000000000002E-002     0.0000000000000000     
  -3.6600000000000001E-002     0.0000000000000000     
  -3.6549999999999999E-002     0.0000000000000000     
  -3.6499999999999998E-002     0.0000000000000000     
  -3.6450000000000003E-002     0.0000000000000000     
  -3.6400000000000002E-002     0.0000000000000000     
  -3.6350000000000000E-002     0.0000000000000000     
  -3.6299999999999999E-002     0.0000000000000000     
  -3.6249999999999998E-002     0.0000000000000000     
  -3.6200000000000003E-002     0.0000000000000000     
  -3.6150000000000002E-002     0.0000000000000000     
  -3.6100000000000000E-002     0.0000000000000000     
  -3.6049999999999999E-002     0.0000000000000000     
  -3.6000000000000004E-002     0.0000000000000000     
  -3.5950000000000003E-002     0.0000000000000000     
  -3.5900000000000001E-002     0.0000000000000000     
  -3.5850000000000000E-002     0.0000000000000000     
  -3.5799999999999998E-002     0.0000000000000000     
  -3.5750000000000004E-002     0.0000000000000000     
  -3.5700000000000003E-002     0.0000000000000000     
  -3.5650000000000001E-002     0.0000000000000000     
  -3.5600000000000000E-002     0.0000000000000000     
  -3.5549999999999998E-002     0.0000000000000000     
  -3.5500000000000004E-002     0.0000000000000000     
  -3.5450000000000002E-002     0.0000000000000000     
  -3.5400000000000001E-002     0.0000000000000000     
  -3.5349999999999999E-002     0.0000000000000000     
  -3.5299999999999998E-002     0.0000000000000000     
  -3.5250000000000004E-002     0.0000000000000000     
  -3.5200000000000002E-002     0.0000000000000000     
  -3.5150000000000001E-002     0.0000000000000000     
  -3.5099999999999999E-002     0.0000000000000000     
  -3.5049999999999998E-002     0.0000000000000000     
  -3.5000000000000003E-002     0.0000000000000000     
  -3.4950000000000002E-002     0.0000000000000000     
  -3.4900000000000000E-002     0.0000000000000000     
  -3.4849999999999999E-002     0.0000000000000000     
  -3.4799999999999998E-002     0.0000000000000000     
  -3.4750000000000003E-002     0.0000000000000000     
  -3.4700000000000002E-002     0.0000000000000000     
  -3.4650000000000000E-002     0.0000000000000000     
  -3.4599999999999999E-002     0.0000000000000000     
  -3.4549999999999997E-002     0.0000000000000000     
  -3.4500000000000003E-002     0.0000000000000000     
  -3.4450000000000001E-002     0.0000000000000000     
  -3.4400000000000000E-002     0.0000000000000000     
  -3.4349999999999999E-002     0.0000000000000000     
  -3.4299999999999997E-002     0.0000000000000000     
  -3.4250000000000003E-002     0.0000000000000000     
  -3.4200000000000001E-002     0.0000000000000000     
  -3.4150000000000000E-002     0.0000000000000000     
  -3.4099999999999998E-002     0.0000000000000000     
  -3.4049999999999997E-002     0.0000000000000000     
  -3.4000000000000002E-002     0.0000000000000000     
  -3.3950000000000001E-002     0.0000000000000000     
  -3.3900000000000000E-002     0.0000000000000000     
  -3.3849999999999998E-002     0.0000000000000000     
  -3.3799999999999997E-002     0.0000000000000000     
  -3.3750000000000002E-002     0.0000000000000000     
  -3.3700000000000001E-002     0.0000000000000000     
  -3.3649999999999999E-002     0.0000000000000000     
  -3.3599999999999998E-002     0.0000000000000000     
  -3.3550000000000003E-002     0.0000000000000000     
  -3.3500000000000002E-002     0.0000000000000000     
  -3.3450000000000001E-002     0.0000000000000000     
  -3.3399999999999999E-002     0.0000000000000000     
  -3.3349999999999998E-002     0.0000000000000000     
  -3.3300000000000003E-002     0.0000000000000000     
  -3.3250000000000002E-002     0.0000000000000000     
  -3.3200000000000000E-002     0.0000000000000000     
  -3.3149999999999999E-002     0.0000000000000000     
  -3.3099999999999997E-002     0.0000000000000000     
  -3.3050000000000003E-002     0.0000000000000000     
  -3.3000000000000002E-002     0.0000000000000000     
  -3.2950000000000000E-002     0.0000000000000000     
  -3.2899999999999999E-002     0.0000000000000000     
  -3.2850000000000004E-002     0.0000000000000000     
  -3.2800000000000003E-002     0.0000000000000000     
  -3.2750000000000001E-002     0.0000000000000000     
  -3.2700000000000000E-002     0.0000000000000000     
  -3.2649999999999998E-002     0.0000000000000000     
  -3.2600000000000004E-002     0.0000000000000000     
  -3.2550000000000003E-002     0.0000000000000000     
  -3.2500000000000001E-002     0.0000000000000000     
  -3.2450000000000000E-002     0.0000000000000000     
  -3.2399999999999998E-002     0.0000000000000000     
  -3.2350000000000004E-002     0.0000000000000000     
  -3.2300000000000002E-002     0.0000000000000000     
  -3.2250000000000001E-002     0.0000000000000000     
  -3.2199999999999999E-002     0.0000000000000000     
  -3.2149999999999998E-002     0.0000000000000000     
  -3.2100000000000004E-002     0.0000000000000000     
  -3.2050000000000002E-002     0.0000000000000000     
  -3.2000000000000001E-002     0.0000000000000000     
  -3.1949999999999999E-002     0.0000000000000000     
  -3.1899999999999998E-002     0.0000000000000000     
  -3.1850000000000003E-002     0.0000000000000000     
  -3.1800000000000002E-002     0.0000000000000000     
  -3.1750000000000000E-002     0.0000000000000000     
  -3.1699999999999999E-002     0.0000000000000000     
  -3.1649999999999998E-002     0.0000000000000000     
  -3.1600000000000003E-002     0.0000000000000000     
  -3.1550000000000002E-002     0.0000000000000000     
  -3.1500000000000000E-002     0.0000000000000000     
  -3.1449999999999999E-002     0.0000000000000000     
  -3.1399999999999997E-002     0.0000000000000000     
  -3.1350000000000003E-002     0.0000000000000000     
  -3.1300000000000001E-002     0.0000000000000000     
  -3.1250000000000000E-002     0.0000000000000000     
  -3.1199999999999999E-002     0.0000000000000000     
  -3.1150000000000001E-002     0.0000000000000000     
  -3.1100000000000003E-002     0.0000000000000000     
  -3.1050000000000001E-002     0.0000000000000000     
  -3.1000000000000000E-002     0.0000000000000000     
  -3.0949999999999998E-002     0.0000000000000000     
  -3.0900000000000000E-002     0.0000000000000000     
  -3.0850000000000002E-002     0.0000000000000000     
  -3.0800000000000001E-002     0.0000000000000000     
  -3.0750000000000000E-002     0.0000000000000000     
  -3.0699999999999998E-002     0.0000000000000000     
  -3.0650000000000000E-002     0.0000000000000000     
  -3.0600000000000002E-002     0.0000000000000000     
  -3.0550000000000001E-002     0.0000000000000000     
  -3.0499999999999999E-002     0.0000000000000000     
  -3.0449999999999998E-002     0.0000000000000000     
  -3.0400000000000000E-002     0.0000000000000000     
  -3.0350000000000002E-002     0.0000000000000000     
  -3.0300000000000001E-002     0.0000000000000000     
  -3.0249999999999999E-002     0.0000000000000000     
  -3.0200000000000001E-002     0.0000000000000000     
  -3.0150000000000000E-002     0.0000000000000000     
  -3.0100000000000002E-002     0.0000000000000000     
  -3.0050000000000000E-002     0.0000000000000000     
  -2.9999999999999999E-002     0.0000000000000000     
  -2.9950000000000001E-002     0.0000000000000000     
  -2.9899999999999999E-002     0.0000000000000000     
  -2.9850000000000002E-002     0.0000000000000000     
  -2.9800000000000000E-002     0.0000000000000000     
  -2.9749999999999999E-002     0.0000000000000000     
  -2.9700000000000001E-002     0.0000000000000000     
  -2.9650000000000003E-002     0.0000000000000000     
  -2.9600000000000001E-002     0.0000000000000000     
  -2.9550000000000000E-002     0.0000000000000000     
  -2.9499999999999998E-002     0.0000000000000000     
  -2.9450000000000000E-002     0.0000000000000000     
  -2.9400000000000003E-002     0.0000000000000000     
  -2.9350000000000001E-002     0.0000000000000000     
  -2.9300000000000000E-002     0.0000000000000000     
  -2.9249999999999998E-002     0.0000000000000000     
  -2.9200000000000000E-002     0.0000000000000000     
  -2.9150000000000002E-002     0.0000000000000000     
  -2.9100000000000001E-002     0.0000000000000000     
  -2.9049999999999999E-002     0.0000000000000000     
  -2.8999999999999998E-002     0.0000000000000000     
  -2.8950000000000000E-002     0.0000000000000000     
  -2.8900000000000002E-002     0.0000000000000000     
  -2.8850000000000001E-002     0.0000000000000000     
  -2.8799999999999999E-002     0.0000000000000000     
  -2.8749999999999998E-002     0.0000000000000000     
  -2.8700000000000000E-002     0.0000000000000000     
  -2.8650000000000002E-002     0.0000000000000000     
  -2.8600000000000000E-002     0.0000000000000000     
  -2.8549999999999999E-002     0.0000000000000000     
  -2.8500000000000001E-002     0.0000000000000000     
  -2.8450000000000000E-002     0.0000000000000000     
  -2.8400000000000002E-002     0.0000000000000000     
  -2.8350000000000000E-002     0.0000000000000000     
  -2.8299999999999999E-002     0.0000000000000000     
  -2.8250000000000001E-002     0.0000000000000000     
  -2.8200000000000003E-002     0.0000000000000000     
  -2.8150000000000001E-002     0.0000000000000000     
  -2.8100000000000000E-002     0.0000000000000000     
  -2.8049999999999999E-002     0.0000000000000000     
  -2.8000000000000001E-002     0.0000000000000000     
  -2.7950000000000003E-002     0.0000000000000000     
  -2.7900000000000001E-002     0.0000000000000000     
  -2.7850000000000000E-002     0.0000000000000000     
  -2.7799999999999998E-002     0.0000000000000000     
  -2.7750000000000000E-002     0.0000000000000000     
  -2.7700000000000002E-002     0.0000000000000000     
  -2.7650000000000001E-002     0.0000000000000000     
  -2.7600000000000000E-002     0.0000000000000000     
  -2.7549999999999998E-002     0.0000000000000000     
  -2.7500000000000000E-002     0.0000000000000000     
  -2.7450000000000002E-002     0.0000000000000000     
  -2.7400000000000001E-002     0.0000000000000000     
  -2.7349999999999999E-002     0.0000000000000000     
  -2.7299999999999998E-002     0.0000000000000000     
  -2.7250000000000000E-002     0.0000000000000000     
  -2.7200000000000002E-002     0.0000000000000000     
  -2.7150000000000001E-002     0.0000000000000000     
  -2.7099999999999999E-002     0.0000000000000000     
  -2.7049999999999998E-002     0.0000000000000000     
  -2.7000000000000000E-002     0.0000000000000000     
  -2.6950000000000002E-002     0.0000000000000000     
  -2.6900000000000000E-002     0.0000000000000000     
  -2.6849999999999999E-002     0.0000000000000000     
  -2.6800000000000001E-002     0.0000000000000000     
  -2.6749999999999999E-002     0.0000000000000000     
  -2.6700000000000002E-002     0.0000000000000000     
  -2.6650000000000000E-002     0.0000000000000000     
  -2.6599999999999999E-002     0.0000000000000000     
  -2.6550000000000001E-002     0.0000000000000000     
  -2.6500000000000003E-002     0.0000000000000000     
  -2.6450000000000001E-002     0.0000000000000000     
  -2.6400000000000000E-002     0.0000000000000000     
  -2.6349999999999998E-002     0.0000000000000000     
  -2.6300000000000000E-002     0.0000000000000000     
  -2.6250000000000002E-002     0.0000000000000000     
  -2.6200000000000001E-002     0.0000000000000000     
  -2.6150000000000000E-002     0.0000000000000000     
  -2.6099999999999998E-002     0.0000000000000000     
  -2.6050000000000000E-002     1.1862193741708765E-038
  -2.6000000000000002E-002     2.9899739089637142E-038
  -2.5950000000000001E-002     4.9355887264694525E-038
  -2.5899999999999999E-002     5.2542241804657375E-038
  -2.5849999999999998E-002     2.4138889475030608E-038
  -2.5800000000000000E-002    -5.0287204821521565E-038
  -2.5750000000000002E-002    -1.6093533926288672E-037
  -2.5700000000000001E-002    -2.8232529140718648E-037
  -2.5649999999999999E-002    -3.5189094337190091E-037
  -2.5599999999999998E-002    -2.9094479559452070E-037
  -2.5550000000000000E-002    -5.6074070192558300E-038
  -2.5500000000000002E-002     3.4564250184884456E-037
  -2.5450000000000000E-002     8.1725637048975032E-037
  -2.5399999999999999E-002     1.1872097062169218E-036
  -2.5349999999999998E-002     1.2236704908183992E-036
  -2.5300000000000000E-002     7.5067582589256959E-037
  -2.5250000000000002E-002    -2.6926533556672883E-037
  -2.5200000000000000E-002    -1.6399499163214374E-036
  -2.5149999999999999E-002    -2.9268037164214969E-036
  -2.5100000000000001E-002    -3.5613942594934593E-036
  -2.5049999999999999E-002    -3.0216935645939388E-036
  -2.5000000000000001E-002    -1.0648344983673971E-036
  -2.4950000000000000E-002     2.0713621043358951E-036
  -2.4899999999999999E-002     5.6024573232099360E-036
  -2.4850000000000001E-002     8.3368667668717465E-036
  -2.4800000000000003E-002     8.9957483209686925E-036
  -2.4750000000000001E-002     6.6669363553443109E-036
  -2.4700000000000000E-002     1.2224639299175989E-036
  -2.4649999999999998E-002    -6.4503682062964018E-036
  -2.4600000000000000E-002    -1.4537452027602222E-035
  -2.4550000000000002E-002    -2.0654655811822427E-035
  -2.4500000000000001E-002    -2.2423213391585113E-035
  -2.4450000000000000E-002    -1.8051972392194755E-035
  -2.4399999999999998E-002    -6.8032748053000144E-036
  -2.4350000000000000E-002     1.0683371019546252E-035
  -2.4299999999999999E-002     3.2130064810275801E-035
  -2.4250000000000001E-002     5.3345326366254707E-035
  -2.4199999999999999E-002     6.8045662634198283E-035
  -2.4150000000000001E-002     6.8190211945358067E-035
  -2.4100000000000000E-002     4.5472453924548733E-035
  -2.4049999999999998E-002    -5.5232175862932282E-036
  -2.4000000000000000E-002    -8.2698730466440466E-035
  -2.3949999999999999E-002    -1.7175846971745408E-034
  -2.3900000000000001E-002    -2.4411232276299579E-034
  -2.3850000000000000E-002    -2.6049340089521396E-034
  -2.3800000000000002E-002    -1.8234032124865420E-034
  -2.3750000000000000E-002     9.9732038983953033E-036
  -2.3699999999999999E-002     2.9722018212647714E-034
  -2.3650000000000001E-002     6.0871258162649948E-034
  -2.3599999999999999E-002     8.2713885796302539E-034
  -2.3550000000000001E-002     8.1743904777862338E-034
  -2.3500000000000000E-002     4.7771162930252389E-034
  -2.3449999999999999E-002    -2.0140567650458422E-034
  -2.3400000000000001E-002    -1.0924000016201919E-033
  -2.3349999999999999E-002    -1.9278860145101376E-033
  -2.3300000000000001E-002    -2.3566403278983151E-033
  -2.3250000000000000E-002    -2.0562502089291709E-033
  -2.3199999999999998E-002    -8.7386116510624582E-034
  -2.3150000000000000E-002     1.0553342112866399E-033
  -2.3099999999999999E-002     3.2682883855661407E-033
  -2.3050000000000001E-002     5.0521840860217945E-033
  -2.3000000000000000E-002     5.6405992608667802E-033
  -2.2950000000000002E-002     4.4791778981800709E-033
  -2.2900000000000000E-002     1.4735017111901247E-033
  -2.2849999999999999E-002    -2.8774477134985632E-033
  -2.2800000000000001E-002    -7.5291062042200291E-033
  -2.2749999999999999E-002    -1.1125804360221098E-032
  -2.2700000000000001E-002    -1.2357841330959499E-032
  -2.2650000000000000E-002    -1.0330950499389053E-032
  -2.2599999999999999E-002    -4.8385018946996524E-033
  -2.2550000000000001E-002     3.5248221337669799E-033
  -2.2499999999999999E-002     1.3399106127515973E-032
  -2.2450000000000001E-002     2.2787529233822131E-032
  -2.2400000000000000E-002     2.9229087119402485E-032
  -2.2349999999999998E-002     3.0039288742827801E-032
  -2.2300000000000000E-002     2.2731735924680028E-032
  -2.2249999999999999E-002     5.7607630113641492E-033
  -2.2200000000000001E-002    -2.0385603676464070E-032
  -2.2150000000000000E-002    -5.1977802264861333E-032
  -2.2100000000000002E-002    -8.1291244647447095E-032
  -2.2050000000000000E-002    -9.7094361434386505E-032
  -2.1999999999999999E-002    -8.7049902013280795E-032
  -2.1950000000000001E-002    -4.2116910040244012E-032
  -2.1899999999999999E-002     3.7946303387609467E-032
  -2.1850000000000001E-002     1.3994033744045073E-031
  -2.1800000000000000E-002     2.3601909864255922E-031
  -2.1749999999999999E-002     2.8813263798149190E-031
  -2.1700000000000001E-002     2.5873875454281375E-031
  -2.1649999999999999E-002     1.2584423231624053E-031
  -2.1600000000000001E-002    -1.0225511410997428E-031
  -2.1550000000000000E-002    -3.7878329878988618E-031
  -2.1499999999999998E-002    -6.2251570686794926E-031
  -2.1450000000000000E-002    -7.3648347645651524E-031
  -2.1399999999999999E-002    -6.3854206331287689E-031
  -2.1350000000000001E-002    -2.9541963269720974E-031
  -2.1299999999999999E-002     2.5172501024483943E-031
  -2.1250000000000002E-002     8.8178917859418579E-031
  -2.1200000000000000E-002     1.4147056894963769E-030
  -2.1149999999999999E-002     1.6567719671183970E-030
  -2.1100000000000001E-002     1.4590415491899467E-030
  -2.1049999999999999E-002     7.7145164497145117E-031
  -2.1000000000000001E-002    -3.2484570205936688E-031
  -2.0950000000000000E-002    -1.6183236552206262E-030
  -2.0899999999999998E-002    -2.8023043304380531E-030
  -2.0850000000000000E-002    -3.5358466295117667E-030
  -2.0799999999999999E-002    -3.5161250613724872E-030
  -2.0750000000000001E-002    -2.5489831897929267E-030
  -2.0700000000000000E-002    -6.0967752362758962E-031
  -2.0649999999999998E-002     2.1094397478372403E-030
  -2.0600000000000000E-002     5.1687561386899854E-030
  -2.0549999999999999E-002     7.8823803128524125E-030
  -2.0500000000000001E-002     9.3765662838907252E-030
  -2.0449999999999999E-002     8.7374496094873230E-030
  -2.0400000000000001E-002     5.2657790406781602E-030
  -2.0350000000000000E-002    -1.1844884810307930E-030
  -2.0299999999999999E-002    -9.8681688081661965E-030
  -2.0250000000000001E-002    -1.8955100944812309E-029
  -2.0199999999999999E-002    -2.5647336635911318E-029
  -2.0150000000000001E-002    -2.6728266183803110E-029
  -2.0100000000000000E-002    -1.9537423936585899E-029
  -2.0049999999999998E-002    -3.1782808288609271E-030
  -2.0000000000000000E-002     2.0419416460781569E-029
  -1.9949999999999999E-002     4.6061635022172887E-029
  -1.9900000000000001E-002     6.5893113238920916E-029
  -1.9850000000000000E-002     7.1200831017141048E-029
  -1.9799999999999998E-002     5.5165864978095360E-029
  -1.9750000000000000E-002     1.5865574001565927E-029
  -1.9699999999999999E-002    -4.1482559247276606E-029
  -1.9650000000000001E-002    -1.0406064823981031E-028
  -1.9599999999999999E-002    -1.5343824248708945E-028
  -1.9550000000000001E-002    -1.6998180743169840E-028
  -1.9500000000000000E-002    -1.3882240788353232E-028
  -1.9449999999999999E-002    -5.5806154268505084E-029
  -1.9400000000000001E-002     6.8463332164984825E-029
  -1.9349999999999999E-002     2.0813532753608768E-028
  -1.9300000000000001E-002     3.2602625447832247E-028
  -1.9250000000000000E-002     3.8164291613793589E-028
  -1.9199999999999998E-002     3.4184374569782364E-028
  -1.9150000000000000E-002     1.9178035998850696E-028
  -1.9099999999999999E-002    -5.6607631578081792E-029
  -1.9050000000000001E-002    -3.6107090948498991E-028
  -1.9000000000000000E-002    -6.5233495221546399E-028
  -1.8949999999999998E-002    -8.4497108321874683E-028
  -1.8900000000000000E-002    -8.5531185010261933E-028
  -1.8849999999999999E-002    -6.2429691203403532E-028
  -1.8800000000000001E-002    -1.4133623316341109E-028
  -1.8749999999999999E-002     5.3654650866395061E-028
  -1.8700000000000001E-002     1.2773472750792107E-027
  -1.8650000000000000E-002     1.8854807919982165E-027
  -1.8599999999999998E-002     2.1364935551432307E-027
  -1.8550000000000001E-002     1.8342279268277419E-027
  -1.8499999999999999E-002     8.8158798228848213E-028
  -1.8450000000000001E-002    -6.5269439380909433E-028
  -1.8400000000000000E-002    -2.4952669702471471E-027
  -1.8349999999999998E-002    -4.1816090615024222E-027
  -1.8300000000000000E-002    -5.1373560605549877E-027
  -1.8249999999999999E-002    -4.8251607784974043E-027
  -1.8200000000000001E-002    -2.9307142950491504E-027
  -1.8149999999999999E-002     4.6170189014902686E-028
  -1.8100000000000002E-002     4.7671393464929588E-027
  -1.8050000000000000E-002     8.9296446857498867E-027
  -1.7999999999999999E-002     1.1615015893457746E-026
  -1.7950000000000001E-002     1.1552002583306242E-026
  -1.7899999999999999E-002     7.9530701759598129E-027
  -1.7850000000000001E-002     9.0021750884509379E-028
  -1.7800000000000000E-002    -8.4377886883475497E-027
  -1.7749999999999998E-002    -1.7870201869011168E-026
  -1.7700000000000000E-002    -2.4582577358775334E-026
  -1.7649999999999999E-002    -2.5827672822763511E-026
  -1.7600000000000001E-002    -1.9768367100635885E-026
  -1.7550000000000000E-002    -6.2547457632330594E-027
  -1.7499999999999998E-002     1.2709925273311203E-026
  -1.7450000000000000E-002     3.3020407576204606E-026
  -1.7399999999999999E-002     4.9138630636226698E-026
  -1.7350000000000001E-002     5.5328628543299564E-026
  -1.7299999999999999E-002     4.7238585453304697E-026
  -1.7250000000000001E-002     2.3471725083854501E-026
  -1.7200000000000000E-002    -1.3285128232562438E-026
  -1.7149999999999999E-002    -5.5984761763318131E-026
  -1.7100000000000001E-002    -9.4074127238399314E-026
  -1.7049999999999999E-002    -1.1553133949215070E-025
  -1.7000000000000001E-002    -1.0983849434728212E-025
  -1.6950000000000000E-002    -7.1330882046725072E-026
  -1.6899999999999998E-002    -2.1068577610650575E-027
  -1.6850000000000000E-002     8.6432626898688517E-026
  -1.6799999999999999E-002     1.7424309659095115E-025
  -1.6750000000000001E-002     2.3595251022252605E-025
  -1.6700000000000000E-002     2.4666897083361075E-025
  -1.6649999999999998E-002     1.8933212734711781E-025
  -1.6600000000000000E-002     6.1902848075612332E-026
  -1.6549999999999999E-002    -1.1779850235546261E-025
  -1.6500000000000001E-002    -3.1175772283141276E-025
  -1.6449999999999999E-002    -4.6736393251348926E-025
  -1.6400000000000001E-002    -5.2896156425308309E-025
  -1.6350000000000000E-002    -4.5354087713947892E-025
  -1.6299999999999999E-002    -2.2693994966208241E-025
  -1.6250000000000001E-002     1.2425048600214797E-025
  -1.6199999999999999E-002     5.2987199627501754E-025
  -1.6150000000000001E-002     8.8573278375289358E-025
  -1.6100000000000000E-002     1.0757819804560819E-024
  -1.6049999999999998E-002     1.0034036765699792E-024
  -1.6000000000000000E-002     6.2464919372888333E-025
  -1.5949999999999999E-002    -2.6081443004222932E-026
  -1.5900000000000001E-002    -8.2733888530808058E-025
  -1.5850000000000000E-002    -1.5853953143241424E-024
  -1.5799999999999998E-002    -2.0734513863399650E-024
  -1.5750000000000000E-002    -2.0892668938176237E-024
  -1.5699999999999999E-002    -1.5185627318362647E-024
  -1.5650000000000001E-002    -3.8724600813399589E-025
  -1.5599999999999999E-002     1.1147606184295971E-024
  -1.5550000000000001E-002     2.6507555127205586E-024
  -1.5500000000000000E-002     3.7992783415536340E-024
  -1.5449999999999998E-002     4.1529593100564893E-024
  -1.5400000000000000E-002     3.4345545558410279E-024
  -1.5349999999999999E-002     1.6019300769882456E-024
  -1.5300000000000001E-002    -1.0889382362631277E-024
  -1.5250000000000000E-002    -4.0888744281082722E-024
  -1.5199999999999998E-002    -6.6414285153670350E-024
  -1.5150000000000000E-002    -7.9440390676395464E-024
  -1.5099999999999999E-002    -7.3572951964237308E-024
  -1.5050000000000001E-002    -4.6163770163060671E-024
  -1.4999999999999999E-002     1.2160281445195992E-026
  -1.4949999999999998E-002     5.6832594439122120E-024
  -1.4900000000000000E-002     1.1073967753525567E-023
  -1.4849999999999999E-002     1.4638475266230505E-023
  -1.4800000000000001E-002     1.4983393847387594E-023
  -1.4749999999999999E-002     1.1287651791947076E-023
  -1.4700000000000001E-002     3.6606792546565539E-024
  -1.4650000000000000E-002    -6.6757552023792654E-024
  -1.4599999999999998E-002    -1.7474446298976684E-023
  -1.4550000000000000E-002    -2.5856686618241090E-023
  -1.4499999999999999E-002    -2.8973089022840637E-023
  -1.4450000000000001E-002    -2.4805481945555341E-023
  -1.4400000000000000E-002    -1.2914469916546983E-023
  -1.4349999999999998E-002     5.0917234593364354E-024
  -1.4300000000000000E-002     2.5561883150657494E-023
  -1.4249999999999999E-002     4.3381740728826972E-023
  -1.4200000000000001E-002     5.3088255089889930E-023
  -1.4149999999999999E-002     5.0315762122844612E-023
  -1.4099999999999998E-002     3.3234913747667323E-023
  -1.4050000000000000E-002     3.5782402620549338E-024
  -1.3999999999999999E-002    -3.3117935363293952E-023
  -1.3950000000000001E-002    -6.8277159222166458E-023
  -1.3899999999999999E-002    -9.2035049669705878E-023
  -1.3850000000000001E-002    -9.5684487535911641E-023
  -1.3800000000000000E-002    -7.4271769969601370E-023
  -1.3749999999999998E-002    -2.8661397290744137E-023
  -1.3700000000000000E-002     3.3590119268171714E-023
  -1.3649999999999999E-002     9.9005103797359173E-023
  -1.3600000000000001E-002     1.5069018477371425E-022
  -1.3550000000000000E-002     1.7221709826090875E-022
  -1.3499999999999998E-002     1.5209124164928720E-022
  -1.3450000000000000E-002     8.7726672736052167E-023
  -1.3399999999999999E-002    -1.2211849629835964E-023
  -1.3350000000000001E-002    -1.2801060714072316E-022
  -1.3299999999999999E-002    -2.3205903687358940E-022
  -1.3249999999999998E-002    -2.9466172849473800E-022
  -1.3200000000000000E-002    -2.9147368628835374E-022
  -1.3149999999999998E-002    -2.1091161680839138E-022
  -1.3100000000000001E-002    -5.9595155487043208E-023
  -1.3049999999999999E-002     1.3597658322380121E-022
  -1.3000000000000001E-002     3.3266293733229167E-022
  -1.2950000000000000E-002     4.7891383092858399E-022
  -1.2899999999999998E-002     5.2677783990374011E-022
  -1.2850000000000000E-002     4.4523547988502565E-022
  -1.2799999999999999E-002     2.3157956983108118E-022