  -4.0000000000000001E-002     0.0000000000000000     
  -3.9949999999999999E-002     0.0000000000000000     
  -3.9899999999999998E-002     0.0000000000000000     
  -3.9850000000000003E-002     0.0000000000000000     
  -3.9800000000000002E-002     0.0000000000000000     
  -3.9750000000000001E-002     0.0000000000000000     
  -3.9699999999999999E-002     0.0000000000000000     
  -3.9649999999999998E-002     0.0000000000000000     
  -3.9600000000000003E-002     0.0000000000000000     
  -3.9550000000000002E-002     0.0000000000000000     
  -3.9500000000000000E-002     0.0000000000000000     
  -3.9449999999999999E-002     0.0000000000000000     
  -3.9399999999999998E-002     0.0000000000000000     
  -3.9350000000000003E-002     0.0000000000000000     
  -3.9300000000000002E-002     0.0000000000000000     
  -3.9250000000000000E-002     0.0000000000000000     
  -3.9199999999999999E-002     0.0000000000000000     
  -3.9150000000000004E-002     0.0000000000000000     
  -3.9100000000000003E-002     0.0000000000000000     
  -3.9050000000000001E-002     0.0000000000000000     
  -3.9000000000000000E-002     0.0000000000000000     
  -3.8949999999999999E-002     0.0000000000000000     
  -3.8900000000000004E-002     0.0000000000000000     
  -3.8850000000000003E-002     0.0000000000000000     
  -3.8800000000000001E-002     0.0000000000000000     
  -3.8750000000000000E-002     0.0000000000000000     
  -3.8699999999999998E-002     0.0000000000000000     
  -3.8650000000000004E-002     0.0000000000000000     
  -3.8600000000000002E-002     0.0000000000000000     
  -3.8550000000000001E-002     0.0000000000000000     
  -3.8500000000000000E-002     0.0000000000000000     
  -3.8449999999999998E-002     0.0000000000000000     
  -3.8400000000000004E-002     0.0000000000000000     
  -3.8350000000000002E-002     0.0000000000000000     
  -3.8300000000000001E-002     0.0000000000000000     
  -3.8249999999999999E-002     0.0000000000000000     
  -3.8199999999999998E-002     0.0000000000000000     
  -3.8150000000000003E-002     0.0000000000000000     
  -3.8100000000000002E-002     0.0000000000000000     
  -3.8050000000000000E-002     0.0000000000000000     
  -3.7999999999999999E-002     0.0000000000000000     
  -3.7949999999999998E-002     0.0000000000000000     
  -3.7900000000000003E-002     0.0000000000000000     
  -3.7850000000000002E-002     0.0000000000000000     
  -3.7800000000000000E-002     0.0000000000000000     
  -3.7749999999999999E-002    -9.2366849597443249E-040
  -3.7699999999999997E-002    -7.4584807583558675E-039
  -3.7650000000000003E-002    -1.8332925851392196E-038
  -3.7600000000000001E-002    -5.2313360432542730E-038
  -3.7550000000000000E-002    -1.0141280877468129E-037
  -3.7499999999999999E-002    -1.1461725265551810E-037
  -3.7449999999999997E-002     4.3078600936198201E-038
  -3.7400000000000003E-002     5.7470622283787829E-037
  -3.7350000000000001E-002     1.5975403422810945E-036
  -3.7300000000000000E-002     2.7958317269854151E-036
  -3.7249999999999998E-002     2.9262468591187846E-036
  -3.7200000000000004E-002    -5.0795807999610605E-037
  -3.7150000000000002E-002    -1.0648387787088188E-035
  -3.7100000000000001E-002    -2.8706379452139978E-035
  -3.7050000000000000E-002    -4.8898938499249573E-035
  -3.6999999999999998E-002    -5.2383250936530989E-035
  -3.6950000000000004E-002    -5.3913195924350033E-036
  -3.6900000000000002E-002     1.2934583161788112E-034
  -3.6850000000000001E-002     3.5886785988871656E-034
  -3.6799999999999999E-002     6.0502661263159976E-034
  -3.6749999999999998E-002     6.5363052940601393E-034
  -3.6700000000000003E-002     1.6599326006637499E-034
  -3.6650000000000002E-002    -1.1700440047762222E-033
  -3.6600000000000001E-002    -3.3080537653517519E-033
  -3.6549999999999999E-002    -5.4150678598328291E-033
  -3.6499999999999998E-002    -5.6394591624693941E-033
  -3.6450000000000003E-002    -1.5410383233565909E-033
  -3.6400000000000002E-002     8.4295215201696710E-033
  -3.6350000000000000E-002     2.2578942271977929E-032
  -3.6299999999999999E-002     3.3974298112038270E-032
  -3.6249999999999998E-002     3.1054153205715873E-032
  -3.6200000000000003E-002     3.0265399755390689E-033
  -3.6150000000000002E-002    -5.0094019531991204E-032
  -3.6100000000000000E-002    -1.0761666580776168E-031
  -3.6049999999999999E-002    -1.2801055792053480E-031
  -3.6000000000000004E-002    -6.8052116978900454E-032
  -3.5950000000000003E-002     7.8595252504674197E-032
  -3.5900000000000001E-002     2.4235514297308502E-031
  -3.5850000000000000E-002     2.7630666045877442E-031
  -3.5799999999999998E-002     3.0209423308574244E-032
  -3.5750000000000004E-002    -4.9995093575075716E-031
  -3.5700000000000003E-002    -1.0205479509539362E-030
  -3.5650000000000001E-002    -9.3163009592289975E-031
  -3.5600000000000000E-002     3.9708878706970261E-031
  -3.5549999999999998E-002     3.0619640807766720E-030
  -3.5500000000000004E-002     6.0290913442008498E-030
  -3.5450000000000002E-002     7.0031871805798281E-030
  -3.5400000000000001E-002     3.2465382904153761E-030
  -3.5349999999999999E-002    -6.6150130696015574E-030
  -3.5299999999999998E-002    -2.0563169642506217E-029
  -3.5250000000000004E-002    -3.2388252789548493E-029
  -3.5200000000000002E-002    -3.3458707879731860E-029
  -3.5150000000000001E-002    -1.7056314583951421E-029
  -3.5099999999999999E-002     1.6853504031122336E-029
  -3.5049999999999998E-002     5.9965262637557043E-029
  -3.5000000000000003E-002     9.9502260387741967E-029
  -3.4950000000000002E-002     1.2572535897590276E-028
  -3.4900000000000000E-002     1.3595398893775259E-028
  -3.4849999999999999E-002     1.2678233687237963E-028
  -3.4799999999999998E-002     7.3928753223656421E-029
  -3.4750000000000003E-002    -8.4533535438509556E-029
  -3.4700000000000002E-002    -4.3081674073297094E-028
  -3.4650000000000000E-002    -9.8913812141116973E-028
  -3.4599999999999999E-002    -1.5972889439300398E-027
  -3.4549999999999997E-002    -1.8046967897841493E-027
  -3.4500000000000003E-002    -9.3037636960375017E-028
  -3.4450000000000001E-002     1.6002253505966327E-027
  -3.4400000000000000E-002     5.6566058979156096E-027
  -3.4349999999999999E-002     9.8027261395077396E-027
  -3.4299999999999997E-002     1.1184741245140523E-026
  -3.4250000000000003E-002     6.4125198081518191E-027
  -3.4200000000000001E-002    -6.4362026057224810E-027
  -3.4150000000000000E-002    -2.5319363204487667E-026
  -3.4099999999999998E-002    -4.2694328028230707E-026
  -3.4049999999999997E-002    -4.6694239870981143E-026
  -3.4000000000000002E-002    -2.5981138625776971E-026
  -3.3950000000000001E-002     2.2734460458560595E-026
  -3.3900000000000000E-002     8.7948325907731317E-026
  -3.3849999999999998E-002     1.4222598011071708E-025
  -3.3799999999999997E-002     1.5030132102380180E-025
  -3.3750000000000002E-002     8.5722914723922979E-026
  -3.3700000000000001E-002    -5.0555231463832174E-026
  -3.3649999999999999E-002    -2.2033121562229318E-025
  -3.3599999999999998E-002    -3.5626520369106500E-025
  -3.3550000000000003E-002    -3.8868832401746164E-025
  -3.3500000000000002E-002    -2.7962669166030418E-025
  -3.3450000000000001E-002    -4.4115467478641005E-026
  -3.3399999999999999E-002     2.5764535463707059E-025
  -3.3349999999999998E-002     5.5587919666510686E-025
  -3.3300000000000003E-002     8.0903757474216664E-025
  -3.3250000000000002E-002     1.0055976612002150E-024
  -3.3200000000000000E-002     1.1080422996652344E-024
  -3.3149999999999999E-002     9.6550896236501067E-025
  -3.3099999999999997E-002     2.7837619623308895E-025
  -3.3050000000000003E-002    -1.2824885753420143E-024
  -3.3000000000000002E-002    -3.7608357284839900E-024
  -3.2950000000000000E-002    -6.5108851718457816E-024
  -3.2899999999999999E-002    -7.9799646852536845E-024
  -3.2850000000000004E-002    -6.0229385144095169E-024
  -3.2800000000000003E-002     1.0614200179276498E-024
  -3.2750000000000001E-002     1.2989929463225670E-023
  -3.2700000000000000E-002     2.6187092694471964E-023
  -3.2649999999999998E-002     3.3768894926185496E-023
  -3.2600000000000004E-002     2.7659248191260885E-023
  -3.2550000000000003E-002     2.7645664737580540E-024
  -3.2500000000000001E-002    -3.8243710025593164E-023
  -3.2450000000000000E-002    -8.2155541085406142E-023
  -3.2399999999999998E-002    -1.0717060128410117E-022
  -3.2350000000000004E-002    -9.0733867158610846E-023
  -3.2300000000000002E-002    -2.1452199543077890E-023
  -3.2250000000000001E-002     8.9891567649502772E-023
  -3.2199999999999999E-002     2.0674019692707041E-022
  -3.2149999999999998E-002     2.7540722051870943E-022
  -3.2100000000000004E-002     2.4570182424916670E-022
  -3.2050000000000002E-002     9.6589692296491136E-023
  -3.2000000000000001E-002    -1.4493060451935344E-022
  -3.1949999999999999E-002    -4.0322774474757636E-022
  -3.1899999999999998E-002    -5.7638078023404373E-022
  -3.1850000000000003E-002    -5.7506601255519726E-022
  -3.1800000000000002E-002    -3.6173346997610117E-022
  -3.1750000000000000E-002     2.8717358858189971E-023
  -3.1699999999999999E-002     4.9772693123544400E-022
  -3.1649999999999998E-002     9.1695603512939867E-022
  -3.1600000000000003E-002     1.1685059722880371E-021
  -3.1550000000000002E-002     1.1692631115858575E-021
  -3.1500000000000000E-002     8.6949862550706527E-022
  -3.1449999999999999E-002     2.3874028130502000E-022
  -3.1399999999999997E-002    -7.2976671984727591E-022
  -3.1350000000000003E-002    -1.9684459753116936E-021
  -3.1300000000000001E-002    -3.2445170810479771E-021
  -3.1250000000000000E-002    -4.0857948782996033E-021
  -3.1199999999999999E-002    -3.8168337376513181E-021
  -3.1150000000000001E-002    -1.7840216575181736E-021
  -3.1100000000000003E-002     2.2376446701476733E-021
  -3.1050000000000001E-002     7.5984974325764563E-021
  -3.1000000000000000E-002     1.2549444840354950E-020
  -3.0949999999999998E-002     1.4513221321245906E-020
  -3.0900000000000000E-002     1.0975227833523363E-020
  -3.0850000000000002E-002     8.1613234195134073E-022
  -3.0800000000000001E-002    -1.4430208885712290E-020
  -3.0750000000000000E-002    -3.0103640065731471E-020
  -3.0699999999999998E-002    -3.9318376432529354E-020
  -3.0650000000000000E-002    -3.5336468946614201E-020
  -3.0600000000000002E-002    -1.4787155626488411E-020
  -3.0550000000000001E-002     1.9548133631618765E-020
  -3.0499999999999999E-002     5.7877379567370588E-020
  -3.0449999999999998E-002     8.5482912351156108E-020
  -3.0400000000000000E-002     8.7647532032810041E-020
  -3.0350000000000002E-002     5.5948472144454722E-020
  -3.0300000000000001E-002    -6.5585490738293025E-021
  -3.0249999999999999E-002    -8.3801469326381102E-020
  -3.0200000000000001E-002    -1.5022015847711234E-019
  -3.0150000000000000E-002    -1.7880376418417226E-019
  -3.0100000000000002E-002    -1.5104004707668758E-019
  -3.0050000000000000E-002    -6.5033888922750205E-020
  -2.9999999999999999E-002     6.1549680627072672E-020
  -2.9950000000000001E-002     1.9516407901964253E-019
  -2.9899999999999999E-002     2.9552896440143878E-019
  -2.9850000000000002E-002     3.2701757329984391E-019
  -2.9800000000000000E-002     2.6851657064780534E-019
  -2.9749999999999999E-002     1.1921105096234679E-019
  -2.9700000000000001E-002    -1.0006504052284331E-019
  -2.9650000000000003E-002    -3.4855404209720132E-019
  -2.9600000000000001E-002    -5.6899170732980557E-019
  -2.9550000000000000E-002    -6.9313818222950930E-019
  -2.9499999999999998E-002    -6.5214700144725041E-019
  -2.9450000000000000E-002    -3.9501258949925651E-019
  -2.9400000000000003E-002     8.4800432522320551E-020
  -2.9350000000000001E-002     7.2117346593148219E-019
  -2.9300000000000000E-002     1.3596986883083002E-018
  -2.9249999999999998E-002     1.7720052122268550E-018
  -2.9200000000000000E-002     1.7119104401415197E-018
  -2.9150000000000002E-002     1.0094342368253057E-018
  -2.9100000000000001E-002    -3.2328957832060809E-019
  -2.9049999999999999E-002    -2.0188445491715301E-018
  -2.8999999999999998E-002    -3.5625872533012106E-018
  -2.8950000000000000E-002    -4.3113846888656011E-018
  -2.8900000000000002E-002    -3.7116837639457688E-018
  -2.8850000000000001E-002    -1.5556355870247718E-018
  -2.8799999999999999E-002     1.8237911036461321E-018
  -2.8749999999999998E-002     5.5215122491047515E-018
  -2.8700000000000000E-002     8.2537929291267844E-018
  -2.8650000000000002E-002     8.7568634457054989E-018
  -2.8600000000000000E-002     6.2787365342611060E-018
  -2.8549999999999999E-002     9.8686034073485361E-019
  -2.8500000000000001E-002    -5.8895440834738693E-018
  -2.8450000000000000E-002    -1.2291646359859566E-017
  -2.8400000000000002E-002    -1.5916498892806606E-017
  -2.8350000000000000E-002    -1.4991946687417029E-017
  -2.8299999999999999E-002    -8.9801905554776541E-018
  -2.8250000000000001E-002     1.0555250627267298E-018
  -2.8200000000000003E-002     1.2587884773998212E-017
  -2.8150000000000001E-002     2.2262440776475239E-017
  -2.8100000000000000E-002     2.6853335126249597E-017
  -2.8049999999999999E-002     2.4242825512018534E-017
  -2.8000000000000001E-002     1.4124159781049842E-017
  -2.7950000000000003E-002    -1.7718260963029869E-018
  -2.7900000000000001E-002    -1.9968161122886777E-017
  -2.7850000000000000E-002    -3.5948551143438807E-017
  -2.7799999999999998E-002    -4.5102243019944791E-017
  -2.7750000000000000E-002    -4.3735762109459866E-017
  -2.7700000000000002E-002    -3.0027990589249325E-017
  -2.7650000000000001E-002    -4.8292193182483643E-018
  -2.7600000000000000E-002     2.7839306091149084E-017
  -2.7549999999999998E-002     6.0825326648083715E-017
  -2.7500000000000000E-002     8.4729115826858570E-017
  -2.7450000000000002E-002     8.9848516120368599E-017
  -2.7400000000000001E-002     6.9090618051661541E-017
  -2.7349999999999999E-002     2.1252526593492199E-017
  -2.7299999999999998E-002    -4.6435556634252620E-017
  -2.7250000000000000E-002    -1.1784829860876502E-016
  -2.7200000000000002E-002    -1.7063198448298513E-016
  -2.7150000000000001E-002    -1.8213517263510542E-016
  -2.7099999999999999E-002    -1.3740641647564050E-016
  -2.7049999999999998E-002    -3.6783352327745310E-017
  -2.7000000000000000E-002     1.0002320484500856E-016
  -2.6950000000000002E-002     2.3592989668883582E-016
  -2.6900000000000000E-002     3.2540033659258539E-016
  -2.6849999999999999E-002     3.2857679739864468E-016
  -2.6800000000000001E-002     2.2647564255857325E-016
  -2.6749999999999999E-002     3.1798535383757669E-017
  -2.6700000000000002E-002    -2.0947241077745084E-016
  -2.6650000000000000E-002    -4.2790086922564822E-016
  -2.6599999999999999E-002    -5.5013437658872586E-016
  -2.6550000000000001E-002    -5.2261816929922837E-016
  -2.6500000000000003E-002    -3.3173050385281685E-016
  -2.6450000000000001E-002    -1.3027218694024969E-017
  -2.6400000000000000E-002     3.5453911300236654E-016
  -2.6349999999999998E-002     6.6865394462621227E-016
  -2.6300000000000000E-002     8.3229053733803834E-016
  -2.6250000000000002E-002     7.8233319293839934E-016
  -2.6200000000000001E-002     5.0951237011520390E-016
  -2.6150000000000000E-002     6.3897405427233889E-017
  -2.6099999999999998E-002    -4.5520172228437460E-016
  -2.6050000000000000E-002    -9.2159318782585425E-016
  -2.6000000000000002E-002    -1.2107402662265951E-015
  -2.5950000000000001E-002    -1.2280123596168169E-015
  -2.5899999999999999E-002    -9.3163743904774288E-016
  -2.5849999999999998E-002    -3.4727697948919821E-016
  -2.5800000000000000E-002     4.2772161041620408E-016
  -2.5750000000000002E-002     1.2324048869840203E-015
  -2.5700000000000001E-002     1.8650248430577081E-015
  -2.5649999999999999E-002     2.1219723417327176E-015
  -2.5599999999999998E-002     1.8503521366699469E-015
  -2.5550000000000000E-002     1.0050152823150928E-015
  -2.5500000000000002E-002    -3.0646935303600667E-016
  -2.5450000000000000E-002    -1.8114350288500710E-015
  -2.5399999999999999E-002    -3.1095272723079206E-015
  -2.5349999999999998E-002    -3.7645527737529997E-015
  -2.5300000000000000E-002    -3.4357486990842107E-015
  -2.5250000000000002E-002    -2.0129967540584527E-015
  -2.5200000000000000E-002     2.9189984934998640E-016
  -2.5149999999999999E-002     2.9423494646834738E-015
  -2.5100000000000001E-002     5.1848549641083163E-015
  -2.5049999999999999E-002     6.2536583717713456E-015
  -2.5000000000000001E-002     5.6192536182532112E-015
  -2.4950000000000000E-002     3.2014851848045498E-015
  -2.4899999999999999E-002    -5.3310249370089032E-016
  -2.4850000000000001E-002    -4.6410819734719178E-015
  -2.4800000000000003E-002    -7.9383031545394289E-015
  -2.4750000000000001E-002    -9.3429530800036015E-015
  -2.4700000000000000E-002    -8.2224731659114506E-015
  -2.4649999999999998E-002    -4.6305612615440680E-015
  -2.4600000000000000E-002     6.5076455362642969E-016
  -2.4550000000000002E-002     6.2889014517088879E-015
  -2.4500000000000001E-002     1.0752036631849790E-014
  -2.4450000000000000E-002     1.2731400510853180E-014
  -2.4399999999999998E-002     1.1509744385807225E-014
  -2.4350000000000000E-002     7.1710463184980076E-015
  -2.4299999999999999E-002     5.9877309428294190E-016
  -2.4250000000000001E-002    -6.7259588393909398E-015
  -2.4199999999999999E-002    -1.3062728201334269E-014
  -2.4150000000000001E-002    -1.6798688247214197E-014
  -2.4100000000000000E-002    -1.6801695885696383E-014
  -2.4049999999999998E-002    -1.2681945176729972E-014
  -2.4000000000000000E-002    -4.9304454083393329E-015
  -2.3949999999999999E-002     5.0829457457092272E-015
  -2.3900000000000001E-002     1.5267621190980316E-014
  -2.3850000000000000E-002     2.3141202318853193E-014
  -2.3800000000000002E-002     2.6325728873651909E-014
  -2.3750000000000000E-002     2.3160231274765541E-014
  -2.3699999999999999E-002     1.3309213030699647E-014
  -2.3650000000000001E-002    -1.8176554256522890E-015
  -2.3599999999999999E-002    -1.9038477553451599E-014
  -2.3550000000000001E-002    -3.3908359143205186E-014
  -2.3500000000000000E-002    -4.1762671537908621E-014
  -2.3449999999999999E-002    -3.9093330026382204E-014
  -2.3400000000000001E-002    -2.4874535901487955E-014
  -2.3349999999999999E-002    -1.3703483391566779E-015
  -2.3300000000000001E-002     2.5968004485800496E-014
  -2.3250000000000000E-002     4.9664015083736162E-014
  -2.3199999999999998E-002     6.2236049149626485E-014
  -2.3150000000000000E-002     5.8534211097967850E-014
  -2.3099999999999999E-002     3.7654776268886970E-014
  -2.3050000000000001E-002     3.7355350070001845E-015
  -2.3000000000000000E-002    -3.4764358317261112E-014
  -2.2950000000000002E-002    -6.7220555804638474E-014
  -2.2900000000000000E-002    -8.3861770690199175E-014
  -2.2849999999999999E-002    -7.8743514886599382E-014
  -2.2800000000000001E-002    -5.1731154410019996E-014
  -2.2749999999999999E-002    -8.8302615176328751E-015
  -2.2700000000000001E-002     3.9280921504515508E-014
  -2.2650000000000000E-002     8.0091590075255999E-014
  -2.2599999999999999E-002     1.0262243123949845E-013
  -2.2550000000000001E-002     1.0033369297612730E-013
  -2.2499999999999999E-002     7.2789160790421283E-014
  -2.2450000000000001E-002     2.5712622887416734E-014
  -2.2400000000000000E-002    -3.0439943199443460E-014
  -2.2349999999999998E-002    -8.2897071283580939E-014
  -2.2300000000000000E-002    -1.1933249177688266E-013
  -2.2249999999999999E-002    -1.3039648975650430E-013
  -2.2200000000000001E-002    -1.1164111689336710E-013
  -2.2150000000000000E-002    -6.4649909713216811E-014
  -2.2100000000000002E-002     2.7315354609561588E-015
  -2.2050000000000000E-002     7.7184040995674711E-014
  -2.1999999999999999E-002     1.4186535521816095E-013
  -2.1950000000000001E-002     1.7956214629829393E-013
  -2.1899999999999999E-002     1.7677068493094724E-013
  -2.1850000000000001E-002     1.2795693176900925E-013
  -2.1800000000000000E-002     3.8791592318682232E-014
  -2.1749999999999999E-002    -7.3009136507593370E-014
  -2.1700000000000001E-002    -1.8025925451452247E-013
  -2.1649999999999999E-002    -2.5241240213272290E-013
  -2.1600000000000001E-002    -2.6406957306524132E-013
  -2.1550000000000000E-002    -2.0358159110011740E-013
  -2.1499999999999998E-002    -7.8866902196595609E-014
  -2.1450000000000000E-002     8.2042942159240861E-014
  -2.1399999999999999E-002     2.3681337510987624E-013
  -2.1350000000000001E-002     3.4000002807147412E-013
  -2.1299999999999999E-002     3.5663053439963677E-013
  -2.1250000000000002E-002     2.7396932305092211E-013
  -2.1200000000000000E-002     1.0741231324819469E-013
  -2.1149999999999999E-002    -1.0192764939777551E-013
  -2.1100000000000001E-002    -2.9777416364204490E-013
  -2.1049999999999999E-002    -4.2447990236630303E-013
  -2.1000000000000001E-002    -4.4329266868806707E-013
  -2.0950000000000000E-002    -3.4403299601560752E-013
  -2.0899999999999998E-002    -1.4854181963123365E-013
  -2.0850000000000000E-002     9.5098558390127817E-014
  -2.0799999999999999E-002     3.2564360528800680E-013
  -2.0750000000000001E-002     4.8497117068843018E-013
  -2.0700000000000000E-002     5.3278476610251455E-013
  -2.0649999999999998E-002     4.5585890872361144E-013
  -2.0600000000000000E-002     2.6998633599028911E-013
  -2.0549999999999999E-002     1.5080585255585442E-014
  -2.0500000000000001E-002    -2.5440850949936959E-013
  -2.0449999999999999E-002    -4.8098837581532930E-013
  -2.0400000000000001E-002    -6.1514842217635825E-013
  -2.0350000000000000E-002    -6.2445305824211494E-013
  -2.0299999999999999E-002    -5.0001274118956952E-013
  -2.0250000000000001E-002    -2.5984939290860762E-013
  -2.0199999999999999E-002     5.1640841844930401E-014
  -2.0150000000000001E-002     3.6925434762355827E-013
  -2.0100000000000000E-002     6.1838148853683857E-013
  -2.0049999999999998E-002     7.3166373394683707E-013
  -2.0000000000000000E-002     6.6806946193058701E-013
  -1.9949999999999999E-002     4.2927658863640309E-013
  -1.9900000000000001E-002     6.7177187824745979E-014
  -1.9850000000000000E-002    -3.2252286004284798E-013
  -1.9799999999999998E-002    -6.2201140305457948E-013
  -1.9750000000000000E-002    -7.2454203397062795E-013
  -1.9699999999999999E-002    -5.7017081768545314E-013
  -1.9650000000000001E-002    -1.7240434866908284E-013
  -1.9599999999999999E-002     3.7477921389894023E-013
  -1.9550000000000001E-002     9.1485504238861598E-013
  -1.9500000000000000E-002     1.2690134945794175E-012
  -1.9449999999999999E-002     1.2881637295767491E-012
  -1.9400000000000001E-002     9.0102540962353074E-013
  -1.9349999999999999E-002     1.4266547863380675E-013
  -1.9300000000000001E-002    -8.4670809963320664E-013
  -1.9250000000000000E-002    -1.8536402943259977E-012
  -1.9199999999999998E-002    -2.6450844980403304E-012
  -1.9150000000000000E-002    -3.0278929566557061E-012
  -1.9099999999999999E-002    -2.8965631696102177E-012
  -1.9050000000000001E-002    -2.2558967975651521E-012
  -1.9000000000000000E-002    -1.2136622587545700E-012
  -1.8949999999999998E-002     5.2116407891338815E-014
  -1.8900000000000000E-002     1.3394198256137341E-012
  -1.8849999999999999E-002     2.4675983208541004E-012
  -1.8800000000000001E-002     3.3097798796453978E-012
  -1.8749999999999999E-002     3.8060970703799782E-012
  -1.8700000000000001E-002     3.9581753762953440E-012
  -1.8650000000000000E-002     3.8102967521000276E-012
  -1.8599999999999998E-002     3.4245428224108446E-012
  -1.8550000000000001E-002     2.8563131411247949E-012
  -1.8499999999999999E-002     2.1343628851634275E-012
  -1.8450000000000001E-002     1.2477286039142853E-012
  -1.8400000000000000E-002     1.4161853208217807E-013
  -1.8349999999999998E-002    -1.2747941252649398E-012
  -1.8300000000000000E-002    -3.1052305039515165E-012
  -1.8249999999999999E-002    -5.4260206831515139E-012
  -1.8200000000000001E-002    -8.2315567638725352E-012
  -1.8149999999999999E-002    -1.1375213263114427E-011
  -1.8100000000000002E-002    -1.4521841963218907E-011
  -1.8050000000000000E-002    -1.7130496281971413E-011
  -1.7999999999999999E-002    -1.8482081638623761E-011
  -1.7950000000000001E-002    -1.7755905753307762E-011
  -1.7899999999999999E-002    -1.4144161332922104E-011
  -1.7850000000000001E-002    -6.9792758421326078E-012
  -1.7800000000000000E-002     4.1587320124206371E-012
  -1.7749999999999998E-002     1.9385330424752856E-011
  -1.7700000000000000E-002     3.8522353877339114E-011
  -1.7649999999999999E-002     6.1174096746032404E-011
  -1.7600000000000001E-002     8.6845638448158770E-011
  -1.7550000000000000E-002     1.1506711707194412E-010
  -1.7499999999999998E-002     1.4548605267005466E-010
  -1.7450000000000000E-002     1.7790125011860494E-010
  -1.7399999999999999E-002     2.1223195682490371E-010
  -1.7350000000000001E-002     2.4843806387590134E-010
  -1.7299999999999999E-002     2.8642352010592461E-010
  -1.7250000000000001E-002     3.2595962416512269E-010
  -1.7200000000000000E-002     3.6665698155534496E-010
  -1.7149999999999999E-002     4.0799814675298074E-010
  -1.7100000000000001E-002     4.4942244031643815E-010
  -1.7049999999999999E-002     4.9043889167402541E-010
  -1.7000000000000001E-002     5.3073565967353246E-010
  -1.6950000000000000E-002     5.7025778556911196E-010
  -1.6899999999999998E-002     6.0923567872487466E-010
  -1.6850000000000000E-002     6.4815928771220372E-010
  -1.6799999999999999E-002     6.8770616185162969E-010
  -1.6750000000000001E-002     7.2863675710622890E-010
  -1.6700000000000000E-002     7.7167574057649651E-010
  -1.6649999999999998E-002     8.1739520915558999E-010
  -1.6600000000000000E-002     8.6611600391119477E-010
  -1.6549999999999999E-002     9.1784270862778283E-010
  -1.6500000000000001E-002     9.7224594736462137E-010
  -1.6449999999999999E-002     1.0287021815497768E-009
  -1.6400000000000001E-002     1.0863930676628763E-009
  -1.6350000000000000E-002     1.1444527308441046E-009
  -1.6299999999999999E-002     1.2021374740653541E-009
  -1.6250000000000001E-002     1.2589806037370156E-009
  -1.6199999999999999E-002     1.3148920217543464E-009
  -1.6150000000000001E-002     1.3701727544323316E-009
  -1.6100000000000000E-002     1.4254348397607845E-009
  -1.6049999999999998E-002     1.4814455121282440E-009
  -1.6000000000000000E-002     1.5389377845746939E-009
  -1.5949999999999999E-002     1.5984423603400774E-009
  -1.5900000000000001E-002     1.6601907705535904E-009
  -1.5850000000000000E-002     1.7241199861950463E-009
  -1.5799999999999998E-002     1.7899722881638479E-009
  -1.5750000000000000E-002     1.8574577463178603E-009
  -1.5699999999999999E-002     1.9264222424506137E-009
  -1.5650000000000001E-002     1.9969622437337880E-009
  -1.5599999999999999E-002     2.0694477343261026E-009
  -1.5550000000000001E-002     2.1444430977325323E-009
  -1.5500000000000000E-002     2.2225474104968756E-009
  -1.5449999999999998E-002     2.3042084950444881E-009
  -1.5400000000000000E-002     2.3895649355687908E-009
  -1.5349999999999999E-002     2.4783671635840679E-009
  -1.5300000000000001E-002     2.5700022426350228E-009
  -1.5250000000000000E-002     2.6636193943659560E-009
  -1.5199999999999998E-002     2.7583217504550719E-009
  -1.5150000000000000E-002     2.8533805424570695E-009
  -1.5099999999999999E-002     2.9484231050533504E-009
  -1.5050000000000001E-002     3.0435494786284167E-009
  -1.4999999999999999E-002     3.1393594686383405E-009
  -1.4949999999999998E-002     3.2368824547238507E-009
  -1.4900000000000000E-002     3.3374225829159169E-009
  -1.4849999999999999E-002     3.4423492921078450E-009
  -1.4800000000000001E-002     3.5528653415675257E-009
  -1.4749999999999999E-002     3.6697974962922104E-009
  -1.4700000000000001E-002     3.7934461530570292E-009
  -1.4650000000000000E-002     3.9235304786346744E-009
  -1.4599999999999998E-002     4.0592421344908222E-009
  -1.4550000000000000E-002     4.1994072177166652E-009
  -1.4499999999999999E-002     4.3427247485093696E-009
  -1.4450000000000001E-002     4.4880323547712148E-009
  -1.4400000000000000E-002     4.6345402616740361E-009
  -1.4349999999999998E-002     4.7819740757200382E-009
  -1.4300000000000000E-002     4.9305992526385739E-009
  -1.4249999999999999E-002     5.0811184411246066E-009
  -1.4200000000000001E-002     5.2344812401695460E-009
  -1.4149999999999999E-002     5.3916590437329365E-009
  -1.4099999999999998E-002     5.5534523760131110E-009
  -1.4050000000000000E-002     5.7203873621757011E-009
  -1.3999999999999999E-002     5.8927203442380911E-009
  -1.3950000000000001E-002     6.0705426983288934E-009
  -1.3899999999999999E-002     6.2539392586555524E-009
  -1.3850000000000001E-002     6.4431405401008991E-009
  -1.3800000000000000E-002     6.6386106829540665E-009
  -1.3749999999999998E-002     6.8410343036942275E-009
  -1.3700000000000000E-002     7.0512030255837781E-009
  -1.3649999999999999E-002     7.2698251383552355E-009
  -1.3600000000000001E-002     7.4973186162591580E-009
  -1.3550000000000000E-002     7.7336385136088041E-009
  -1.3499999999999998E-002     7.9782010355139689E-009
  -1.3450000000000000E-002     8.2299229224691323E-009
  -1.3399999999999999E-002     8.4873840812749522E-009
  -1.3350000000000001E-002     8.7490858521070453E-009
  -1.3299999999999999E-002     9.0137562551216738E-009
  -1.3249999999999998E-002     9.2806374335753396E-009
  -1.3200000000000000E-002     9.5497071231501686E-009
  -1.3149999999999998E-002     9.8217697421135066E-009
  -1.3100000000000001E-002     1.0098403247920919E-008
  -1.3049999999999999E-002     1.0381755549379618E-008
  -1.3000000000000001E-002     1.0674228664530932E-008
  -1.2950000000000000E-002     1.0978105651673283E-008
  -1.2899999999999998E-002     1.1295199317936148E-008
  -1.2850000000000000E-002     1.1626593845554502E-008
  -1.2799999999999999E-002     1.1972534108617871E-008