  -4.0000000000000001E-002     0.0000000000000000     
  -3.9949999999999999E-002     0.0000000000000000     
  -3.9899999999999998E-002     0.0000000000000000     
  -3.9850000000000003E-002     0.0000000000000000     
  -3.9800000000000002E-002     0.0000000000000000     
  -3.9750000000000001E-002     0.0000000000000000     
  -3.9699999999999999E-002    -4.4354987212682251E-022
  -3.9649999999999998E-002    -4.1279078903601444E-021
  -3.9600000000000003E-002    -1.8695407043659337E-020
  -3.9550000000000002E-002    -5.1122226966253645E-020
  -3.9500000000000000E-002    -7.4458313427217307E-020
  -3.9449999999999999E-002     5.3432896631575569E-020
  -3.9399999999999998E-002     7.0698938443149056E-019
  -3.9350000000000003E-002     2.5577301772517721E-018
  -3.9300000000000002E-002     6.4075909839219357E-018
  -3.9250000000000000E-002     1.2586989250905312E-017
  -3.9199999999999999E-002     1.9859414786755993E-017
  -3.9150000000000004E-002     2.4140205471150192E-017
  -3.9100000000000003E-002     1.7826422772218656E-017
  -3.9050000000000001E-002    -9.1341514787188840E-018
  -3.9000000000000000E-002    -6.5515939358464262E-017
  -3.8949999999999999E-002    -1.5252442528435453E-016
  -3.8900000000000004E-002    -2.5672661973207557E-016
  -3.8850000000000003E-002    -3.4568884748076433E-016
  -3.8800000000000001E-002    -3.7043635833498523E-016
  -3.8750000000000000E-002    -2.7740588444931460E-016
  -3.8699999999999998E-002    -2.8810383761583534E-017
  -3.8650000000000004E-002     3.7464761632252957E-016
  -3.8600000000000002E-002     8.7865805795073847E-016
  -3.8550000000000001E-002     1.3777643332887703E-015
  -3.8500000000000000E-002     1.7399567955258355E-015
  -3.8449999999999998E-002     1.8479830791402457E-015
  -3.8400000000000004E-002     1.6414412909794472E-015
  -3.8350000000000002E-002     1.1385117777637798E-015
  -3.8300000000000001E-002     4.2118305190726344E-016
  -3.8249999999999999E-002    -4.1620162138267639E-016
  -3.8199999999999998E-002    -1.3337091616076231E-015
  -3.8150000000000003E-002    -2.3898860386527248E-015
  -3.8100000000000002E-002    -3.7245549572852291E-015
  -3.8050000000000000E-002    -5.4631790537158693E-015
  -3.7999999999999999E-002    -7.5644051646697444E-015
  -3.7949999999999998E-002    -9.6732833451729998E-015
  -3.7900000000000003E-002    -1.1064538230167760E-014
  -3.7850000000000002E-002    -1.0746203900717526E-014
  -3.7800000000000000E-002    -7.7405668902472298E-015
  -3.7749999999999999E-002    -1.4819742866247165E-015
  -3.7699999999999997E-002     7.7999249047491571E-015
  -3.7650000000000003E-002     1.8873708014153440E-014
  -3.7600000000000001E-002     2.9606773392063018E-014
  -3.7550000000000000E-002     3.7409972065261586E-014
  -3.7499999999999999E-002     3.9936141224084623E-014
  -3.7449999999999997E-002     3.5827943194457679E-014
  -3.7400000000000003E-002     2.5256104471224843E-014
  -3.7350000000000001E-002     1.0025299004907198E-014
  -3.7300000000000000E-002    -6.8494979734512516E-015
  -3.7249999999999998E-002    -2.2014087661677218E-014
  -3.7200000000000004E-002    -3.2837397933281013E-014
  -3.7150000000000002E-002    -3.8306230711953657E-014
  -3.7100000000000001E-002    -3.9407359325151787E-014
  -3.7050000000000000E-002    -3.8793788280263149E-014
  -3.6999999999999998E-002    -3.9766397771391261E-014
  -3.6950000000000004E-002    -4.4857547661162214E-014
  -3.6900000000000002E-002    -5.4489844711438946E-014
  -3.6850000000000001E-002    -6.6225429095601581E-014
  -3.6799999999999999E-002    -7.4984319350172666E-014
  -3.6749999999999998E-002    -7.4319133040765382E-014
  -3.6700000000000003E-002    -5.8470701262811013E-014
  -3.6650000000000002E-002    -2.4612257988988479E-014
  -3.6600000000000001E-002     2.5466173542143047E-014
  -3.6549999999999999E-002     8.4904462171943343E-014
  -3.6499999999999998E-002     1.4290977334948358E-013
  -3.6450000000000003E-002     1.8737226316533143E-013
  -3.6400000000000002E-002     2.0834713802833837E-013
  -3.6350000000000000E-002     2.0141608738371158E-013
  -3.6299999999999999E-002     1.6982093795812913E-013
  -3.6249999999999998E-002     1.2446384630795603E-013
  -3.6200000000000003E-002     8.1378675234334901E-014
  -3.6150000000000002E-002     5.6992066365866278E-014
  -3.6100000000000000E-002     6.2238684100037665E-014
  -3.6049999999999999E-002     9.7159188993019301E-014
  -3.6000000000000004E-002     1.4779518899167229E-013
  -3.5950000000000003E-002     1.8687347335473410E-013
  -3.5900000000000001E-002     1.7893967207927964E-013
  -3.5850000000000000E-002     8.9401143013079874E-014
  -3.5799999999999998E-002    -1.0432186896222976E-013
  -3.5750000000000004E-002    -4.0231374972943951E-013
  -3.5700000000000003E-002    -7.7545163332931620E-013
  -3.5650000000000001E-002    -1.1650603237217475E-012
  -3.5600000000000000E-002    -1.4902043974663583E-012
  -3.5549999999999998E-002    -1.6620363314681638E-012
  -3.5500000000000004E-002    -1.6026992101627107E-012
  -3.5450000000000002E-002    -1.2648099044956930E-012
  -3.5400000000000001E-002    -6.4697248495322706E-013
  -3.5349999999999999E-002     1.9872596249703620E-013
  -3.5299999999999998E-002     1.1697630437676212E-012
  -3.5250000000000004E-002     2.1270967221936026E-012
  -3.5200000000000002E-002     2.9178853567813546E-012
  -3.5150000000000001E-002     3.4029088096770194E-012
  -3.5099999999999999E-002     3.4833465195201798E-012
  -3.5049999999999998E-002     3.1213964483370240E-012
  -3.5000000000000003E-002     2.3501984368823361E-012
  -3.4950000000000002E-002     1.2704853082839294E-012
  -3.4900000000000000E-002     3.3990708784375721E-014
  -3.4849999999999999E-002    -1.1836078518003897E-012
  -3.4799999999999998E-002    -2.2150597433226785E-012
  -3.4750000000000003E-002    -2.9326618851767150E-012
  -3.4700000000000002E-002    -3.2714656730675364E-012
  -3.4650000000000000E-002    -3.2393026268382878E-012
  -3.4599999999999999E-002    -2.9110704156800889E-012
  -3.4549999999999997E-002    -2.4082305071859353E-012
  -3.4500000000000003E-002    -1.8679924747529051E-012
  -3.4450000000000001E-002    -1.4092999426686413E-012
  -3.4400000000000000E-002    -1.1037249728462290E-012
  -3.4349999999999999E-002    -9.5832420566449517E-013
  -3.4299999999999997E-002    -9.1458856493662733E-013
  -3.4250000000000003E-002    -8.6352461083791079E-013
  -3.4200000000000001E-002    -6.7283801370128340E-013
  -3.4150000000000000E-002    -2.1928010067693899E-013
  -3.4099999999999998E-002     5.8159862673103121E-013
  -3.4049999999999997E-002     1.7545660529062324E-012
  -3.4000000000000002E-002     3.2558176889109165E-012
  -3.3950000000000001E-002     4.9754729436669963E-012
  -3.3900000000000000E-002     6.7480304808029601E-012
  -3.3849999999999998E-002     8.3663671216463400E-012
  -3.3799999999999997E-002     9.5961033291262125E-012
  -3.3750000000000002E-002     1.0189880250526539E-011
  -3.3700000000000001E-002     9.9040438891961788E-012
  -3.3649999999999999E-002     8.5218268353227524E-012
  -3.3599999999999998E-002     5.8863739533411577E-012
  -3.3550000000000003E-002     1.9436200573447978E-012
  -3.3500000000000002E-002    -3.2100100921095181E-012
  -3.3450000000000001E-002    -9.2851143395941453E-012
  -3.3399999999999999E-002    -1.5775297179482029E-011
  -3.3349999999999998E-002    -2.1964813474448511E-011
  -3.3300000000000003E-002    -2.6977196555122102E-011
  -3.3250000000000002E-002    -2.9867023085042377E-011
  -3.3200000000000000E-002    -2.9748100690670895E-011
  -3.3149999999999999E-002    -2.5942477862056710E-011
  -3.3099999999999997E-002    -1.8127988599330683E-011
  -3.3050000000000003E-002    -6.4588270621022689E-012
  -3.3000000000000002E-002     8.3651591057242770E-012
  -3.2950000000000000E-002     2.5098819665239554E-011
  -3.2899999999999999E-002     4.2030156528438798E-011
  -3.2850000000000004E-002     5.7132612180301924E-011
  -3.2800000000000003E-002     6.8272914505795227E-011
  -3.2750000000000001E-002     7.3443911481335257E-011
  -3.2700000000000000E-002     7.0983388271699532E-011
  -3.2649999999999998E-002     5.9738256424923708E-011
  -3.2600000000000004E-002     3.9140407781607784E-011
  -3.2550000000000003E-002     9.1757999244633848E-012
  -3.2500000000000001E-002    -2.9749644413690449E-011
  -3.2450000000000000E-002    -7.7019638471806005E-011
  -3.2399999999999998E-002    -1.3204504941360117E-010
  -3.2350000000000004E-002    -1.9447038495248882E-010
  -3.2300000000000002E-002    -2.6429394983980090E-010
  -3.2250000000000001E-002    -3.4186452517890758E-010
  -3.2199999999999999E-002    -4.2774642431679565E-010
  -3.2149999999999998E-002    -5.2248029133094631E-010
  -3.2100000000000004E-002    -6.2629574111651830E-010
  -3.2050000000000002E-002    -7.3884956378212318E-010
  -3.2000000000000001E-002    -8.5906049233837718E-010
  -3.1949999999999999E-002    -9.8509090911530270E-010
  -3.1899999999999998E-002    -1.1144894688440613E-009
  -3.1850000000000003E-002    -1.2444717996983712E-009
  -3.1800000000000002E-002    -1.3722774131758673E-009
  -3.1750000000000000E-002    -1.4955295544274474E-009
  -3.1699999999999999E-002    -1.6125212338854423E-009
  -3.1649999999999998E-002    -1.7223750597705239E-009
  -3.1600000000000003E-002    -1.8250556763115095E-009
  -3.1550000000000002E-002    -1.9212529530145885E-009
  -3.1500000000000000E-002    -2.0121771434013605E-009
  -3.1449999999999999E-002    -2.0993266764459190E-009
  -3.1399999999999997E-002    -2.1842800102147027E-009
  -3.1350000000000003E-002    -2.2685472903342307E-009
  -3.1300000000000001E-002    -2.3534903644821859E-009
  -3.1250000000000000E-002    -2.4402966956773304E-009
  -3.1199999999999999E-002    -2.5299728866341458E-009
  -3.1150000000000001E-002    -2.6233265602311046E-009
  -3.1100000000000003E-002    -2.7209126018570125E-009
  -3.1050000000000001E-002    -2.8229468047329036E-009
  -3.1000000000000000E-002    -2.9292069610550521E-009
  -3.0949999999999998E-002    -3.0389615127251630E-009
  -3.0900000000000000E-002    -3.1509687340173423E-009
  -3.0850000000000002E-002    -3.2635789689231843E-009
  -3.0800000000000001E-002    -3.3749454977310076E-009
  -3.0750000000000000E-002    -3.4833220191436028E-009
  -3.0699999999999998E-002    -3.5873938575175224E-009
  -3.0650000000000000E-002    -3.6865737011882623E-009
  -3.0600000000000002E-002    -3.7811939289981141E-009
  -3.0550000000000001E-002    -3.8725428945466894E-009
  -3.0499999999999999E-002    -3.9627230185536345E-009
  -3.0449999999999998E-002    -4.0543538440883086E-009
  -3.0400000000000000E-002    -4.1501727028900131E-009
  -3.0350000000000002E-002    -4.2526082560367121E-009
  -3.0300000000000001E-002    -4.3634182776187261E-009
  -3.0249999999999999E-002    -4.4834649988460736E-009
  -3.0200000000000001E-002    -4.6126727187891193E-009
  -3.0150000000000000E-002    -4.7501773908559400E-009
  -3.0100000000000002E-002    -4.8946367604353311E-009
  -3.0050000000000000E-002    -5.0446333945915776E-009
  -2.9999999999999999E-002    -5.1990828389541261E-009
  -2.9950000000000001E-002    -5.3575512460230686E-009
  -2.9899999999999999E-002    -5.5204131287713982E-009
  -2.9850000000000002E-002    -5.6887931055663456E-009
  -2.9800000000000000E-002    -5.8643024430315063E-009
  -2.9749999999999999E-002    -6.0486136722445495E-009
  -2.9700000000000001E-002    -6.2429643373915815E-009
  -2.9650000000000003E-002    -6.4477084480898793E-009
  -2.9600000000000001E-002    -6.6620279392810580E-009
  -2.9550000000000000E-002    -6.8838953668750217E-009
  -2.9499999999999998E-002    -7.1103224600719628E-009
  -2.9450000000000000E-002    -7.3378637663031389E-009
  -2.9400000000000003E-002    -7.5632728024896885E-009
  -2.9350000000000001E-002    -7.7841634136838698E-009
  -2.9300000000000000E-002    -7.9995187117413814E-009
  -2.9249999999999998E-002    -8.2099020336359701E-009
  -2.9200000000000000E-002    -8.4173166752163224E-009
  -2.9150000000000002E-002    -8.6247278606729687E-009
  -2.9100000000000001E-002    -8.8353635503391361E-009
  -2.9049999999999999E-002    -9.0519800089096922E-009
  -2.8999999999999998E-002    -9.2762677274544065E-009
  -2.8950000000000000E-002    -9.5085677740586868E-009
  -2.8900000000000002E-002    -9.7479540635075997E-009
  -2.8850000000000001E-002    -9.9926426708890285E-009
  -2.8799999999999999E-002    -1.0240610632831934E-008
  -2.8749999999999998E-002    -1.0490225321311962E-008
  -2.8700000000000000E-002    -1.0740721847772881E-008
  -2.8650000000000002E-002    -1.0992391511836357E-008
  -2.8600000000000000E-002    -1.1246471670221438E-008
  -2.8549999999999999E-002    -1.1504792608279244E-008
  -2.8500000000000001E-002    -1.1769327268455690E-008
  -2.8450000000000000E-002    -1.2041801422541174E-008
  -2.8400000000000002E-002    -1.2323485042285979E-008
  -2.8350000000000000E-002    -1.2615238534029528E-008
  -2.8299999999999999E-002    -1.2917763266922112E-008
  -2.8250000000000001E-002    -1.3231982875575059E-008
  -2.8200000000000003E-002    -1.3559386372167176E-008
  -2.8150000000000001E-002    -1.3902236588371628E-008
  -2.8100000000000000E-002    -1.4263543053542138E-008
  -2.8049999999999999E-002    -1.4646800178567024E-008
  -2.8000000000000001E-002    -1.5055546255865066E-008
  -2.7950000000000003E-002    -1.5492868264772503E-008
  -2.7900000000000001E-002    -1.5960959495154348E-008
  -2.7850000000000000E-002    -1.6460838346014066E-008
  -2.7799999999999998E-002    -1.6992286581769379E-008
  -2.7750000000000000E-002    -1.7553991283503029E-008
  -2.7700000000000002E-002    -1.8143835003210034E-008
  -2.7650000000000001E-002    -1.8759249562194252E-008
  -2.7600000000000000E-002    -1.9397563439478623E-008
  -2.7549999999999998E-002    -2.0056259539865780E-008
  -2.7500000000000000E-002    -2.0733109502144781E-008
  -2.7450000000000002E-002    -2.1426192879847706E-008
  -2.7400000000000001E-002    -2.2133784241437072E-008
  -2.7349999999999999E-002    -2.2854156896564920E-008
  -2.7299999999999998E-002    -2.3585349512616592E-008
  -2.7250000000000000E-002    -2.4324913952590325E-008
  -2.7200000000000002E-002    -2.5069723200076683E-008
  -2.7150000000000001E-002    -2.5815878500676171E-008
  -2.7099999999999999E-002    -2.6558773613831373E-008
  -2.7049999999999998E-002    -2.7293345814226229E-008
  -2.7000000000000000E-002    -2.8014485425970207E-008
  -2.6950000000000002E-002    -2.8717569803694273E-008
  -2.6900000000000000E-002    -2.9399007607202199E-008
  -2.6849999999999999E-002    -3.0056679061451336E-008
  -2.6800000000000001E-002    -3.0690136688329105E-008
  -2.6749999999999999E-002    -3.1300500711181895E-008
  -2.6700000000000002E-002    -3.1890029440807290E-008
  -2.6650000000000000E-002    -3.2461438707065394E-008
  -2.6599999999999999E-002    -3.3017104294819734E-008
  -2.6550000000000001E-002    -3.3558385481105161E-008
  -2.6500000000000003E-002    -3.4085225320645076E-008
  -2.6450000000000001E-002    -3.4596239964990730E-008
  -2.6400000000000000E-002    -3.5089261581386856E-008
  -2.6349999999999998E-002    -3.5562298231679922E-008
  -2.6300000000000000E-002    -3.6014642845709591E-008
  -2.6250000000000002E-002    -3.6447841705449652E-008
  -2.6200000000000001E-002    -3.6866224397807971E-008
  -2.6150000000000000E-002    -3.7276787611688229E-008
  -2.6099999999999998E-002    -3.7688419446907167E-008
  -2.6050000000000000E-002    -3.8110619719045505E-008
  -2.6000000000000002E-002    -3.8552066539248274E-008
  -2.5950000000000001E-002    -3.9019383418592386E-008
  -2.5899999999999999E-002    -3.9516520233407507E-008
  -2.5849999999999998E-002    -4.0044852456925681E-008
  -2.5800000000000000E-002    -4.0604042694208574E-008
  -2.5750000000000002E-002    -4.1193364268144380E-008
  -2.5700000000000001E-002    -4.1813101102594114E-008
  -2.5649999999999999E-002    -4.2465570827849153E-008
  -2.5599999999999998E-002    -4.3155448617088134E-008
  -2.5550000000000000E-002    -4.3889273297922387E-008
  -2.5500000000000002E-002    -4.4674248184069716E-008
  -2.5450000000000000E-002    -4.5516679818764649E-008
  -2.5399999999999999E-002    -4.6420494874106430E-008
  -2.5349999999999998E-002    -4.7386300757403859E-008
  -2.5300000000000000E-002    -4.8411275396090408E-008
  -2.5250000000000002E-002    -4.9489916149755658E-008
  -2.5200000000000000E-002    -5.0615501305327410E-008
  -2.5149999999999999E-002    -5.1781791338817496E-008
  -2.5100000000000001E-002    -5.2984536711082537E-008
  -2.5049999999999999E-002    -5.4222317086906685E-008
  -2.5000000000000001E-002    -5.5496503343891070E-008
  -2.4950000000000000E-002    -5.6810324104237742E-008
  -2.4899999999999999E-002    -5.8167385461430199E-008
  -2.4850000000000001E-002    -5.9570015871900708E-008
  -2.4800000000000003E-002    -6.1018009948142586E-008
  -2.4750000000000001E-002    -6.2508136556256234E-008
  -2.4700000000000000E-002    -6.4034578694107722E-008
  -2.4649999999999998E-002    -6.5590227932165750E-008
  -2.4600000000000000E-002    -6.7168482773708413E-008
  -2.4550000000000002E-002    -6.8765028230726404E-008
  -2.4500000000000001E-002    -7.0379045021236839E-008
  -2.4450000000000000E-002    -7.2013466816906163E-008
  -2.4399999999999998E-002    -7.3674168061582567E-008
  -2.4350000000000000E-002    -7.5368177186041480E-008
  -2.4299999999999999E-002    -7.7101497098456754E-008
  -2.4250000000000001E-002    -7.8877006922133913E-008
  -2.4199999999999999E-002    -8.0693255346224828E-008
  -2.4150000000000001E-002    -8.2544450677930289E-008
  -2.4100000000000000E-002    -8.4421838677558868E-008
  -2.4049999999999998E-002    -8.6316127827841709E-008
  -2.4000000000000000E-002    -8.8220309124221380E-008
  -2.3949999999999999E-002    -9.0132055150193424E-008
  -2.3900000000000001E-002    -9.2054961654907813E-008
  -2.3850000000000000E-002    -9.3998128011468303E-008
  -2.3800000000000002E-002    -9.5974126472281646E-008
  -2.3750000000000000E-002    -9.7995844961601938E-008
  -2.3699999999999999E-002    -1.0007311868452128E-007
  -2.3650000000000001E-002    -1.0221010490634564E-007
  -2.3599999999999999E-002    -1.0440427931212859E-007
  -2.3550000000000001E-002    -1.0664736745354277E-007
  -2.3500000000000000E-002    -1.0892801494162427E-007
  -2.3449999999999999E-002    -1.1123549686741117E-007
  -2.3400000000000001E-002    -1.1356333115625130E-007
  -2.3349999999999999E-002    -1.1591164654544900E-007
  -2.3300000000000001E-002    -1.1828758260104197E-007
  -2.3250000000000000E-002    -1.2070351721131907E-007
  -2.3199999999999998E-002    -1.2317343911732401E-007
  -2.3150000000000000E-002    -1.2570859181580237E-007
  -2.3099999999999999E-002    -1.2831361342033819E-007
  -2.3050000000000001E-002    -1.3098441577519539E-007
  -2.3000000000000000E-002    -1.3370850392124539E-007
  -2.2950000000000002E-002    -1.3646779871442688E-007
  -2.2900000000000000E-002    -1.3924326094406151E-007
  -2.2849999999999999E-002    -1.4202014321114195E-007
  -2.2800000000000001E-002    -1.4479213901059044E-007
  -2.2749999999999999E-002    -1.4756343716280281E-007
  -2.2700000000000001E-002    -1.5034790480528713E-007
  -2.2650000000000000E-002    -1.5316549491997241E-007
  -2.2599999999999999E-002    -1.5603690925377872E-007
  -2.2550000000000001E-002    -1.5897804484168760E-007
  -2.2499999999999999E-002    -1.6199569004869553E-007
  -2.2450000000000001E-002    -1.6508591058468767E-007
  -2.2400000000000000E-002    -1.6823549627206311E-007
  -2.2349999999999998E-002    -1.7142618420965373E-007
  -2.2300000000000000E-002    -1.7464038561129354E-007
  -2.2249999999999999E-002    -1.7786678255660662E-007
  -2.2200000000000001E-002    -1.8110413472088922E-007
  -2.2150000000000000E-002    -1.8436206939718932E-007
  -2.2100000000000002E-002    -1.8765854033611188E-007
  -2.2050000000000000E-002    -1.9101465529111153E-007
  -2.1999999999999999E-002    -1.9444845545430716E-007
  -2.1950000000000001E-002    -1.9796920136049064E-007
  -2.1899999999999999E-002    -2.0157424744724856E-007
  -2.1850000000000001E-002    -2.0524922397283725E-007
  -2.1800000000000000E-002    -2.0897173985380922E-007
  -2.1749999999999999E-002    -2.1271749225802442E-007
  -2.1700000000000001E-002    -2.1646717069573628E-007
  -2.1649999999999999E-002    -2.2021191790084739E-007
  -2.1600000000000001E-002    -2.2395605147760617E-007
  -2.1550000000000000E-002    -2.2771582997049762E-007
  -2.1499999999999998E-002    -2.3151499913425670E-007
  -2.1450000000000000E-002    -2.3537801144180531E-007
  -2.1399999999999999E-002    -2.3932311674388474E-007
  -2.1350000000000001E-002    -2.4335708547682570E-007
  -2.1299999999999999E-002    -2.4747314860337494E-007
  -2.1250000000000002E-002    -2.5165255942514439E-007
  -2.1200000000000000E-002    -2.5586961536602730E-007
  -2.1149999999999999E-002    -2.6009826983648318E-007
  -2.1100000000000001E-002    -2.6431867943597633E-007
  -2.1049999999999999E-002    -2.6852201225335493E-007
  -2.1000000000000001E-002    -2.7271201279059779E-007
  -2.0950000000000000E-002    -2.7690303227719856E-007
  -2.0899999999999998E-002    -2.8111518145619999E-007
  -2.0850000000000000E-002    -2.8536800820346996E-007
  -2.0799999999999999E-002    -2.8967442456128832E-007
  -2.0750000000000001E-002    -2.9403666779430365E-007
  -2.0700000000000000E-002    -2.9844524257913429E-007
  -2.0649999999999998E-002    -3.0288124133256671E-007
  -2.0600000000000000E-002    -3.0732136611630949E-007
  -2.0549999999999999E-002    -3.1174414315728603E-007
  -2.0500000000000001E-002    -3.1613554033483799E-007
  -2.0449999999999999E-002    -3.2049258709954934E-007
  -2.0400000000000001E-002    -3.2482391875276077E-007
  -2.0350000000000000E-002    -3.2914723854839056E-007
  -2.0299999999999999E-002    -3.3348413740379868E-007
  -2.0250000000000001E-002    -3.3785405802606858E-007
  -2.0199999999999999E-002    -3.4226906737376097E-007
  -2.0150000000000001E-002    -3.4673042342929084E-007
  -2.0100000000000000E-002    -3.5122838721650721E-007
  -2.0049999999999998E-002    -3.5574485746796074E-007
  -2.0000000000000000E-002    -3.6025799535792807E-007
  -1.9949999999999999E-002    -3.6474782009301953E-007
  -1.9900000000000001E-002    -3.6920088878859428E-007
  -1.9850000000000000E-002    -3.7361286242266645E-007
  -1.9799999999999998E-002    -3.7798847825864707E-007
  -1.9750000000000000E-002    -3.8233914926526939E-007
  -1.9699999999999999E-002    -3.8667850801775207E-007
  -1.9650000000000001E-002    -3.9101795238495980E-007
  -1.9599999999999999E-002    -3.9536275719094712E-007
  -1.9550000000000001E-002    -3.9971016711811186E-007
  -1.9500000000000000E-002    -4.0404965829469658E-007
  -1.9449999999999999E-002    -4.0836501740718560E-007
  -1.9400000000000001E-002    -4.1263779272477921E-007
  -1.9349999999999999E-002    -4.1685089421893906E-007
  -1.9300000000000001E-002    -4.2099122464238032E-007
  -1.9250000000000000E-002    -4.2505126123684156E-007
  -1.9199999999999998E-002    -4.2902890092498947E-007
  -1.9150000000000000E-002    -4.3292604659998949E-007
  -1.9099999999999999E-002    -4.3674659682379685E-007
  -1.9050000000000001E-002    -4.4049409862735287E-007
  -1.9000000000000000E-002    -4.4416997402749088E-007
  -1.8949999999999998E-002    -4.4777234602112503E-007
  -1.8900000000000000E-002    -4.5129556283586971E-007
  -1.8849999999999999E-002    -4.5473049013058053E-007
  -1.8800000000000001E-002    -4.5806538398637580E-007
  -1.8749999999999999E-002    -4.6128697832447484E-007
  -1.8700000000000001E-002    -4.6438171885467421E-007
  -1.8650000000000000E-002    -4.6733709110545479E-007
  -1.8599999999999998E-002    -4.7014270357768553E-007
  -1.8550000000000001E-002    -4.7279094558781871E-007
  -1.8499999999999999E-002    -4.7527732731247664E-007
  -1.8450000000000001E-002    -4.7760001372323086E-007
  -1.8400000000000000E-002    -4.7975919619215562E-007
  -1.8349999999999998E-002    -4.8175543392939112E-007
  -1.8300000000000000E-002    -4.8358803529616467E-007
  -1.8249999999999999E-002    -4.8525338516366882E-007
  -1.8200000000000001E-002    -4.8674359808690749E-007
  -1.8149999999999999E-002    -4.8804592609234604E-007
  -1.8100000000000002E-002    -4.8914333475949132E-007
  -1.8050000000000000E-002    -4.9001605957536099E-007
  -1.7999999999999999E-002    -4.9064408237543691E-007
  -1.7950000000000001E-002    -4.9100975180218440E-007
  -1.7899999999999999E-002    -4.9110065431485738E-007
  -1.7850000000000001E-002    -4.9091101090603637E-007
  -1.7800000000000000E-002    -4.9044170500303119E-007
  -1.7749999999999998E-002    -4.8969859865469225E-007
  -1.7700000000000000E-002    -4.8868876804405439E-007
  -1.7649999999999999E-002    -4.8741654877387437E-007
  -1.7600000000000001E-002    -4.8587945918811395E-007
  -1.7550000000000000E-002    -4.8406561454644884E-007
  -1.7499999999999998E-002    -4.8195325403206618E-007
  -1.7450000000000000E-002    -4.7951289401897587E-007
  -1.7399999999999999E-002    -4.7671158540433141E-007
  -1.7350000000000001E-002    -4.7351793966432049E-007
  -1.7299999999999999E-002    -4.6990744237661683E-007
  -1.7250000000000001E-002    -4.6586531199521767E-007
  -1.7200000000000000E-002    -4.6138730526115005E-007
  -1.7149999999999999E-002    -4.5647717017061062E-007
  -1.7100000000000001E-002    -4.5114197155578374E-007
  -1.7049999999999999E-002    -4.4538586847507154E-007
  -1.7000000000000001E-002    -4.3920493527950147E-007
  -1.6950000000000000E-002    -4.3258357451359739E-007
  -1.6899999999999998E-002    -4.2549416277344081E-007
  -1.6850000000000000E-002    -4.1790015312758860E-007
  -1.6799999999999999E-002    -4.0976128350129224E-007
  -1.6750000000000001E-002    -4.0104030879381297E-007
  -1.6700000000000000E-002    -3.9170845009204489E-007
  -1.6649999999999998E-002    -3.8174882012989096E-007
  -1.6600000000000000E-002    -3.7115658681856862E-007
  -1.6549999999999999E-002    -3.5993554533249751E-007
  -1.6500000000000001E-002    -3.4809258544201334E-007
  -1.6449999999999999E-002    -3.3563095464590547E-007
  -1.6400000000000001E-002    -3.2254446403073186E-007
  -1.6350000000000000E-002    -3.0881390272153034E-007
  -1.6299999999999999E-002    -2.9440671277172016E-007
  -1.6250000000000001E-002    -2.7927971972952093E-007
  -1.6199999999999999E-002    -2.6338431473572260E-007
  -1.6150000000000001E-002    -2.4667308700952912E-007
  -1.6100000000000000E-002    -2.2910588444781342E-007
  -1.6049999999999998E-002    -2.1065398046286611E-007
  -1.6000000000000000E-002    -1.9130131390960472E-007
  -1.5949999999999999E-002    -1.7104260934854306E-007
  -1.5900000000000001E-002    -1.4987865107176507E-007
  -1.5850000000000000E-002    -1.2780992080436774E-007
  -1.5799999999999998E-002    -1.0483029610560090E-007
  -1.5750000000000000E-002    -8.0922578185642829E-008
  -1.5699999999999999E-002    -5.6056576415317837E-008
  -1.5650000000000001E-002    -3.0190947677960964E-008
  -1.5599999999999999E-002    -3.2776645392054082E-009
  -1.5550000000000001E-002     2.4731696943890048E-008
  -1.5500000000000000E-002     5.3879924939119450E-008
  -1.5449999999999998E-002     8.4199803721119593E-008
  -1.5400000000000000E-002     1.1571254742472974E-007
  -1.5349999999999999E-002     1.4842963670038535E-007
  -1.5300000000000001E-002     1.8235720759610677E-007
  -1.5250000000000000E-002     2.1750205295925069E-007
  -1.5199999999999998E-002     2.5387722938429599E-007
  -1.5150000000000000E-002     2.9150659339372058E-007
  -1.5099999999999999E-002     3.3042631801933121E-007
  -1.5050000000000001E-002     3.7068393576795518E-007
  -1.4999999999999999E-002     4.1233457760639662E-007
  -1.4949999999999998E-002     4.5543577240260288E-007
  -1.4900000000000000E-002     5.0004195523871688E-007
  -1.4849999999999999E-002     5.4619994243565441E-007
  -1.4800000000000001E-002     5.9394648897432126E-007
  -1.4749999999999999E-002     6.4330832082745881E-007
  -1.4700000000000001E-002     6.9430459166646638E-007
  -1.4650000000000000E-002     7.4695091361569123E-007
  -1.4599999999999998E-002     8.0126450574109004E-007
  -1.4550000000000000E-002     8.5726846881116491E-007
  -1.4499999999999999E-002     9.1499532942410264E-007
  -1.4450000000000001E-002     9.7448773115851164E-007
  -1.4400000000000000E-002     1.0357978104525644E-006
  -1.4349999999999998E-002     1.0989840542399915E-006
  -1.4300000000000000E-002     1.1641070123734297E-006
  -1.4249999999999999E-002     1.2312250788134005E-006
  -1.4200000000000001E-002     1.3003904904514579E-006
  -1.4149999999999999E-002     1.3716470172875519E-006
  -1.4099999999999998E-002     1.4450301767249551E-006
  -1.4050000000000000E-002     1.5205690532570937E-006
  -1.3999999999999999E-002     1.5982903954319957E-006
  -1.3950000000000001E-002     1.6782240782862232E-006
  -1.3899999999999999E-002     1.7604067723743459E-006
  -1.3850000000000001E-002     1.8448848912650394E-006
  -1.3800000000000000E-002     1.9317149868836117E-006
  -1.3749999999999998E-002     2.0209615592194728E-006
  -1.3700000000000000E-002     2.1126927418339513E-006
  -1.3649999999999999E-002     2.2069755191390845E-006
  -1.3600000000000001E-002     2.3038705573561002E-006
  -1.3550000000000000E-002     2.4034300186881118E-006
  -1.3499999999999998E-002     2.5056969617887519E-006
  -1.3450000000000000E-002     2.6107067934269375E-006
  -1.3399999999999999E-002     2.7184908786838839E-006
  -1.3350000000000001E-002     2.8290813671767660E-006
  -1.3299999999999999E-002     2.9425153514553019E-006
  -1.3249999999999998E-002     3.0588379670836958E-006
  -1.3200000000000000E-002     3.1781044232250488E-006
  -1.3149999999999998E-002     3.3003791108709976E-006
  -1.3100000000000001E-002     3.4257335336941559E-006
  -1.3049999999999999E-002     3.5542424298312149E-006
  -1.3000000000000001E-002     3.6859784933956599E-006
  -1.2950000000000000E-002     3.8210099598283446E-006
  -1.2899999999999998E-002     3.9593974545461432E-006
  -1.2850000000000000E-002     4.1011931356750522E-006
  -1.2799999999999999E-002     4.2464448350365323E-006