  -4.0000000000000001E-002     0.0000000000000000     
  -3.9949999999999999E-002     0.0000000000000000     
  -3.9899999999999998E-002     0.0000000000000000     
  -3.9850000000000003E-002     0.0000000000000000     
  -3.9800000000000002E-002     0.0000000000000000     
  -3.9750000000000001E-002     0.0000000000000000     
  -3.9699999999999999E-002     0.0000000000000000     
  -3.9649999999999998E-002     0.0000000000000000     
  -3.9600000000000003E-002     0.0000000000000000     
  -3.9550000000000002E-002     0.0000000000000000     
  -3.9500000000000000E-002     0.0000000000000000     
  -3.9449999999999999E-002     0.0000000000000000     
  -3.9399999999999998E-002     0.0000000000000000     
  -3.9350000000000003E-002     0.0000000000000000     
  -3.9300000000000002E-002     0.0000000000000000     
  -3.9250000000000000E-002     0.0000000000000000     
  -3.9199999999999999E-002     0.0000000000000000     
  -3.9150000000000004E-002     0.0000000000000000     
  -3.9100000000000003E-002     0.0000000000000000     
  -3.9050000000000001E-002     0.0000000000000000     
  -3.9000000000000000E-002     0.0000000000000000     
  -3.8949999999999999E-002     0.0000000000000000     
  -3.8900000000000004E-002     0.0000000000000000     
  -3.8850000000000003E-002     0.0000000000000000     
  -3.8800000000000001E-002     0.0000000000000000     
  -3.8750000000000000E-002     0.0000000000000000     
  -3.8699999999999998E-002     0.0000000000000000     
  -3.8650000000000004E-002     0.0000000000000000     
  -3.8600000000000002E-002     0.0000000000000000     
  -3.8550000000000001E-002     0.0000000000000000     
  -3.8500000000000000E-002     0.0000000000000000     
  -3.8449999999999998E-002     0.0000000000000000     
  -3.8400000000000004E-002     0.0000000000000000     
  -3.8350000000000002E-002     0.0000000000000000     
  -3.8300000000000001E-002     0.0000000000000000     
  -3.8249999999999999E-002     0.0000000000000000     
  -3.8199999999999998E-002     0.0000000000000000     
  -3.8150000000000003E-002     0.0000000000000000     
  -3.8100000000000002E-002     0.0000000000000000     
  -3.8050000000000000E-002     0.0000000000000000     
  -3.7999999999999999E-002     0.0000000000000000     
  -3.7949999999999998E-002     0.0000000000000000     
  -3.7900000000000003E-002     0.0000000000000000     
  -3.7850000000000002E-002     0.0000000000000000     
  -3.7800000000000000E-002     0.0000000000000000     
  -3.7749999999999999E-002     0.0000000000000000     
  -3.7699999999999997E-002     0.0000000000000000     
  -3.7650000000000003E-002     0.0000000000000000     
  -3.7600000000000001E-002     0.0000000000000000     
  -3.7550000000000000E-002     0.0000000000000000     
  -3.7499999999999999E-002     0.0000000000000000     
  -3.7449999999999997E-002     0.0000000000000000     
  -3.7400000000000003E-002     0.0000000000000000     
  -3.7350000000000001E-002     0.0000000000000000     
  -3.7300000000000000E-002     0.0000000000000000     
  -3.7249999999999998E-002     0.0000000000000000     
  -3.7200000000000004E-002     0.0000000000000000     
  -3.7150000000000002E-002     0.0000000000000000     
  -3.7100000000000001E-002     0.0000000000000000     
  -3.7050000000000000E-002     0.0000000000000000     
  -3.6999999999999998E-002     0.0000000000000000     
  -3.6950000000000004E-002     0.0000000000000000     
  -3.6900000000000002E-002     0.0000000000000000     
  -3.6850000000000001E-002     0.0000000000000000     
  -3.6799999999999999E-002     0.0000000000000000     
  -3.6749999999999998E-002     0.0000000000000000     
  -3.6700000000000003E-002     0.0000000000000000     
  -3.6650000000000002E-002     0.0000000000000000     
  -3.6600000000000001E-002     0.0000000000000000     
  -3.6549999999999999E-002     0.0000000000000000     
  -3.6499999999999998E-002     0.0000000000000000     
  -3.6450000000000003E-002     0.0000000000000000     
  -3.6400000000000002E-002     0.0000000000000000     
  -3.6350000000000000E-002     0.0000000000000000     
  -3.6299999999999999E-002     0.0000000000000000     
  -3.6249999999999998E-002     0.0000000000000000     
  -3.6200000000000003E-002     0.0000000000000000     
  -3.6150000000000002E-002     1.0255436788506002E-039
  -3.6100000000000000E-002     2.2425543968908680E-039
  -3.6049999999999999E-002     2.9447562872814732E-039
  -3.6000000000000004E-002     7.0071776352061703E-040
  -3.5950000000000003E-002    -5.4627561151705305E-039
  -3.5900000000000001E-002    -1.6455027441937304E-038
  -3.5850000000000000E-002    -3.1178581015888329E-038
  -3.5799999999999998E-002    -4.5624959475649857E-038
  -3.5750000000000004E-002    -4.5123535524036838E-038
  -3.5700000000000003E-002    -1.0305859481872345E-038
  -3.5650000000000001E-002     5.8885674213834848E-038
  -3.5600000000000000E-002     1.8097897676676777E-037
  -3.5549999999999998E-002     3.5268597808113951E-037
  -3.5500000000000004E-002     5.2860804782637551E-037
  -3.5450000000000002E-002     6.4074079933543580E-037
  -3.5400000000000001E-002     5.5354377528894637E-037
  -3.5349999999999999E-002     1.1260496448046455E-037
  -3.5299999999999998E-002    -8.1562619152766591E-037
  -3.5250000000000004E-002    -2.2607975311814335E-036
  -3.5200000000000002E-002    -4.0357104621281687E-036
  -3.5150000000000001E-002    -5.6426191792220604E-036
  -3.5099999999999999E-002    -6.2300888549543422E-036
  -3.5049999999999998E-002    -4.6735444795566802E-036
  -3.5000000000000003E-002     1.5302594121283185E-037
  -3.4950000000000002E-002     8.8879956396686703E-036
  -3.4900000000000000E-002     2.1030164994448357E-035
  -3.4849999999999999E-002     3.4291481665511709E-035
  -3.4799999999999998E-002     4.4248890995206024E-035
  -3.4750000000000003E-002     4.4656256306841564E-035
  -3.4700000000000002E-002     2.8730615674864161E-035
  -3.4650000000000000E-002    -8.4991580261566302E-036
  -3.4599999999999999E-002    -6.7112700142765705E-035
  -3.4549999999999997E-002    -1.3934976224986415E-034
  -3.4500000000000003E-002    -2.0811365338518268E-034
  -3.4450000000000001E-002    -2.4836198025135828E-034
  -3.4400000000000000E-002    -2.3232343867697084E-034
  -3.4349999999999999E-002    -1.3825669509685568E-034
  -3.4299999999999997E-002     3.9298544453241688E-035
  -3.4250000000000003E-002     2.8153966413404278E-034
  -3.4200000000000001E-002     5.4419587888803165E-034
  -3.4150000000000000E-002     7.6643009093509900E-034
  -3.4099999999999998E-002     8.8960649731243142E-034
  -3.4049999999999997E-002     8.8027587681538234E-034
  -3.4000000000000002E-002     7.4640864857603591E-034
  -3.3950000000000001E-002     5.3372728027388866E-034
  -3.3900000000000000E-002     2.9311673123739020E-034
  -3.3849999999999998E-002     2.2118009750904635E-035
  -3.3799999999999997E-002    -3.9841130552561710E-034
  -3.3750000000000002E-002    -1.2335716423261615E-033
  -3.3700000000000001E-002    -2.8432247399283239E-033
  -3.3649999999999999E-002    -5.5172063545443681E-033
  -3.3599999999999998E-002    -9.2035588125290478E-033
  -3.3550000000000003E-002    -1.3197633044166024E-032
  -3.3500000000000002E-002    -1.5924011911232856E-032
  -3.3450000000000001E-002    -1.4980014190157214E-032
  -3.3399999999999999E-002    -7.5868938584625907E-033
  -3.3349999999999998E-002     8.5065095890584180E-033
  -3.3300000000000003E-002     3.3793336309235741E-032
  -3.3250000000000002E-002     6.5770521718930305E-032
  -3.3200000000000000E-002     9.8151692134772843E-032
  -3.3149999999999999E-002     1.2099572505609550E-031
  -3.3099999999999997E-002     1.2204000644387175E-031
  -3.3050000000000003E-002     8.9194741254457983E-032
  -3.3000000000000002E-002     1.3773154121417354E-032
  -3.2950000000000000E-002    -1.0623345708075417E-031
  -3.2899999999999999E-002    -2.6352455601450728E-031
  -3.2850000000000004E-002    -4.3988413584209422E-031
  -3.2800000000000003E-002    -6.0551279550289177E-031
  -3.2750000000000001E-002    -7.1892084460599270E-031
  -3.2700000000000000E-002    -7.2729265734095232E-031
  -3.2649999999999998E-002    -5.6833708751337383E-031
  -3.2600000000000004E-002    -1.7635016544254034E-031
  -3.2550000000000003E-002     5.0329829510007405E-031
  -3.2500000000000001E-002     1.4871686380260944E-030
  -3.2450000000000000E-002     2.7133871448889010E-030
  -3.2399999999999998E-002     3.9941717465198626E-030
  -3.2350000000000004E-002     4.9776729918493913E-030
  -3.2300000000000002E-002     5.1456398388007908E-030
  -3.2250000000000001E-002     3.8781200343470381E-030
  -3.2199999999999999E-002     6.0956009112238875E-031
  -3.2149999999999998E-002    -4.9223776819472978E-030
  -3.2100000000000004E-002    -1.2373093813820075E-029
  -3.2050000000000002E-002    -2.0518104806836941E-029
  -3.2000000000000001E-002    -2.7137580612317939E-029
  -3.1949999999999999E-002    -2.9198187629319721E-029
  -3.1899999999999998E-002    -2.3436395905838750E-029
  -3.1850000000000003E-002    -7.3515137486916870E-030
  -3.1800000000000002E-002     1.9532245932632432E-029
  -3.1750000000000000E-002     5.4445864479030481E-029
  -3.1699999999999999E-002     9.0646742376742201E-029
  -3.1649999999999998E-002     1.1766826648153960E-028
  -3.1600000000000003E-002     1.2291598656264840E-028
  -3.1550000000000002E-002     9.4678786349316920E-029
  -3.1500000000000000E-002     2.6174931436493738E-029
  -3.1449999999999999E-002    -8.0245216540334377E-029
  -3.1399999999999997E-002    -2.1001331246645644E-028
  -3.1350000000000003E-002    -3.3576737943353932E-028
  -3.1300000000000001E-002    -4.2038976711232479E-028
  -3.1250000000000000E-002    -4.2402290905303781E-028
  -3.1199999999999999E-002    -3.1433766734755252E-028
  -3.1150000000000001E-002    -7.8137066673549402E-029
  -3.1100000000000003E-002     2.6856993508890521E-028
  -3.1050000000000001E-002     6.7523905185112059E-028
  -3.1000000000000000E-002     1.0589227904595470E-027
  -3.0949999999999998E-002     1.3152157856579036E-027
  -3.0900000000000000E-002     1.3373728354535188E-027
  -3.0850000000000002E-002     1.0408309933220619E-027
  -3.0800000000000001E-002     3.8867857163503986E-028
  -3.0750000000000000E-002    -5.8713485696510637E-028
  -3.0699999999999998E-002    -1.7736679814746185E-027
  -3.0650000000000000E-002    -2.9774215157523304E-027
  -3.0600000000000002E-002    -3.9390869806490134E-027
  -3.0550000000000001E-002    -4.3628490151321392E-027
  -3.0499999999999999E-002    -3.9596137095178264E-027
  -3.0449999999999998E-002    -2.5031289545764693E-027
  -3.0400000000000000E-002     1.0285969827516202E-028
  -3.0350000000000002E-002     3.7508471191569796E-027
  -3.0300000000000001E-002     8.0591173213781599E-027
  -3.0249999999999999E-002     1.2322963588414245E-026
  -3.0200000000000001E-002     1.5515444347226132E-026
  -3.0150000000000000E-002     1.6371755311933894E-026
  -3.0100000000000002E-002     1.3588333123487667E-026
  -3.0050000000000000E-002     6.1496755614520361E-027
  -2.9999999999999999E-002    -6.2403707254697616E-027
  -2.9950000000000001E-002    -2.2697569019991652E-026
  -2.9899999999999999E-002    -4.0796813895555955E-026
  -2.9850000000000002E-002    -5.6483359755986779E-026
  -2.9800000000000000E-002    -6.4429489776291860E-026
  -2.9749999999999999E-002    -5.8953676812967121E-026
  -2.9700000000000001E-002    -3.5493373896781759E-026
  -2.9650000000000003E-002     7.5612098903644326E-027
  -2.9600000000000001E-002     6.7071254744589091E-026
  -2.9550000000000000E-002     1.3395838366131114E-025
  -2.9499999999999998E-002     1.9324374794365380E-025
  -2.9450000000000000E-002     2.2582519770346038E-025
  -2.9400000000000003E-002     2.1217623721189608E-025
  -2.9350000000000001E-002     1.3764060478998722E-025
  -2.9300000000000000E-002    -1.6055634091001498E-027
  -2.9249999999999998E-002    -1.9339609741709947E-025
  -2.9200000000000000E-002    -4.0698864170277194E-025
  -2.9150000000000002E-002    -5.9469110852609413E-025
  -2.9100000000000001E-002    -6.9869488785121767E-025
  -2.9049999999999999E-002    -6.6296313278271890E-025
  -2.8999999999999998E-002    -4.4856579982713386E-025
  -2.8950000000000000E-002    -4.9406813466188739E-026
  -2.8900000000000002E-002     4.9572868591883596E-025
  -2.8850000000000001E-002     1.0990677632128320E-024
  -2.8799999999999999E-002     1.6310321928610068E-024
  -2.8749999999999998E-002     1.9400206341760665E-024
  -2.8700000000000000E-002     1.8832120261958670E-024
  -2.8650000000000002E-002     1.3636395615894650E-024
  -2.8600000000000000E-002     3.6608779519098462E-025
  -2.8549999999999999E-002    -1.0170738895373072E-024
  -2.8500000000000001E-002    -2.5785898646328250E-024
  -2.8450000000000000E-002    -4.0135240857271907E-024
  -2.8400000000000002E-002    -4.9626122506821276E-024
  -2.8350000000000000E-002    -5.0779466069275704E-024
  -2.8299999999999999E-002    -4.1016681775715863E-024
  -2.8250000000000001E-002    -1.9439031603771346E-024
  -2.8200000000000003E-002     1.2561368623142559E-024
  -2.8150000000000001E-002     5.1015859085336715E-024
  -2.8100000000000000E-002     8.9542928430316583E-024
  -2.8049999999999999E-002     1.2002707650693521E-023
  -2.8000000000000001E-002     1.3380178183565184E-023
  -2.7950000000000003E-002     1.2323742913267916E-023
  -2.7900000000000001E-002     8.3545673959019244E-024
  -2.7850000000000000E-002     1.4529533300071135E-024
  -2.7799999999999998E-002    -7.8056806114347768E-024
  -2.7750000000000000E-002    -1.8190742151713821E-023
  -2.7700000000000002E-002    -2.7867589656843002E-023
  -2.7650000000000001E-002    -3.4586479069222074E-023
  -2.7600000000000000E-002    -3.6018284283876881E-023
  -2.7549999999999998E-002    -3.0218928068992452E-023
  -2.7500000000000000E-002    -1.6169421873960749E-023
  -2.7450000000000002E-002     5.6995336553218401E-024
  -2.7400000000000001E-002     3.3121679056274705E-023
  -2.7349999999999999E-002     6.1886808113093542E-023
  -2.7299999999999998E-002     8.6135671284711201E-023
  -2.7250000000000000E-002     9.9133264485452119E-023
  -2.7200000000000002E-002     9.4506338912967278E-023
  -2.7150000000000001E-002     6.7811134690983328E-023
  -2.7099999999999999E-002     1.8167880456785363E-023
  -2.7049999999999998E-002    -5.0408879127690032E-023
  -2.7000000000000000E-002    -1.2840395729037944E-022
  -2.6950000000000002E-002    -2.0129738963775322E-022
  -2.6900000000000000E-002    -2.5138793225445016E-022
  -2.6849999999999999E-002    -2.6091202580506289E-022
  -2.6800000000000001E-002    -2.1609768905968356E-022
  -2.6749999999999999E-002    -1.1145872182080944E-022
  -2.6700000000000002E-002     4.6622887349545294E-023
  -2.6650000000000000E-002     2.3807011299498021E-022
  -2.6599999999999999E-002     4.2994441044347235E-022
  -2.6550000000000001E-002     5.8044480461091677E-022
  -2.6500000000000003E-002     6.4595974103763888E-022
  -2.6450000000000001E-002     5.9031122839399410E-022
  -2.6400000000000000E-002     3.9461276985202691E-022
  -2.6349999999999998E-002     6.5654005725691271E-023
  -2.6300000000000000E-002    -3.5941528950321366E-022
  -2.6250000000000002E-002    -8.1398003981346341E-022
  -2.6200000000000001E-002    -1.2094624024956093E-021
  -2.6150000000000000E-002    -1.4492132446326919E-021
  -2.6099999999999998E-002    -1.4471249656372823E-021
  -2.6050000000000000E-002    -1.1479562323564220E-021
  -2.6000000000000002E-002    -5.4541780007458608E-022
  -2.5950000000000001E-002     3.0618347143266700E-022
  -2.5899999999999999E-002     1.2903624807596066E-021
  -2.5849999999999998E-002     2.2391270841579120E-021
  -2.5800000000000000E-002     2.9560064657475346E-021
  -2.5750000000000002E-002     3.2491033838991325E-021
  -2.5700000000000001E-002     2.9695252965104218E-021
  -2.5649999999999999E-002     2.0487652120076117E-021
  -2.5599999999999998E-002     5.2778602477359377E-022
  -2.5550000000000000E-002    -1.4290574668993291E-021
  -2.5500000000000002E-002    -3.5404806335638790E-021
  -2.5450000000000000E-002    -5.4375573001692422E-021
  -2.5399999999999999E-002    -6.7147025959935333E-021
  -2.5349999999999998E-002    -6.9972682847602687E-021
  -2.5300000000000000E-002    -6.0169645187315687E-021
  -2.5250000000000002E-002    -3.6833604068238421E-021
  -2.5200000000000000E-002    -1.3812223943088534E-022
  -2.5149999999999999E-002     4.2211468366352627E-021
  -2.5100000000000001E-002     8.7581974846454116E-021
  -2.5049999999999999E-002     1.2662620132808657E-020
  -2.5000000000000001E-002     1.5060689967527301E-020
  -2.4950000000000000E-002     1.5163320300138594E-020
  -2.4899999999999999E-002     1.2432803844878117E-020
  -2.4850000000000001E-002     6.7419036745157423E-021
  -2.4800000000000003E-002    -1.5065574488322142E-021
  -2.4750000000000001E-002    -1.1332247765919088E-020
  -2.4700000000000000E-002    -2.1229155472004132E-020
  -2.4649999999999998E-002    -2.9331446521059396E-020
  -2.4600000000000000E-002    -3.3689156844484701E-020
  -2.4550000000000002E-002    -3.2626250305891665E-020
  -2.4500000000000001E-002    -2.5129895978344520E-020
  -2.4450000000000000E-002    -1.1200429198479237E-020
  -2.4399999999999998E-002     7.9179222890853011E-021
  -2.4350000000000000E-002     2.9700341762334852E-020
  -2.4299999999999999E-002     5.0551112614620824E-020
  -2.4250000000000001E-002     6.6273485189048702E-020
  -2.4199999999999999E-002     7.2762310229215463E-020
  -2.4150000000000001E-002     6.6828079528470235E-020
  -2.4100000000000000E-002     4.7013583571469179E-020
  -2.4049999999999998E-002     1.4236941396264239E-020
  -2.4000000000000000E-002    -2.7904098817618512E-020
  -2.3949999999999999E-002    -7.3295163464965300E-020
  -2.3900000000000001E-002    -1.1399421154193236E-019
  -2.3850000000000000E-002    -1.4140970609438837E-019
  -2.3800000000000002E-002    -1.4782606103876785E-019
  -2.3750000000000000E-002    -1.2803974577394099E-019
  -2.3699999999999999E-002    -8.0806508508475277E-020
  -2.3650000000000001E-002    -9.7872821697728499E-021
  -2.3599999999999999E-002     7.6272838763382426E-020
  -2.3550000000000001E-002     1.6429242886753912E-019
  -2.3500000000000000E-002     2.3853510917001673E-019
  -2.3449999999999999E-002     2.8305595273414890E-019
  -2.3400000000000001E-002     2.8457706616547969E-019
  -2.3349999999999999E-002     2.3533009408643079E-019
  -2.3300000000000001E-002     1.3534594543798506E-019
  -2.3250000000000000E-002    -6.2983461256651190E-021
  -2.3199999999999998E-002    -1.7164520934980783E-019
  -2.3150000000000000E-002    -3.3560459977246497E-019
  -2.3099999999999999E-002    -4.6920492211086908E-019
  -2.3050000000000001E-002    -5.4400011603763001E-019
  -2.3000000000000000E-002    -5.3705046012004319E-019
  -2.2950000000000002E-002    -4.3572203501679908E-019
  -2.2900000000000000E-002    -2.4148291443757977E-019
  -2.2849999999999999E-002     2.8077204171569255E-020
  -2.2800000000000001E-002     3.3959926818926980E-019
  -2.2749999999999999E-002     6.4698396186984560E-019
  -2.2700000000000001E-002     8.9702558671094339E-019
  -2.2650000000000000E-002     1.0371553442732601E-018
  -2.2599999999999999E-002     1.0243852579972573E-018
  -2.2550000000000001E-002     8.3419496858991214E-019
  -2.2499999999999999E-002     4.6789421817065399E-019
  -2.2450000000000001E-002    -4.3032240477355459E-020
  -2.2400000000000000E-002    -6.3687626079324238E-019
  -2.2349999999999998E-002    -1.2267681436421081E-018
  -2.2300000000000000E-002    -1.7109638402385631E-018
  -2.2249999999999999E-002    -1.9875975214083451E-018
  -2.2200000000000001E-002    -1.9722198857100559E-018
  -2.2150000000000000E-002    -1.6156036235535119E-018
  -2.2100000000000002E-002    -9.1873876552074310E-019
  -2.2050000000000000E-002     5.8183101009139195E-020
  -2.1999999999999999E-002     1.1955576241846515E-018
  -2.1950000000000001E-002     2.3246444781914455E-018
  -2.1899999999999999E-002     3.2484633293522941E-018
  -2.1850000000000001E-002     3.7715113921405107E-018
  -2.1800000000000000E-002     3.7345362600838773E-018
  -2.1749999999999999E-002     3.0489496072093175E-018
  -2.1700000000000001E-002     1.7245657864481782E-018
  -2.1649999999999999E-002    -1.1555199169776121E-019
  -2.1600000000000001E-002    -2.2380160806595683E-018
  -2.1550000000000000E-002    -4.3222465063851723E-018
  -2.1499999999999998E-002    -6.0028752680884365E-018
  -2.1450000000000000E-002    -6.9268257897830968E-018
  -2.1399999999999999E-002    -6.8170255760430935E-018
  -2.1350000000000001E-002    -5.5323298160179402E-018
  -2.1299999999999999E-002    -3.1123983633912534E-018
  -2.1250000000000002E-002     2.0259218987578774E-019
  -2.1200000000000000E-002     3.9843674800731962E-018
  -2.1149999999999999E-002     7.6632834288228857E-018
  -2.1100000000000001E-002     1.0605721586271308E-017
  -2.1049999999999999E-002     1.2212732244026327E-017
  -2.1000000000000001E-002     1.2025679819968416E-017
  -2.0950000000000000E-002     9.8218033765193269E-018
  -2.0899999999999998E-002     5.6824045431640544E-018
  -2.0850000000000000E-002     1.9072988880046665E-020
  -2.0799999999999999E-002    -6.4511943956124604E-018
  -2.0750000000000001E-002    -1.2783815333438080E-017
  -2.0700000000000000E-002    -1.7930719102267461E-017
  -2.0649999999999998E-002    -2.0896161500280968E-017
  -2.0600000000000000E-002    -2.0903049397302082E-017
  -2.0549999999999999E-002    -1.7544913389340030E-017
  -2.0500000000000001E-002    -1.0898191984827305E-017
  -2.0449999999999999E-002    -1.5728279661781680E-018
  -2.0400000000000001E-002     9.3139126593805038E-018
  -2.0350000000000000E-002     2.0245727076557673E-017
  -2.0299999999999999E-002     2.9491585674835521E-017
  -2.0250000000000001E-002     3.5347734895335795E-017
  -2.0199999999999999E-002     3.6408348097670960E-017
  -2.0150000000000001E-002     3.1827493331255498E-017
  -2.0100000000000000E-002     2.1531103661798029E-017
  -2.0049999999999998E-002     6.3390992650748804E-018
  -2.0000000000000000E-002    -1.2034643394496552E-017
  -1.9949999999999999E-002    -3.1123016620787749E-017
  -1.9900000000000001E-002    -4.7986804397540024E-017
  -1.9850000000000000E-002    -5.9613692913089697E-017
  -1.9799999999999998E-002    -6.3389927157064803E-017
  -1.9750000000000000E-002    -5.7580056574074197E-017
  -1.9699999999999999E-002    -4.1738022811082688E-017
  -1.9650000000000001E-002    -1.6971079497492212E-017
  -1.9599999999999999E-002     1.4010370694930387E-017
  -1.9550000000000001E-002     4.7099184254973793E-017
  -1.9500000000000000E-002     7.7259503391410938E-017
  -1.9449999999999999E-002     9.9218081449187195E-017
  -1.9400000000000001E-002     1.0829622945764343E-016
  -1.9349999999999999E-002     1.0126258388507993E-016
  -1.9300000000000001E-002     7.7065437375738947E-017
  -1.9250000000000000E-002     3.7303329552786545E-017
  -1.9199999999999998E-002    -1.3681849584128623E-017
  -1.9150000000000000E-002    -6.9156442598990973E-017
  -1.9099999999999999E-002    -1.2078969283901514E-016
  -1.9050000000000001E-002    -1.5981437213916450E-016
  -1.9000000000000000E-002    -1.7840326343065836E-016
  -1.8949999999999998E-002    -1.7105697825648410E-016
  -1.8900000000000000E-002    -1.3577291808166945E-016
  -1.8849999999999999E-002    -7.4777021084896390E-017
  -1.8800000000000001E-002     5.3499352333600343E-018
  -1.8749999999999999E-002     9.4235700451888432E-017
  -1.8700000000000001E-002     1.7894865513097273E-016
  -1.8650000000000000E-002     2.4576595432698015E-016
  -1.8599999999999998E-002     2.8224643247135454E-016
  -1.8550000000000001E-002     2.7930894477244695E-016
  -1.8499999999999999E-002     2.3299081141540393E-016
  -1.8450000000000001E-002     1.4558457762839742E-016
  -1.8400000000000000E-002     2.5924755834424887E-017
  -1.8349999999999998E-002    -1.1129349624173061E-016
  -1.8300000000000000E-002    -2.4714424049604396E-016
  -1.8249999999999999E-002    -3.6088936019017420E-016
  -1.8200000000000001E-002    -4.3289884711329112E-016
  -1.8149999999999999E-002    -4.4769130327230996E-016
  -1.8100000000000002E-002    -3.9666496235712616E-016
  -1.8050000000000000E-002    -2.8009867961051195E-016
  -1.7999999999999999E-002    -1.0806532099962270E-016
  -1.7950000000000001E-002     9.9982539893144881E-017
  -1.7899999999999999E-002     3.1703507135473077E-016
  -1.7850000000000001E-002     5.1165283329915813E-016
  -1.7800000000000000E-002     6.5209838715325341E-016
  -1.7749999999999998E-002     7.1100110231582476E-016
  -1.7700000000000000E-002     6.6994322010139171E-016
  -1.7649999999999999E-002     5.2328959255034939E-016
  -1.7600000000000001E-002     2.8059611622889282E-016
  -1.7550000000000000E-002    -3.2950329703203522E-017
  -1.7499999999999998E-002    -3.7839422725107322E-016
  -1.7450000000000000E-002    -7.0720981323530784E-016
  -1.7399999999999999E-002    -9.6751160977993258E-016
  -1.7350000000000001E-002    -1.1115936717987698E-015
  -1.7299999999999999E-002    -1.1037989762327716E-015
  -1.7250000000000001E-002    -9.2752435151330790E-016
  -1.7200000000000000E-002    -5.9013039334453034E-016
  -1.7149999999999999E-002    -1.2469545288522313E-016
  -1.7100000000000001E-002     4.1208061361336561E-016
  -1.7049999999999999E-002     9.4597029249223545E-016
  -1.7000000000000001E-002     1.3948221265865946E-015
  -1.6950000000000000E-002     1.6805387038801194E-015
  -1.6899999999999998E-002     1.7417612982542393E-015
  -1.6850000000000000E-002     1.5452851645774605E-015
  -1.6799999999999999E-002     1.0942169004409177E-015
  -1.6750000000000001E-002     4.3121531478488472E-016
  -1.6700000000000000E-002    -3.6420093717532468E-016
  -1.6649999999999998E-002    -1.1844157851599435E-015
  -1.6600000000000000E-002    -1.9077016007705328E-015
  -1.6549999999999999E-002    -2.4156666329104769E-015
  -1.6500000000000001E-002    -2.6116925241764860E-015
  -1.6449999999999999E-002    -2.4375497320251333E-015
  -1.6400000000000001E-002    -1.8854676491736704E-015
  -1.6350000000000000E-002    -1.0034700735852218E-015
  -1.6299999999999999E-002     1.0730415583407450E-016
  -1.6250000000000001E-002     1.3034187584518648E-015
  -1.6199999999999999E-002     2.4169884297785306E-015
  -1.6150000000000001E-002     3.2783691783247432E-015
  -1.6100000000000000E-002     3.7406584718390129E-015
  -1.6049999999999998E-002     3.7026030368034639E-015
  -1.6000000000000000E-002     3.1265678147651169E-015
  -1.5949999999999999E-002     2.0487669200492952E-015
  -1.5900000000000001E-002     5.7988262553586748E-016
  -1.5850000000000000E-002    -1.1046101401238160E-015
  -1.5799999999999998E-002    -2.7837692767716451E-015
  -1.5750000000000000E-002    -4.2182375152542966E-015
  -1.5699999999999999E-002    -5.1820002196891566E-015
  -1.5650000000000001E-002    -5.4950095513073171E-015
  -1.5599999999999999E-002    -5.0524163055203840E-015
  -1.5550000000000001E-002    -3.8462252964523018E-015
  -1.5500000000000000E-002    -1.9757363140783863E-015
  -1.5449999999999998E-002     3.5581047026883401E-016
  -1.5400000000000000E-002     2.8594089006089019E-015
  -1.5349999999999999E-002     5.1925163925639976E-015
  -1.5300000000000001E-002     7.0024329459376637E-015
  -1.5250000000000000E-002     7.9760448397536483E-015
  -1.5199999999999998E-002     7.8895184017784364E-015
  -1.5150000000000000E-002     6.6506518118016287E-015
  -1.5099999999999999E-002     4.3266548171221961E-015
  -1.5050000000000001E-002     1.1513257722871094E-015
  -1.4999999999999999E-002    -2.4920133708484919E-015
  -1.4949999999999998E-002    -6.1121922033098474E-015
  -1.4900000000000000E-002    -9.1729494135340316E-015
  -1.4849999999999999E-002    -1.1169397009412050E-014
  -1.4800000000000001E-002    -1.1707732140093580E-014
  -1.4749999999999999E-002    -1.0575914243557518E-014
  -1.4700000000000001E-002    -7.7931413545766160E-015
  -1.4650000000000000E-002    -3.6281145616678583E-015
  -1.4599999999999998E-002     1.4198232107023202E-015
  -1.4550000000000000E-002     6.6770356034949127E-015
  -1.4499999999999999E-002     1.1383740696149030E-014
  -1.4450000000000001E-002     1.4802484779536826E-014
  -1.4400000000000000E-002     1.6331372695066376E-014
  -1.4349999999999998E-002     1.5604537236123880E-014
  -1.4300000000000000E-002     1.2563291908525948E-014
  -1.4249999999999999E-002     7.4851247257689670E-015
  -1.4200000000000001E-002     9.6371906974645772E-016
  -1.4149999999999999E-002    -6.1594095024483258E-015
  -1.4099999999999998E-002    -1.2903459924822221E-014
  -1.4050000000000000E-002    -1.8282599632405293E-014
  -1.3999999999999999E-002    -2.1446964888256613E-014
  -1.3950000000000001E-002    -2.1810148409705282E-014
  -1.3899999999999999E-002    -1.9144590660336204E-014
  -1.3850000000000001E-002    -1.3630595307780356E-014
  -1.3800000000000000E-002    -5.8511635444139580E-015
  -1.3749999999999998E-002     3.2678696452912688E-015
  -1.3700000000000000E-002     1.2565640545442556E-014
  -1.3649999999999999E-002     2.0789143846155067E-014
  -1.3600000000000001E-002     2.6753987541449344E-014
  -1.3550000000000000E-002     2.9503494376339489E-014
  -1.3499999999999998E-002     2.8446716789806837E-014
  -1.3450000000000000E-002     2.3457839607654885E-014
  -1.3399999999999999E-002     1.4923128681406936E-014
  -1.3350000000000001E-002     3.7266711474736714E-015
  -1.3299999999999999E-002    -8.8277211388874809E-015
  -1.3249999999999998E-002    -2.1154330690763344E-014
  -1.3200000000000000E-002    -3.1571506451577611E-014
  -1.3149999999999998E-002    -3.8517439329413329E-014
  -1.3100000000000001E-002    -4.0771158703459145E-014
  -1.3049999999999999E-002    -3.7650083736589530E-014
  -1.3000000000000001E-002    -2.9154382441749700E-014
  -1.2950000000000000E-002    -1.6031406423891588E-014
  -1.2899999999999998E-002     2.5923137817220280E-016
  -1.2850000000000000E-002     1.7687128765959312E-014
  -1.2799999999999999E-002     3.3891422196377321E-014