  -4.0000000000000001E-002     0.0000000000000000     
  -3.9949999999999999E-002     0.0000000000000000     
  -3.9899999999999998E-002     0.0000000000000000     
  -3.9850000000000003E-002     0.0000000000000000     
  -3.9800000000000002E-002     0.0000000000000000     
  -3.9750000000000001E-002     0.0000000000000000     
  -3.9699999999999999E-002     0.0000000000000000     
  -3.9649999999999998E-002     0.0000000000000000     
  -3.9600000000000003E-002     0.0000000000000000     
  -3.9550000000000002E-002     0.0000000000000000     
  -3.9500000000000000E-002     0.0000000000000000     
  -3.9449999999999999E-002     0.0000000000000000     
  -3.9399999999999998E-002     0.0000000000000000     
  -3.9350000000000003E-002     0.0000000000000000     
  -3.9300000000000002E-002     0.0000000000000000     
  -3.9250000000000000E-002     0.0000000000000000     
  -3.9199999999999999E-002     0.0000000000000000     
  -3.9150000000000004E-002     0.0000000000000000     
  -3.9100000000000003E-002     0.0000000000000000     
  -3.9050000000000001E-002     0.0000000000000000     
  -3.9000000000000000E-002     0.0000000000000000     
  -3.8949999999999999E-002     0.0000000000000000     
  -3.8900000000000004E-002     0.0000000000000000     
  -3.8850000000000003E-002     0.0000000000000000     
  -3.8800000000000001E-002     0.0000000000000000     
  -3.8750000000000000E-002     0.0000000000000000     
  -3.8699999999999998E-002     0.0000000000000000     
  -3.8650000000000004E-002     0.0000000000000000     
  -3.8600000000000002E-002     0.0000000000000000     
  -3.8550000000000001E-002     0.0000000000000000     
  -3.8500000000000000E-002     0.0000000000000000     
  -3.8449999999999998E-002     0.0000000000000000     
  -3.8400000000000004E-002     0.0000000000000000     
  -3.8350000000000002E-002     0.0000000000000000     
  -3.8300000000000001E-002     0.0000000000000000     
  -3.8249999999999999E-002     0.0000000000000000     
  -3.8199999999999998E-002     0.0000000000000000     
  -3.8150000000000003E-002     0.0000000000000000     
  -3.8100000000000002E-002     0.0000000000000000     
  -3.8050000000000000E-002     0.0000000000000000     
  -3.7999999999999999E-002     0.0000000000000000     
  -3.7949999999999998E-002     0.0000000000000000     
  -3.7900000000000003E-002     0.0000000000000000     
  -3.7850000000000002E-002     0.0000000000000000     
  -3.7800000000000000E-002     0.0000000000000000     
  -3.7749999999999999E-002     0.0000000000000000     
  -3.7699999999999997E-002     0.0000000000000000     
  -3.7650000000000003E-002     0.0000000000000000     
  -3.7600000000000001E-002     0.0000000000000000     
  -3.7550000000000000E-002     0.0000000000000000     
  -3.7499999999999999E-002     0.0000000000000000     
  -3.7449999999999997E-002     0.0000000000000000     
  -3.7400000000000003E-002     0.0000000000000000     
  -3.7350000000000001E-002     0.0000000000000000     
  -3.7300000000000000E-002     0.0000000000000000     
  -3.7249999999999998E-002     0.0000000000000000     
  -3.7200000000000004E-002     0.0000000000000000     
  -3.7150000000000002E-002     0.0000000000000000     
  -3.7100000000000001E-002     0.0000000000000000     
  -3.7050000000000000E-002     0.0000000000000000     
  -3.6999999999999998E-002     0.0000000000000000     
  -3.6950000000000004E-002     0.0000000000000000     
  -3.6900000000000002E-002     0.0000000000000000     
  -3.6850000000000001E-002     0.0000000000000000     
  -3.6799999999999999E-002     0.0000000000000000     
  -3.6749999999999998E-002     0.0000000000000000     
  -3.6700000000000003E-002     0.0000000000000000     
  -3.6650000000000002E-002     0.0000000000000000     
  -3.6600000000000001E-002     0.0000000000000000     
  -3.6549999999999999E-002     0.0000000000000000     
  -3.6499999999999998E-002     0.0000000000000000     
  -3.6450000000000003E-002     0.0000000000000000     
  -3.6400000000000002E-002     0.0000000000000000     
  -3.6350000000000000E-002     0.0000000000000000     
  -3.6299999999999999E-002     0.0000000000000000     
  -3.6249999999999998E-002     0.0000000000000000     
  -3.6200000000000003E-002     0.0000000000000000     
  -3.6150000000000002E-002     0.0000000000000000     
  -3.6100000000000000E-002     0.0000000000000000     
  -3.6049999999999999E-002     0.0000000000000000     
  -3.6000000000000004E-002     0.0000000000000000     
  -3.5950000000000003E-002     0.0000000000000000     
  -3.5900000000000001E-002     0.0000000000000000     
  -3.5850000000000000E-002     0.0000000000000000     
  -3.5799999999999998E-002     0.0000000000000000     
  -3.5750000000000004E-002     0.0000000000000000     
  -3.5700000000000003E-002     0.0000000000000000     
  -3.5650000000000001E-002     0.0000000000000000     
  -3.5600000000000000E-002     0.0000000000000000     
  -3.5549999999999998E-002     0.0000000000000000     
  -3.5500000000000004E-002     0.0000000000000000     
  -3.5450000000000002E-002     0.0000000000000000     
  -3.5400000000000001E-002     0.0000000000000000     
  -3.5349999999999999E-002     0.0000000000000000     
  -3.5299999999999998E-002     0.0000000000000000     
  -3.5250000000000004E-002     0.0000000000000000     
  -3.5200000000000002E-002     0.0000000000000000     
  -3.5150000000000001E-002     0.0000000000000000     
  -3.5099999999999999E-002     1.5788384955996856E-038
  -3.5049999999999998E-002     3.6996773769441669E-038
  -3.5000000000000003E-002     5.4538177499115013E-038
  -3.4950000000000002E-002     5.4538177499115013E-038
  -3.4900000000000000E-002     0.0000000000000000     
  -3.4849999999999999E-002    -9.7617175149081405E-038
  -3.4799999999999998E-002    -2.4935554621584562E-037
  -3.4750000000000003E-002    -4.3944275909872765E-037
  -3.4700000000000002E-002    -6.2244641945483545E-037
  -3.4650000000000000E-002    -6.8325550847529345E-037
  -3.4599999999999999E-002    -4.9453544721575757E-037
  -3.4549999999999997E-002     8.1990107672297622E-038
  -3.4500000000000003E-002     1.1264360798873734E-036
  -3.4450000000000001E-002     2.5720114502621757E-036
  -3.4400000000000000E-002     4.1248214434583521E-036
  -3.4349999999999999E-002     5.2319051655586666E-036
  -3.4299999999999997E-002     5.1375416821294826E-036
  -3.4250000000000003E-002     3.0605750342592649E-036
  -3.4200000000000001E-002    -1.5107003689822790E-036
  -3.4150000000000000E-002    -8.4570468978062038E-036
  -3.4099999999999998E-002    -1.6719193044031856E-035
  -3.4049999999999997E-002    -2.4195737460627668E-035
  -3.4000000000000002E-002    -2.7997098502391673E-035
  -3.3950000000000001E-002    -2.5125841625997293E-035
  -3.3900000000000000E-002    -1.3493690785715417E-035
  -3.3849999999999998E-002     7.0012914191893254E-036
  -3.3799999999999997E-002     3.3775230078393458E-035
  -3.3750000000000002E-002     6.1694805072731512E-035
  -3.3700000000000001E-002     8.4308825344719038E-035
  -3.3649999999999999E-002     9.5991792782828088E-035
  -3.3599999999999998E-002     9.4237579833810689E-035
  -3.3550000000000003E-002     8.0867399180850005E-035
  -3.3500000000000002E-002     6.0870105098077221E-035
  -3.3450000000000001E-002     3.8254638417025207E-035
  -3.3399999999999999E-002     9.7211833089005511E-036
  -3.3349999999999998E-002    -4.1185585496063026E-035
  -3.3300000000000003E-002    -1.4524987910329682E-034
  -3.3250000000000002E-002    -3.3971777555214493E-034
  -3.3200000000000000E-002    -6.4908938383609517E-034
  -3.3149999999999999E-002    -1.0567773192419061E-033
  -3.3099999999999997E-002    -1.4758550143054676E-033
  -3.3050000000000003E-002    -1.7324628596960805E-033
  -3.3000000000000002E-002    -1.5771912598829876E-033
  -3.2950000000000000E-002    -7.3542140829807836E-034
  -3.2899999999999999E-002     1.0034849971504314E-033
  -3.2850000000000004E-002     3.6737210667470467E-033
  -3.2800000000000003E-002     7.0273307771941987E-033
  -3.2750000000000001E-002     1.0471906117979734E-032
  -3.2700000000000000E-002     1.3081970835809664E-032
  -3.2649999999999998E-002     1.3695085179311552E-032
  -3.2600000000000004E-002     1.1079175315822158E-032
  -3.2550000000000003E-002     4.1412541083194414E-033
  -3.2500000000000001E-002    -7.8465952384196383E-033
  -3.2450000000000000E-002    -2.4995958729698794E-032
  -3.2399999999999998E-002    -4.6472863531227923E-032
  -3.2350000000000004E-002    -7.0016146342180534E-032
  -3.2300000000000002E-002    -9.1278323590644956E-032
  -3.2250000000000001E-002    -1.0312215798167701E-031
  -3.2199999999999999E-002    -9.5268045456883865E-032
  -3.2149999999999998E-002    -5.4974790992759232E-032
  -3.2100000000000004E-002     3.0411243737482171E-032
  -3.2050000000000002E-002     1.6839643064230149E-031
  -3.2000000000000001E-002     3.5384700385599377E-031
  -3.1949999999999999E-002     5.6042346750311614E-031
  -3.1899999999999998E-002     7.3392459991329849E-031
  -3.1850000000000003E-002     7.9194126465745459E-031
  -3.1800000000000002E-002     6.3463078017843600E-031
  -3.1750000000000000E-002     1.6998340679062912E-031
  -3.1699999999999999E-002    -6.4687200218970704E-031
  -3.1649999999999998E-002    -1.7667823032972041E-030
  -3.1600000000000003E-002    -3.0055191905892114E-030
  -3.1550000000000002E-002    -4.0275656373297342E-030
  -3.1500000000000000E-002    -4.3749966284497309E-030
  -3.1449999999999999E-002    -3.5558568695424982E-030
  -3.1399999999999997E-002    -1.1921328621011146E-030
  -3.1350000000000003E-002     2.7940552800401271E-030
  -3.1300000000000001E-002     8.0014873548608232E-030
  -3.1250000000000000E-002     1.3442580247076955E-029
  -3.1199999999999999E-002     1.7577243387958695E-029
  -3.1150000000000001E-002     1.8540292619587379E-029
  -3.1100000000000003E-002     1.4572910036070593E-029
  -3.1050000000000001E-002     4.6061774348835756E-030
  -3.1000000000000000E-002    -1.1124887563978743E-029
  -3.0949999999999998E-002    -3.0614431932702596E-029
  -3.0900000000000000E-002    -4.9962913970062236E-029
  -3.0850000000000002E-002    -6.3759048311312847E-029
  -3.0800000000000001E-002    -6.6029749808400779E-029
  -3.0750000000000000E-002    -5.1674493930170249E-029
  -3.0699999999999998E-002    -1.8136948722453006E-029
  -3.0650000000000000E-002     3.3068650479366327E-029
  -3.0600000000000002E-002     9.5417575015116373E-029
  -3.0550000000000001E-002     1.5741161084742661E-028
  -3.0499999999999999E-002     2.0381830119370889E-028
  -3.0449999999999998E-002     2.1808924948862387E-028
  -3.0400000000000000E-002     1.8566448553791481E-028
  -3.0350000000000002E-002     9.7652929679193723E-029
  -3.0300000000000001E-002    -4.5727092863484326E-029
  -3.0249999999999999E-002    -2.3254111482768973E-028
  -3.0200000000000001E-002    -4.3784972468648977E-028
  -3.0150000000000000E-002    -6.2410843183462096E-028
  -3.0100000000000002E-002    -7.4359601447932165E-028
  -3.0050000000000000E-002    -7.4330062497410126E-028
  -2.9999999999999999E-002    -5.7281855815140699E-028
  -2.9950000000000001E-002    -1.9577790478775676E-028
  -2.9899999999999999E-002     3.9522123944567130E-028
  -2.9850000000000002E-002     1.1614164529301730E-027
  -2.9800000000000000E-002     2.0017686359583331E-027
  -2.9749999999999999E-002     2.7437558730068595E-027
  -2.9700000000000001E-002     3.1490231482284435E-027
  -2.9650000000000003E-002     2.9422580057009520E-027
  -2.9600000000000001E-002     1.8690175589726264E-027
  -2.9550000000000000E-002    -2.1846348175094262E-028
  -2.9499999999999998E-002    -3.2590509481723030E-027
  -2.9450000000000000E-002    -6.8883680911288741E-027
  -2.9400000000000003E-002    -1.0387822859423325E-026
  -2.9350000000000001E-002    -1.2717192756700910E-026
  -2.9300000000000000E-002    -1.2663989327173202E-026
  -2.9249999999999998E-002    -9.1207812824021616E-027
  -2.9200000000000000E-002    -1.4649482121764513E-027
  -2.9150000000000002E-002     1.0030280128223657E-026
  -2.9100000000000001E-002     2.3867636881410937E-026
  -2.9049999999999999E-002     3.7219351139821533E-026
  -2.8999999999999998E-002     4.6171782263552939E-026
  -2.8950000000000000E-002     4.6395609219457757E-026
  -2.8900000000000002E-002     3.4215362649764098E-026
  -2.8850000000000001E-002     7.9198299173525907E-027
  -2.8799999999999999E-002    -3.0978971422945477E-026
  -2.8749999999999998E-002    -7.6925043941479966E-026
  -2.8700000000000000E-002    -1.2033430927065879E-025
  -2.8650000000000002E-002    -1.4874295307875252E-025
  -2.8600000000000000E-002    -1.4915936070314442E-025
  -2.8549999999999999E-002    -1.1137236867523397E-025
  -2.8500000000000001E-002    -3.1619979456707859E-026
  -2.8450000000000000E-002     8.4263046570773284E-026
  -2.8400000000000002E-002     2.1922520976992111E-025
  -2.8350000000000000E-002     3.4579478656901157E-025
  -2.8299999999999999E-002     4.2979173433271667E-025
  -2.8250000000000001E-002     4.3682935968341962E-025
  -2.8200000000000003E-002     3.4073145819694722E-025
  -2.8150000000000001E-002     1.3228783228581127E-025
  -2.8100000000000000E-002    -1.7369362510880996E-025
  -2.8049999999999999E-002    -5.3514376309833677E-025
  -2.8000000000000001E-002    -8.8497453462178205E-025
  -2.7950000000000003E-002    -1.1395827444407108E-024
  -2.7900000000000001E-002    -1.2131558567661485E-024
  -2.7850000000000000E-002    -1.0359780918839618E-024
  -2.7799999999999998E-002    -5.7376585067608516E-025
  -2.7750000000000000E-002     1.5569207809665099E-025
  -2.7700000000000002E-002     1.0724683321691570E-024
  -2.7650000000000001E-002     2.0343847110045099E-024
  -2.7600000000000000E-002     2.8491180845492815E-024
  -2.7549999999999998E-002     3.2991870940202517E-024
  -2.7500000000000000E-002     3.1785219438815142E-024
  -2.7450000000000002E-002     2.3371611621266863E-024
  -2.7400000000000001E-002     7.2836340891864529E-025
  -2.7349999999999999E-002    -1.5497253341309562E-024
  -2.7299999999999998E-002    -4.2274716700604778E-024
  -2.7250000000000000E-002    -6.8626796677520878E-024
  -2.7200000000000002E-002    -8.8746859725972880E-024
  -2.7150000000000001E-002    -9.6200175330682044E-024
  -2.7099999999999999E-002    -8.5095869461647098E-024
  -2.7049999999999998E-002    -5.1578652657308122E-024
  -2.7000000000000000E-002     4.5740176740783893E-025
  -2.6950000000000002E-002     7.8582773504043702E-024
  -2.6900000000000000E-002     1.5994541395199573E-023
  -2.6849999999999999E-002     2.3279755474171570E-023
  -2.6800000000000001E-002     2.7768976714610716E-023
  -2.6749999999999999E-002     2.7488628170669652E-023
  -2.6700000000000002E-002     2.0893739958969320E-023
  -2.6650000000000000E-002     7.3851690665507414E-024
  -2.6599999999999999E-002    -1.2221291890060827E-023
  -2.6550000000000001E-002    -3.5408820058081199E-023
  -2.6500000000000003E-002    -5.7991916689633989E-023
  -2.6450000000000001E-002    -7.4567215905535460E-023
  -2.6400000000000000E-002    -7.9408928597419942E-023
  -2.6349999999999998E-002    -6.7730322523053236E-023
  -2.6300000000000000E-002    -3.7114346801499889E-023
  -2.6250000000000002E-002     1.1186999791146549E-023
  -2.6200000000000001E-002     7.1442929134964022E-023
  -2.6150000000000000E-002     1.3346565999301323E-022
  -2.6099999999999998E-002     1.8369823984469747E-022
  -2.6050000000000000E-002     2.0740653927246493E-022
  -2.6000000000000002E-002     1.9175555153465454E-022
  -2.5950000000000001E-002     1.2927803289841456E-022
  -2.5899999999999999E-002     2.1022769204070890E-023
  -2.5849999999999998E-002    -1.2143362530044578E-022
  -2.5800000000000000E-002    -2.7586087202344277E-022
  -2.5750000000000002E-002    -4.1162489404103552E-022
  -2.5700000000000001E-002    -4.9437092514859380E-022
  -2.5649999999999999E-002    -4.9265643378984818E-022
  -2.5599999999999998E-002    -3.8550569684739333E-022
  -2.5550000000000000E-002    -1.6943167144111375E-022
  -2.5500000000000002E-002     1.3671706696529560E-022
  -2.5450000000000000E-002     4.9059136002304786E-022
  -2.5399999999999999E-002     8.2988041011505607E-022
  -2.5349999999999998E-002     1.0807851814635145E-021
  -2.5300000000000000E-002     1.1706773583610634E-021
  -2.5250000000000002E-002     1.0431984458193066E-021
  -2.5200000000000000E-002     6.7324322951951121E-022
  -2.5149999999999999E-002     7.8823499142437325E-023
  -2.5100000000000001E-002    -6.7312660432328334E-022
  -2.5049999999999999E-002    -1.4693141971964982E-021
  -2.5000000000000001E-002    -2.1621733808247544E-021
  -2.4950000000000000E-002    -2.5910677401238497E-021
  -2.4899999999999999E-002    -2.6104600363887464E-021
  -2.4850000000000001E-002    -2.1212315755744308E-021
  -2.4800000000000003E-002    -1.1000175346021559E-021
  -2.4750000000000001E-002     3.7924996676011829E-022
  -2.4700000000000000E-002     2.1372400245873894E-021
  -2.4649999999999998E-002     3.8990438525490569E-021
  -2.4600000000000000E-002     5.3242158673571861E-021
  -2.4550000000000002E-002     6.0562315314786187E-021
  -2.4500000000000001E-002     5.7868364158698570E-021
  -2.4450000000000000E-002     4.3268719243397831E-021
  -2.4399999999999998E-002     1.6717918956678188E-021
  -2.4350000000000000E-002    -1.9520224512610108E-021
  -2.4299999999999999E-002    -6.0740716524046281E-021
  -2.4250000000000001E-002    -1.0010892778905496E-020
  -2.4199999999999999E-002    -1.2947064875009801E-020
  -2.4150000000000001E-002    -1.4063070461837350E-020
  -2.4100000000000000E-002    -1.2696672295269884E-020
  -2.4049999999999998E-002    -8.5139584030937739E-021
  -2.4000000000000000E-002    -1.6577122557443363E-021
  -2.3949999999999999E-002     7.1631845796981839E-021
  -2.3900000000000001E-002     1.6676912729890901E-020
  -2.3850000000000000E-002     2.5167349799902332E-020
  -2.3800000000000002E-002     3.0712650688597055E-020
  -2.3750000000000000E-002     3.1523937154926847E-020
  -2.3699999999999999E-002     2.6338194876402732E-020
  -2.3650000000000001E-002     1.4796626184394166E-020
  -2.3599999999999999E-002    -2.2735664981195175E-021
  -2.3550000000000001E-002    -2.2755053642389021E-020
  -2.3500000000000000E-002    -4.3376003922611105E-020
  -2.3449999999999999E-002    -6.0111208651879986E-020
  -2.3400000000000001E-002    -6.8824283322464625E-020
  -2.3349999999999999E-002    -6.6070986804187730E-020
  -2.3300000000000001E-002    -4.9933087256538830E-020
  -2.3250000000000000E-002    -2.0719103660954597E-020
  -2.3199999999999998E-002     1.8637448719502350E-020
  -2.3150000000000000E-002     6.2622903807806041E-020
  -2.3099999999999999E-002     1.0370878388755593E-019
  -2.3050000000000001E-002     1.3342442667525943E-019
  -2.3000000000000000E-002     1.4381898504775392E-019
  -2.2950000000000002E-002     1.2909668233386735E-019
  -2.2900000000000000E-002     8.7136284938541376E-020
  -2.2849999999999999E-002     2.0579882055278533E-020
  -2.2800000000000001E-002    -6.2793729528995312E-020
  -2.2749999999999999E-002    -1.5060415374207033E-019
  -2.2700000000000001E-002    -2.2736385209939465E-019
  -2.2650000000000000E-002    -2.7680999493142970E-019
  -2.2599999999999999E-002    -2.8477605442304507E-019
  -2.2550000000000001E-002    -2.4216032964977249E-019
  -2.2499999999999999E-002    -1.4746497746803745E-019
  -2.2450000000000001E-002    -8.3777450206610183E-021
  -2.2400000000000000E-002     1.5803753476859569E-019
  -2.2349999999999998E-002     3.2679362421586523E-019
  -2.2300000000000000E-002     4.6807705511689976E-019
  -2.2249999999999999E-002     5.5170666940723597E-019
  -2.2200000000000001E-002     5.5239540066476293E-019
  -2.2150000000000000E-002     4.5503536368787074E-019
  -2.2100000000000002E-002     2.5910499525095056E-019
  -2.2050000000000000E-002    -1.8698378972669977E-020
  -2.1999999999999999E-002    -3.4434347583270240E-019
  -2.1950000000000001E-002    -6.6931283075576435E-019
  -2.1899999999999999E-002    -9.3644248607485082E-019
  -2.1850000000000001E-002    -1.0882873073381741E-018
  -2.1800000000000000E-002    -1.0770441650547768E-018
  -2.1749999999999999E-002    -8.7462303959812373E-019
  -2.1700000000000001E-002    -4.8117065212936649E-019
  -2.1649999999999999E-002     6.9711686561020634E-020
  -2.1600000000000001E-002     7.1059074598459725E-019
  -2.1550000000000000E-002     1.3456648651267784E-018
  -2.1499999999999998E-002     1.8622503246044136E-018
  -2.1450000000000000E-002     2.1474491717180499E-018
  -2.1399999999999999E-002     2.1080611056949592E-018
  -2.1350000000000001E-002     1.6908306877353292E-018
  -2.1299999999999999E-002     8.9946203262217232E-019
  -2.1250000000000002E-002    -1.9530480017397988E-019
  -2.1200000000000000E-002    -1.4557404775762006E-018
  -2.1149999999999999E-002    -2.6892595039754897E-018
  -2.1100000000000001E-002    -3.6727555388099601E-018
  -2.1049999999999999E-002    -4.1870186887178527E-018
  -2.1000000000000001E-002    -4.0568237690244564E-018
  -2.0950000000000000E-002    -3.1903818558772118E-018
  -2.0899999999999998E-002    -1.6107770786306363E-018
  -2.0850000000000000E-002     5.2784323251811710E-019
  -2.0799999999999999E-002     2.9450235425817327E-018
  -2.0750000000000001E-002     5.2624974144633729E-018
  -2.0700000000000000E-002     7.0552823519965021E-018
  -2.0649999999999998E-002     7.9198267128185501E-018
  -2.0600000000000000E-002     7.5495905968071655E-018
  -2.0549999999999999E-002     5.8054794480584941E-018
  -2.0500000000000001E-002     2.7675380868832204E-018
  -2.0449999999999999E-002    -1.2443904543949204E-018
  -2.0400000000000001E-002    -5.6894992136015153E-018
  -2.0350000000000000E-002    -9.8668973782050700E-018
  -2.0299999999999999E-002    -1.3013845634478347E-017
  -2.0250000000000001E-002    -1.4429318753040313E-017
  -2.0199999999999999E-002    -1.3604680893690274E-017
  -2.0150000000000001E-002    -1.0339577331539309E-017
  -2.0100000000000000E-002    -4.8208842969850939E-018
  -2.0049999999999998E-002     2.3538677508824420E-018
  -2.0000000000000000E-002     1.0219906630779425E-017
  -1.9949999999999999E-002     1.7556748028399177E-017
  -1.9900000000000001E-002     2.3057755527866703E-017
  -1.9850000000000000E-002     2.5536647078843166E-017
  -1.9799999999999998E-002     2.4141325734364217E-017
  -1.9750000000000000E-002     1.8540661169057527E-017
  -1.9699999999999999E-002     9.0503079862151713E-018
  -1.9650000000000001E-002    -3.3304930167538938E-018
  -1.9599999999999999E-002    -1.6988231756475157E-017
  -1.9550000000000001E-002    -2.9872863507466595E-017
  -1.9500000000000000E-002    -3.9769487275344984E-017
  -1.9449999999999999E-002    -4.4633028035748518E-017
  -1.9400000000000001E-002    -4.2941380817351023E-017
  -1.9349999999999999E-002    -3.4013835533025459E-017
  -1.9300000000000001E-002    -1.8240053808288406E-017
  -1.9250000000000000E-002     2.8288294819364089E-018
  -1.9199999999999998E-002     2.6560838952249173E-017
  -1.9150000000000000E-002     4.9507656325082714E-017
  -1.9099999999999999E-002     6.7838359202339581E-017
  -1.9050000000000001E-002     7.7899052590356638E-017
  -1.9000000000000000E-002     7.6828528676480310E-017
  -1.8949999999999998E-002     6.3140138759160895E-017
  -1.8900000000000000E-002     3.7170859676340245E-017
  -1.8849999999999999E-002     1.3040080494786079E-018
  -1.8800000000000001E-002    -4.0106917408262515E-017
  -1.8749999999999999E-002    -8.1148522438930350E-017
  -1.8700000000000001E-002    -1.1507796238841825E-016
  -1.8650000000000000E-002    -1.3530394449854847E-016
  -1.8599999999999998E-002    -1.3649496546661662E-016
  -1.8550000000000001E-002    -1.1564961698358630E-016
  -1.8499999999999999E-002    -7.2943446627775951E-017
  -1.8450000000000001E-002    -1.2174387180093195E-017
  -1.8400000000000000E-002     5.9330343381088662E-017
  -1.8349999999999998E-002     1.3141262219930301E-016
  -1.8300000000000000E-002     1.9235950149044690E-016
  -1.8249999999999999E-002     2.3062618688124024E-016
  -1.8200000000000001E-002     2.3677760484199699E-016
  -1.8149999999999999E-002     2.0535067079561272E-016
  -1.8100000000000002E-002     1.3630909467425350E-016
  -1.8050000000000000E-002     3.5788326544131365E-017
  -1.7999999999999999E-002    -8.4091306803593901E-017
  -1.7950000000000001E-002    -2.0643442298184499E-016
  -1.7899999999999999E-002    -3.1173178857254644E-016
  -1.7850000000000001E-002    -3.8072968955756286E-016
  -1.7800000000000000E-002    -3.9761526489129773E-016
  -1.7749999999999998E-002    -3.5302509473744681E-016
  -1.7700000000000000E-002    -2.4635762688478193E-016
  -1.7649999999999999E-002    -8.6928331163858873E-017
  -1.7600000000000001E-002     1.0635300687099672E-016
  -1.7550000000000000E-002     3.0689279522400103E-016
  -1.7499999999999998E-002     4.8377492689041313E-016
  -1.7450000000000000E-002     6.0618606378479568E-016
  -1.7399999999999999E-002     6.4830948870778487E-016
  -1.7350000000000001E-002     5.9395909025162065E-016
  -1.7299999999999999E-002     4.4019783461125795E-016
  -1.7250000000000001E-002     1.9927151533316860E-016
  -1.7200000000000000E-002    -1.0161024440619328E-016
  -1.7149999999999999E-002    -4.2282860346464087E-016
  -1.7100000000000001E-002    -7.1708798168968282E-016
  -1.7049999999999999E-002    -9.3582656408202139E-016
  -1.7000000000000001E-002    -1.0365061707420884E-015
  -1.6950000000000000E-002    -9.8977642183325273E-016
  -1.6899999999999998E-002    -7.8542771160490304E-016
  -1.6850000000000000E-002    -4.3611783572301160E-016
  -1.6799999999999999E-002     2.1923244230525723E-017
  -1.6750000000000001E-002     5.3164912319010778E-016
  -1.6700000000000000E-002     1.0213956323586637E-015
  -1.6649999999999998E-002     1.4140012267625443E-015
  -1.6600000000000000E-002     1.6378383651622025E-015
  -1.6549999999999999E-002     1.6383451026228974E-015
  -1.6500000000000001E-002     1.3883899150528897E-015
  -1.6449999999999999E-002     8.9576847018223420E-016
  -1.6400000000000001E-002     2.0633264667927647E-016
  -1.6350000000000000E-002    -5.9829092262299755E-016
  -1.6299999999999999E-002    -1.4087521635884094E-015
  -1.6250000000000001E-002    -2.1013248412626254E-015
  -1.6199999999999999E-002    -2.5551892348404763E-015
  -1.6150000000000001E-002    -2.6714877055314390E-015
  -1.6100000000000000E-002    -2.3914092734999897E-015
  -1.6049999999999998E-002    -1.7103327387441459E-015
  -1.6000000000000000E-002    -6.8527173012491679E-016
  -1.5949999999999999E-002     5.6643343114161208E-016
  -1.5900000000000001E-002     1.8781047663650420E-015
  -1.5850000000000000E-002     3.0538784002287879E-015
  -1.5799999999999998E-002     3.8959496402363094E-015
  -1.5750000000000000E-002     4.2354179991227307E-015
  -1.5699999999999999E-002     3.9622121806670661E-015
  -1.5650000000000001E-002     3.0491731322067903E-015
  -1.5599999999999999E-002     1.5657370148677852E-015
  -1.5550000000000001E-002    -3.2217374604850144E-016
  -1.5500000000000000E-002    -2.3675737663642537E-015
  -1.5449999999999998E-002    -4.2723477885900710E-015
  -1.5400000000000000E-002    -5.7284397765675760E-015
  -1.5349999999999999E-002    -6.4648913020084065E-015
  -1.5300000000000001E-002    -6.2938181752338236E-015
  -1.5250000000000000E-002    -5.1479367575951555E-015
  -1.5199999999999998E-002    -3.1028953498534470E-015
  -1.5150000000000000E-002    -3.7949683310283422E-016
  -1.5099999999999999E-002     2.6763600508022825E-015
  -1.5050000000000001E-002     5.6348583060055000E-015
  -1.4999999999999999E-002     8.0399994658881396E-015
  -1.4949999999999998E-002     9.4764165725668217E-015
  -1.4900000000000000E-002     9.6357951389551381E-015
  -1.4849999999999999E-002     8.3727970167984597E-015
  -1.4800000000000001E-002     5.7412452206641665E-015
  -1.4749999999999999E-002     2.0036060382696858E-015
  -1.4700000000000001E-002    -2.3896984787047729E-015
  -1.4650000000000000E-002    -6.8504204655335695E-015
  -1.4599999999999998E-002    -1.0726991262486121E-014
  -1.4550000000000000E-002    -1.3394462337781680E-014
  -1.4499999999999999E-002    -1.4348094381447934E-014
  -1.4450000000000001E-002    -1.3287468524016306E-014
  -1.4400000000000000E-002    -1.0178329059033937E-014
  -1.4349999999999998E-002    -5.2815405349149972E-015
  -1.4300000000000000E-002     8.5771620324110441E-016
  -1.4249999999999999E-002     7.4624500508027949E-015
  -1.4200000000000001E-002     1.3614373266712578E-014
  -1.4149999999999999E-002     1.8373142430757640E-014
  -1.4099999999999998E-002     2.0910170432176037E-014
  -1.4050000000000000E-002     2.0639458702233562E-014
  -1.3999999999999999E-002     1.7326487534758024E-014
  -1.3950000000000001E-002     1.1157343291997614E-014
  -1.3899999999999999E-002     2.7539311163535946E-015
  -1.3850000000000001E-002    -6.8727215724853543E-015
  -1.3800000000000000E-002    -1.6430994138525411E-014
  -1.3749999999999998E-002    -2.4509940179328303E-014
  -1.3700000000000000E-002    -2.9775312125829637E-014
  -1.3649999999999999E-002    -3.1175061176221680E-014
  -1.3600000000000001E-002    -2.8124609236022773E-014
  -1.3550000000000000E-002    -2.0641733832729887E-014
  -1.3499999999999998E-002    -9.4050447293982271E-015
  -1.3450000000000000E-002     4.2812081767348246E-015
  -1.3399999999999999E-002     1.8620736937503650E-014
  -1.3350000000000001E-002     3.1547203407531962E-014
  -1.3299999999999999E-002     4.1009588032294569E-014
  -1.3249999999999998E-002     4.5283360530301922E-014
  -1.3200000000000000E-002     4.3261835086516598E-014
  -1.3149999999999998E-002     3.4680554462278648E-014
  -1.3100000000000001E-002     2.0233540185118568E-014
  -1.3049999999999999E-002     1.5533879097715279E-015
  -1.3000000000000001E-002    -1.8953880077856450E-014
  -1.2950000000000000E-002    -3.8406184835063431E-014
  -1.2899999999999998E-002    -5.3840039929619818E-014
  -1.2850000000000000E-002    -6.2649375704576515E-014
  -1.2799999999999999E-002    -6.3004519678701298E-014