  -4.0000000000000001E-002     0.0000000000000000     
  -3.9949999999999999E-002     0.0000000000000000     
  -3.9899999999999998E-002     0.0000000000000000     
  -3.9850000000000003E-002     0.0000000000000000     
  -3.9800000000000002E-002     0.0000000000000000     
  -3.9750000000000001E-002     0.0000000000000000     
  -3.9699999999999999E-002     0.0000000000000000     
  -3.9649999999999998E-002     0.0000000000000000     
  -3.9600000000000003E-002     0.0000000000000000     
  -3.9550000000000002E-002     0.0000000000000000     
  -3.9500000000000000E-002     0.0000000000000000     
  -3.9449999999999999E-002     0.0000000000000000     
  -3.9399999999999998E-002     0.0000000000000000     
  -3.9350000000000003E-002    -3.5440908970908409E-036
  -3.9300000000000002E-002    -1.2010739715388409E-034
  -3.9250000000000000E-002    -1.1101680778537162E-033
  -3.9199999999999999E-002    -1.7662153715019716E-033
  -3.9150000000000004E-002     4.6244027515228339E-032
  -3.9100000000000003E-002     4.8634361932293392E-031
  -3.9050000000000001E-002     2.6194849510788095E-030
  -3.9000000000000000E-002     8.7843551992346691E-030
  -3.8949999999999999E-002     1.5502634999335374E-029
  -3.8900000000000004E-002    -1.6721756257936618E-029
  -3.8850000000000003E-002    -2.3055996800927354E-028
  -3.8800000000000001E-002    -9.1784581641261609E-028
  -3.8750000000000000E-002    -2.2782121749673793E-027
  -3.8699999999999998E-002    -3.3662724997038167E-027
  -3.8650000000000004E-002     7.3639089625135636E-029
  -3.8600000000000002E-002     1.7470671685885821E-026
  -3.8550000000000001E-002     5.9879112775539387E-026
  -3.8500000000000000E-002     1.2269070501958153E-025
  -3.8449999999999998E-002     1.5100525174447551E-025
  -3.8400000000000004E-002     6.1296028771719787E-027
  -3.8350000000000002E-002    -5.1029432669504459E-025
  -3.8300000000000001E-002    -1.4941761907955494E-024
  -3.8249999999999999E-002    -2.6101670110485285E-024
  -3.8199999999999998E-002    -2.7454988212492703E-024
  -3.8150000000000003E-002    -5.2183819824133292E-026
  -3.8100000000000002E-002     7.1025002315186937E-024
  -3.8050000000000000E-002     1.8114912530316162E-023
  -3.7999999999999999E-002     2.7876857273462974E-023
  -3.7949999999999998E-002     2.6292084201638622E-023
  -3.7900000000000003E-002     1.9446462221314063E-024
  -3.7850000000000002E-002    -4.9480252513803799E-023
  -3.7800000000000000E-002    -1.1541574823887996E-022
  -3.7749999999999999E-002    -1.6278056541133462E-022
  -3.7699999999999997E-002    -1.4824005046640111E-022
  -3.7650000000000003E-002    -4.3202787934673461E-023
  -3.7600000000000001E-002     1.3829025444116575E-022
  -3.7550000000000000E-002     3.3103945411114893E-022
  -3.7499999999999999E-002     4.4830377831141432E-022
  -3.7449999999999997E-002     4.4458587767198188E-022
  -3.7400000000000003E-002     3.7104128055102193E-022
  -3.7350000000000001E-002     3.6102687048259117E-022
  -3.7300000000000000E-002     5.0543168352276082E-022
  -3.7249999999999998E-002     6.5523994705942481E-022
  -3.7200000000000004E-002     2.9250734078256363E-022
  -3.7150000000000002E-002    -1.3325789760460875E-021
  -3.7100000000000001E-002    -4.6763268443338517E-021
  -3.7050000000000000E-002    -9.1079573641325962E-021
  -3.6999999999999998E-002    -1.2300213235017070E-020
  -3.6950000000000004E-002    -1.0473567381727988E-020
  -3.6900000000000002E-002    -4.1388329023380706E-024
  -3.6850000000000001E-002     1.9778262568297521E-020
  -3.6799999999999999E-002     4.3819018603798669E-020
  -3.6749999999999998E-002     6.0646305565180691E-020
  -3.6700000000000003E-002     5.5638614895811429E-020
  -3.6650000000000002E-002     1.8426048089089663E-020
  -3.6600000000000001E-002    -4.8293859993734994E-020
  -3.6549999999999999E-002    -1.2379837215065104E-019
  -3.6499999999999998E-002    -1.7353859946931204E-019
  -3.6450000000000003E-002    -1.6385319829566020E-019
  -3.6400000000000002E-002    -8.1609166284292017E-020
  -3.6350000000000000E-002     5.2819443586906600E-020
  -3.6299999999999999E-002     1.9057788303914170E-019
  -3.6249999999999998E-002     2.7931699891589915E-019
  -3.6200000000000003E-002     2.9488459894529283E-019
  -3.6150000000000002E-002     2.5550322372069598E-019
  -3.6100000000000000E-002     1.9926136029719490E-019
  -3.6049999999999999E-002     1.3089716343467271E-019
  -3.6000000000000004E-002    -2.2323834194493239E-020
  -3.5950000000000003E-002    -3.8904850348536136E-019
  -3.5900000000000001E-002    -1.0359025035462217E-018
  -3.5850000000000000E-002    -1.7944276339672866E-018
  -3.5799999999999998E-002    -2.1575285385888455E-018
  -3.5750000000000004E-002    -1.3999594731220707E-018
  -3.5700000000000003E-002     1.0048266103605727E-018
  -3.5650000000000001E-002     4.7945296065931601E-018
  -3.5600000000000000E-002     8.4975936134289100E-018
  -3.5549999999999998E-002     9.6135971536542710E-018
  -3.5500000000000004E-002     5.6418635123983983E-018
  -3.5450000000000002E-002    -4.2593303567870064E-018
  -3.5400000000000001E-002    -1.7756905318057310E-017
  -3.5349999999999999E-002    -2.9046470621623373E-017
  -3.5299999999999998E-002    -3.0572962452790181E-017
  -3.5250000000000004E-002    -1.6636840207720675E-017
  -3.5200000000000002E-002     1.2488982006285232E-017
  -3.5150000000000001E-002     4.8184421768649526E-017
  -3.5099999999999999E-002     7.4917831744380203E-017
  -3.5049999999999998E-002     7.6045880203210656E-017
  -3.5000000000000003E-002     4.2172562436399856E-017
  -3.4950000000000002E-002    -2.1772882143048880E-017
  -3.4900000000000000E-002    -9.4967688535437022E-017
  -3.4849999999999999E-002    -1.4691399781880749E-016
  -3.4799999999999998E-002    -1.4997491487870080E-016
  -3.4750000000000003E-002    -9.2983209848905488E-017
  -3.4700000000000002E-002     1.0924235270224145E-017
  -3.4650000000000000E-002     1.2713875846375285E-016
  -3.4599999999999999E-002     2.1292245807299133E-016
  -3.4549999999999997E-002     2.3538673467331984E-016
  -3.4500000000000003E-002     1.8512637842663731E-016
  -3.4450000000000001E-002     7.8307616214660801E-017
  -3.4400000000000000E-002    -5.3687054321020618E-017
  -3.4349999999999999E-002    -1.8040599048769342E-016
  -3.4299999999999997E-002    -2.8350528009641296E-016
  -3.4250000000000003E-002    -3.5487012871461028E-016
  -3.4200000000000001E-002    -3.8260103969134023E-016
  -3.4150000000000000E-002    -3.3628420720757340E-016
  -3.4099999999999998E-002    -1.6787257830201041E-016
  -3.4049999999999997E-002     1.6141580013235314E-016
  -3.4000000000000002E-002     6.3399037913299483E-016
  -3.3950000000000001E-002     1.1333003648580857E-015
  -3.3900000000000000E-002     1.4403225647758265E-015
  -3.3849999999999998E-002     1.2945717790154069E-015
  -3.3799999999999997E-002     5.1580596061725864E-016
  -3.3750000000000002E-002    -8.5619178017778005E-016
  -3.3700000000000001E-002    -2.4750022299906143E-015
  -3.3649999999999999E-002    -3.7239006603299445E-015
  -3.3599999999999998E-002    -3.9043234101142189E-015
  -3.3550000000000003E-002    -2.5358777848990172E-015
  -3.3500000000000002E-002     3.4328867317047235E-016
  -3.3450000000000001E-002     4.0218036973239268E-015
  -3.3399999999999999E-002     7.2236943269375257E-015
  -3.3349999999999998E-002     8.5040587187842642E-015
  -3.3300000000000003E-002     6.8262740193372208E-015
  -3.3250000000000002E-002     2.1051695857947726E-015
  -3.3200000000000000E-002    -4.5332345567034359E-015
  -3.3149999999999999E-002    -1.0950371441022071E-014
  -3.3099999999999997E-002    -1.4657845026865558E-014
  -3.3050000000000003E-002    -1.3746897942496599E-014
  -3.3000000000000002E-002    -7.7381765800163914E-015
  -3.2950000000000000E-002     2.0133001231499837E-015
  -3.2899999999999999E-002     1.2583629451301403E-014
  -3.2850000000000004E-002     2.0386348730941176E-014
  -3.2800000000000003E-002     2.2419997877336643E-014
  -3.2750000000000001E-002     1.7392012313741742E-014
  -3.2700000000000000E-002     6.2763357503531909E-015
  -3.2649999999999998E-002    -7.9251302277938560E-015
  -3.2600000000000004E-002    -2.1129833252406323E-014
  -3.2550000000000003E-002    -2.9461483987487883E-014
  -3.2500000000000001E-002    -3.0390626422381244E-014
  -3.2450000000000000E-002    -2.3344432731728132E-014
  -3.2399999999999998E-002    -9.6673885982135548E-015
  -3.2350000000000004E-002     7.8943314795249302E-015
  -3.2300000000000002E-002     2.5849915676423053E-014
  -3.2250000000000001E-002     4.0480461132441624E-014
  -3.2199999999999999E-002     4.8163272822424644E-014
  -3.2149999999999998E-002     4.5709006141446923E-014
  -3.2100000000000004E-002     3.1013109225088523E-014
  -3.2050000000000002E-002     4.1458446342314565E-015
  -3.2000000000000001E-002    -3.1400374897016916E-014
  -3.1949999999999999E-002    -6.8009351228407760E-014
  -3.1899999999999998E-002    -9.4638144368288240E-014
  -3.1850000000000003E-002    -9.9431411831678360E-014
  -3.1800000000000002E-002    -7.3964497792951495E-014
  -3.1750000000000000E-002    -1.7833889161176222E-014
  -3.1699999999999999E-002     5.8384142860676125E-014
  -3.1649999999999998E-002     1.3372451482099434E-013
  -3.1600000000000003E-002     1.8187188630533452E-013
  -3.1550000000000002E-002     1.7979795406310446E-013
  -3.1500000000000000E-002     1.1732320949103786E-013
  -3.1449999999999999E-002     3.8625045411287802E-015
  -3.1399999999999997E-002    -1.3103309932975731E-013
  -3.1350000000000003E-002    -2.4481759473124879E-013
  -3.1300000000000001E-002    -2.9534307889123137E-013
  -3.1250000000000000E-002    -2.5626406418332510E-013
  -3.1199999999999999E-002    -1.2874433988932934E-013
  -3.1150000000000001E-002     5.5543379896035718E-014
  -3.1100000000000003E-002     2.4228015515187875E-013
  -3.1050000000000001E-002     3.7132772421946870E-013
  -3.1000000000000000E-002     3.9695389312257034E-013
  -3.0949999999999998E-002     3.0417705227255442E-013
  -3.0900000000000000E-002     1.1505177485570019E-013
  -3.0850000000000002E-002    -1.1766105937521995E-013
  -3.0800000000000001E-002    -3.2724993967093376E-013
  -3.0750000000000000E-002    -4.5411929652114707E-013
  -3.0699999999999998E-002    -4.6359620517662965E-013
  -3.0650000000000000E-002    -3.5452435506866363E-013
  -3.0600000000000002E-002    -1.5662796541503329E-013
  -3.0550000000000001E-002     8.0902572331103506E-014
  -3.0499999999999999E-002     3.0416043718321723E-013
  -3.0449999999999998E-002     4.6691392025357708E-013
  -3.0400000000000000E-002     5.3734782677438611E-013
  -3.0350000000000002E-002     4.9948814068195890E-013
  -3.0300000000000001E-002     3.5244217072886579E-013
  -3.0249999999999999E-002     1.1095103605859252E-013
  -3.0200000000000001E-002    -1.9158280880396127E-013
  -3.0150000000000000E-002    -5.0013813887423231E-013
  -3.0100000000000002E-002    -7.4047494994480923E-013
  -3.0050000000000000E-002    -8.3182094016166094E-013
  -2.9999999999999999E-002    -7.1063155275581144E-013
  -2.9950000000000001E-002    -3.5969150773745887E-013
  -2.9899999999999999E-002     1.6895618683305805E-013
  -2.9850000000000002E-002     7.5034485380207256E-013
  -2.9800000000000000E-002     1.2106158824927359E-012
  -2.9749999999999999E-002     1.3770139941241032E-012
  -2.9700000000000001E-002     1.1400829660912448E-012
  -2.9650000000000003E-002     5.0571614201373637E-013
  -2.9600000000000001E-002    -3.8576590440361977E-013
  -2.9550000000000000E-002    -1.2870019996269044E-012
  -2.9499999999999998E-002    -1.9142903157215047E-012
  -2.9450000000000000E-002    -2.0406514039337925E-012
  -2.9400000000000003E-002    -1.5788333505052666E-012
  -2.9350000000000001E-002    -6.2228636803389695E-013
  -2.9300000000000000E-002     5.7445799634692557E-013
  -2.9249999999999998E-002     1.6726545654572599E-012
  -2.9200000000000000E-002     2.3580901826814252E-012
  -2.9150000000000002E-002     2.4432348344467106E-012
  -2.9100000000000001E-002     1.9258853426831910E-012
  -2.9049999999999999E-002     9.8345827132311669E-013
  -2.8999999999999998E-002    -9.3609613826312227E-014
  -2.8950000000000000E-002    -1.0031615564305776E-012
  -2.8900000000000002E-002    -1.5292077699099033E-012
  -2.8850000000000001E-002    -1.6018069324605143E-012
  -2.8799999999999999E-002    -1.3013216837122264E-012
  -2.8749999999999998E-002    -8.1215416642127666E-013
  -2.8700000000000000E-002    -3.4963237866328784E-013
  -2.8650000000000002E-002    -9.0495191074265165E-014
  -2.8600000000000000E-002    -1.3046512665369034E-013
  -2.8549999999999999E-002    -4.7620990572309483E-013
  -2.8500000000000001E-002    -1.0622099462116097E-012
  -2.8450000000000000E-002    -1.7741364907994061E-012
  -2.8400000000000002E-002    -2.4633763905853618E-012
  -2.8350000000000000E-002    -2.9499130279228880E-012
  -2.8299999999999999E-002    -3.0251709437078454E-012
  -2.8250000000000001E-002    -2.4735361606743451E-012
  -2.8200000000000003E-002    -1.1254680281070331E-012
  -2.8150000000000001E-002     1.0624227226184097E-012
  -2.8100000000000000E-002     3.9261065029460903E-012
  -2.8049999999999999E-002     7.0508190373960886E-012
  -2.8000000000000001E-002     9.8011978731682540E-012
  -2.7950000000000003E-002     1.1437875897018926E-011
  -2.7900000000000001E-002     1.1299541996486511E-011
  -2.7850000000000000E-002     8.9980721961117502E-012
  -2.7799999999999998E-002     4.5604018778610248E-012
  -2.7750000000000000E-002    -1.5370441485492707E-012
  -2.7700000000000002E-002    -8.4595814314376097E-012
  -2.7650000000000001E-002    -1.5202717455405622E-011
  -2.7600000000000000E-002    -2.0810915637638155E-011
  -2.7549999999999998E-002    -2.4546275645051805E-011
  -2.7500000000000000E-002    -2.5945084488082351E-011
  -2.7450000000000002E-002    -2.4744286825001692E-011
  -2.7400000000000001E-002    -2.0712360054346194E-011
  -2.7349999999999999E-002    -1.3458761716547668E-011
  -2.7299999999999998E-002    -2.3065842319064355E-012
  -2.7250000000000000E-002     1.3709768619343214E-011
  -2.7200000000000002E-002     3.5707172728555430E-011
  -2.7150000000000001E-002     6.4714246973812797E-011
  -2.7099999999999999E-002     1.0140451284745694E-010
  -2.7049999999999998E-002     1.4588540206154926E-010
  -2.7000000000000000E-002     1.9760492448271520E-010
  -2.6950000000000002E-002     2.5539628988790362E-010
  -2.6900000000000000E-002     3.1763805402159265E-010
  -2.6849999999999999E-002     3.8247807642740537E-010
  -2.6800000000000001E-002     4.4806331511588716E-010
  -2.6749999999999999E-002     5.1273285246332104E-010
  -2.6700000000000002E-002     5.7515588391394947E-010
  -2.6650000000000000E-002     6.3441851333608015E-010
  -2.6599999999999999E-002     6.9007360890113556E-010
  -2.6550000000000001E-002     7.4216167064018469E-010
  -2.6500000000000003E-002     7.9119998107720974E-010
  -2.6450000000000001E-002     8.3812626503627217E-010
  -2.6400000000000000E-002     8.8418576389278378E-010
  -2.6349999999999998E-002     9.3076425631010802E-010
  -2.6300000000000000E-002     9.7919171325306185E-010
  -2.6250000000000002E-002     1.0305598300383507E-009
  -2.6200000000000001E-002     1.0855978331496621E-009
  -2.6150000000000000E-002     1.1446382079161265E-009
  -2.6099999999999998E-002     1.2076706166749954E-009
  -2.6050000000000000E-002     1.2744534402807744E-009
  -2.6000000000000002E-002     1.3446294520571797E-009
  -2.5950000000000001E-002     1.4177954415707477E-009
  -2.5899999999999999E-002     1.4934977995471935E-009
  -2.5849999999999998E-002     1.5711637308691078E-009
  -2.5800000000000000E-002     1.6500107144745502E-009
  -2.5750000000000002E-002     1.7289940949037282E-009
  -2.5700000000000001E-002     1.8068467822015244E-009
  -2.5649999999999999E-002     1.8822315760548498E-009
  -2.5599999999999998E-002     1.9539888831080101E-009
  -2.5550000000000000E-002     2.0214191572794586E-009
  -2.5500000000000002E-002     2.0845279303050978E-009
  -2.5450000000000000E-002     2.1441572902187681E-009
  -2.5399999999999999E-002     2.2019591675753768E-009
  -2.5349999999999998E-002     2.2602025021888747E-009
  -2.5300000000000000E-002     2.3214484761623029E-009
  -2.5250000000000002E-002     2.3881583885850834E-009
  -2.5200000000000000E-002     2.4623129992712440E-009
  -2.5149999999999999E-002     2.5451161884383390E-009
  -2.5100000000000001E-002     2.6368398017124733E-009
  -2.5049999999999999E-002     2.7368300748493257E-009
  -2.5000000000000001E-002     2.8436663080162164E-009
  -2.4950000000000000E-002     2.9554314360975135E-009
  -2.4899999999999999E-002     3.0700291548546715E-009
  -2.4850000000000001E-002     3.1854828747165754E-009
  -2.4800000000000003E-002     3.3001620803820243E-009
  -2.4750000000000001E-002     3.4129127106101229E-009
  -2.4700000000000000E-002     3.5230935051509885E-009
  -2.4649999999999998E-002     3.6305540672964944E-009
  -2.4600000000000000E-002     3.7355940759397967E-009
  -2.4550000000000002E-002     3.8389368778413776E-009
  -2.4500000000000001E-002     3.9417169254979646E-009
  -2.4450000000000000E-002     4.0454687563773174E-009
  -2.4399999999999998E-002     4.1520721970095771E-009
  -2.4350000000000000E-002     4.2636240411448143E-009
  -2.4299999999999999E-002     4.3822306454718924E-009
  -2.4250000000000001E-002     4.5097499841268930E-009
  -2.4199999999999999E-002     4.6475345161799607E-009
  -2.4150000000000001E-002     4.7962401409697280E-009
  -2.4100000000000000E-002     4.9557363115674378E-009
  -2.4049999999999998E-002     5.1251320487249155E-009
  -2.4000000000000000E-002     5.3028868778597366E-009
  -2.3949999999999999E-002     5.4869777106843041E-009
  -2.3900000000000001E-002     5.6750800873327483E-009
  -2.3850000000000000E-002     5.8647637263718653E-009
  -2.3800000000000002E-002     6.0537097091804765E-009
  -2.3750000000000000E-002     6.2399698469631134E-009
  -2.3699999999999999E-002     6.4222557162892724E-009
  -2.3650000000000001E-002     6.6002200733966541E-009
  -2.3599999999999999E-002     6.7746579791759808E-009
  -2.3550000000000001E-002     6.9475469449982977E-009
  -2.3500000000000000E-002     7.1218766244308650E-009
  -2.3449999999999999E-002     7.3012766210891600E-009
  -2.3400000000000001E-002     7.4895053969343006E-009
  -2.3349999999999999E-002     7.6899145152127289E-009
  -2.3300000000000001E-002     7.9050040017941613E-009
  -2.3250000000000000E-002     8.1361519077398410E-009
  -2.3199999999999998E-002     8.3835555574865030E-009
  -2.3150000000000000E-002     8.6463524465334142E-009
  -2.3099999999999999E-002     8.9228451698132233E-009
  -2.3050000000000001E-002     9.2107751638840603E-009
  -2.3000000000000000E-002     9.5075785459337988E-009
  -2.2950000000000002E-002     9.8106018557939392E-009
  -2.2900000000000000E-002     1.0117286734776464E-008
  -2.2849999999999999E-002     1.0425351761916428E-008
  -2.2800000000000001E-002     1.0732988109471480E-008
  -2.2749999999999999E-002     1.1039063956361979E-008
  -2.2700000000000001E-002     1.1343337346113856E-008
  -2.2650000000000000E-002     1.1646609471185522E-008
  -2.2599999999999999E-002     1.1950791200075739E-008
  -2.2550000000000001E-002     1.2258817521385425E-008
  -2.2499999999999999E-002     1.2574397570865104E-008
  -2.2450000000000001E-002     1.2901622322754867E-008
  -2.2400000000000000E-002     1.3244471954343640E-008
  -2.2349999999999998E-002     1.3606315030133962E-008
  -2.2300000000000000E-002     1.3989482432143030E-008
  -2.2249999999999999E-002     1.4394992656965873E-008
  -2.2200000000000001E-002     1.4822474820512026E-008
  -2.2150000000000000E-002     1.5270268644175779E-008
  -2.2100000000000002E-002     1.5735677687525025E-008
  -2.2050000000000000E-002     1.6215327131609251E-008
  -2.1999999999999999E-002     1.6705571661073276E-008
  -2.1950000000000001E-002     1.7202915352436355E-008
  -2.1899999999999999E-002     1.7704410499989053E-008
  -2.1850000000000001E-002     1.8208035341654787E-008
  -2.1800000000000000E-002     1.8712968501666218E-008
  -2.1749999999999999E-002     1.9219724950186341E-008
  -2.1700000000000001E-002     1.9730121241411419E-008
  -2.1649999999999999E-002     2.0247035943359235E-008
  -2.1600000000000001E-002     2.0774039478752753E-008
  -2.1550000000000000E-002     2.1314944799948117E-008
  -2.1499999999999998E-002     2.1873396867607342E-008
  -2.1450000000000000E-002     2.2452575513201883E-008
  -2.1399999999999999E-002     2.3055034151966229E-008
  -2.1350000000000001E-002     2.3682634902661704E-008
  -2.1299999999999999E-002     2.4336526403465076E-008
  -2.1250000000000002E-002     2.5017088508237344E-008
  -2.1200000000000000E-002     2.5723846768173859E-008
  -2.1149999999999999E-002     2.6455393189470150E-008
  -2.1100000000000001E-002     2.7209438625970139E-008
  -2.1049999999999999E-002     2.7983035940502177E-008
  -2.1000000000000001E-002     2.8773019575805591E-008
  -2.0950000000000000E-002     2.9576557299517681E-008
  -2.0899999999999998E-002     3.0391685221278067E-008
  -2.0850000000000000E-002     3.1217647000326576E-008
  -2.0799999999999999E-002     3.2054996913060320E-008
  -2.0750000000000001E-002     3.2905442923120757E-008
  -2.0700000000000000E-002     3.3771524602361617E-008
  -2.0649999999999998E-002     3.4656317612817890E-008
  -2.0600000000000000E-002     3.5563148592219317E-008
  -2.0549999999999999E-002     3.6495455331914194E-008
  -2.0500000000000001E-002     3.7456603483229893E-008
  -2.0449999999999999E-002     3.8449638972915543E-008
  -2.0400000000000001E-002     3.9476895714906832E-008
  -2.0350000000000000E-002     4.0539577051116213E-008
  -2.0299999999999999E-002     4.1637399098119882E-008
  -2.0250000000000001E-002     4.2768553315383153E-008
  -2.0199999999999999E-002     4.3930001000097740E-008
  -2.0150000000000001E-002     4.5118142035496596E-008
  -2.0100000000000000E-002     4.6329634923206701E-008
  -2.0049999999999998E-002     4.7562127308945199E-008
  -2.0000000000000000E-002     4.8814698616223596E-008
  -1.9949999999999999E-002     5.0087870331475633E-008
  -1.9900000000000001E-002     5.1383269359975854E-008
  -1.9850000000000000E-002     5.2703139586659486E-008
  -1.9799999999999998E-002     5.4049924785298354E-008
  -1.9750000000000000E-002     5.5426054404266717E-008
  -1.9699999999999999E-002     5.6834025970804514E-008
  -1.9650000000000001E-002     5.8276614828242271E-008
  -1.9599999999999999E-002     5.9757069246185609E-008
  -1.9550000000000001E-002     6.1279075965878535E-008
  -1.9500000000000000E-002     6.2846450905024314E-008
  -1.9449999999999999E-002     6.4462584633508606E-008
  -1.9400000000000001E-002     6.6129819034630997E-008
  -1.9349999999999999E-002     6.7849078618723468E-008
  -1.9300000000000001E-002     6.9619758717188308E-008
  -1.9250000000000000E-002     7.1440039144315242E-008
  -1.9199999999999998E-002     7.3307516037740084E-008
  -1.9150000000000000E-002     7.5219775502496591E-008
  -1.9099999999999999E-002     7.7174890835269737E-008
  -1.9050000000000001E-002     7.9171604989753891E-008
  -1.9000000000000000E-002     8.1209281776511217E-008
  -1.8949999999999998E-002     8.3287661314770677E-008
  -1.8900000000000000E-002     8.5406783265129649E-008
  -1.8849999999999999E-002     8.7567031558698100E-008
  -1.8800000000000001E-002     8.9769354320920126E-008
  -1.8749999999999999E-002     9.2015539900185314E-008
  -1.8700000000000001E-002     9.4308262784707029E-008
  -1.8650000000000000E-002     9.6650850514464858E-008
  -1.8599999999999998E-002     9.9046732097614400E-008
  -1.8550000000000001E-002     1.0149873444779006E-007
  -1.8499999999999999E-002     1.0400858788110392E-007
  -1.8450000000000001E-002     1.0657676438903496E-007
  -1.8400000000000000E-002     1.0920280169947063E-007
  -1.8349999999999998E-002     1.1188595397782178E-007
  -1.8300000000000000E-002     1.1462588367126917E-007
  -1.8249999999999999E-002     1.1742312066254493E-007
  -1.8200000000000001E-002     1.2027910533491108E-007
  -1.8149999999999999E-002     1.2319587345145096E-007
  -1.8100000000000002E-002     1.2617556970522426E-007
  -1.8050000000000000E-002     1.2922004280744655E-007
  -1.7999999999999999E-002     1.3233099144124738E-007
  -1.7950000000000001E-002     1.3551021986958136E-007
  -1.7899999999999999E-002     1.3876028168179711E-007
  -1.7850000000000001E-002     1.4208494241247322E-007
  -1.7800000000000000E-002     1.4548911895590507E-007
  -1.7749999999999998E-002     1.4897840885239937E-007
  -1.7700000000000000E-002     1.5255828766928768E-007
  -1.7649999999999999E-002     1.5623326592416798E-007
  -1.7600000000000001E-002     1.6000643831796091E-007
  -1.7550000000000000E-002     1.6387946736464552E-007
  -1.7499999999999998E-002     1.6785307890399502E-007
  -1.7450000000000000E-002     1.7192769147780191E-007
  -1.7399999999999999E-002     1.7610374277305612E-007
  -1.7350000000000001E-002     1.8038169344654315E-007
  -1.7299999999999999E-002     1.8476157944165180E-007
  -1.7250000000000001E-002     1.8924249872323464E-007
  -1.7200000000000000E-002     1.9382226699666816E-007
  -1.7149999999999999E-002     1.9849756083180729E-007
  -1.7100000000000001E-002     2.0326463068052199E-007
  -1.7049999999999999E-002     2.0812024575375758E-007
  -1.7000000000000001E-002     2.1306238717325678E-007
  -1.6950000000000000E-002     2.1809043935413446E-007
  -1.6899999999999998E-002     2.2320479863423008E-007
  -1.6850000000000000E-002     2.2840595985667586E-007
  -1.6799999999999999E-002     2.3369373492209369E-007
  -1.6750000000000001E-002     2.3906682571853858E-007
  -1.6700000000000000E-002     2.4452328923903671E-007
  -1.6649999999999998E-002     2.5006131607914693E-007
  -1.6600000000000000E-002     2.5568030275908023E-007
  -1.6549999999999999E-002     2.6138142983882353E-007
  -1.6500000000000001E-002     2.6716765131243750E-007
  -1.6449999999999999E-002     2.7304288093721615E-007
  -1.6400000000000001E-002     2.7901057560297510E-007
  -1.6350000000000000E-002     2.8507301439155270E-007
  -1.6299999999999999E-002     2.9123079933749968E-007
  -1.6250000000000001E-002     2.9748359763830917E-007
  -1.6199999999999999E-002     3.0383149940903779E-007
  -1.6150000000000001E-002     3.1027649813797230E-007
  -1.6100000000000000E-002     3.1682345058024173E-007
  -1.6049999999999998E-002     3.2347976975048352E-007
  -1.6000000000000000E-002     3.3025419857746748E-007
  -1.5949999999999999E-002     3.3715528468862294E-007
  -1.5900000000000001E-002     3.4418972659551856E-007
  -1.5850000000000000E-002     3.5136203112790685E-007
  -1.5799999999999998E-002     3.5867511701403253E-007
  -1.5750000000000000E-002     3.6613163785802751E-007
  -1.5699999999999999E-002     3.7373541244728622E-007
  -1.5650000000000001E-002     3.8149212998800766E-007
  -1.5599999999999999E-002     3.8940875779216515E-007
  -1.5550000000000001E-002     3.9749224463386274E-007
  -1.5500000000000000E-002     4.0574771541765205E-007
  -1.5449999999999998E-002     4.1417754819534742E-007
  -1.5400000000000000E-002     4.2278160486451907E-007
  -1.5349999999999999E-002     4.3155874860262534E-007
  -1.5300000000000001E-002     4.4050893640227614E-007
  -1.5250000000000000E-002     4.4963478483926452E-007
  -1.5199999999999998E-002     4.5894185016877898E-007
  -1.5150000000000000E-002     4.6843726696999880E-007
  -1.5099999999999999E-002     4.7812756128649105E-007
  -1.5050000000000001E-002     4.8801662502454975E-007
  -1.4999999999999999E-002     4.9810478698968562E-007
  -1.4949999999999998E-002     5.0838950440375415E-007
  -1.4900000000000000E-002     5.1886755769675212E-007
  -1.4849999999999999E-002     5.2953737056822867E-007
  -1.4800000000000001E-002     5.4040086713783017E-007
  -1.4749999999999999E-002     5.5146321572453547E-007
  -1.4700000000000001E-002     5.6273148842296348E-007
  -1.4650000000000000E-002     5.7421175366903184E-007
  -1.4599999999999998E-002     5.8590730585324106E-007
  -1.4550000000000000E-002     5.9781781278391400E-007
  -1.4499999999999999E-002     6.0994080659535456E-007
  -1.4450000000000001E-002     6.2227400493661758E-007
  -1.4400000000000000E-002     6.3481774494217448E-007
  -1.4349999999999998E-002     6.4757654843937802E-007
  -1.4300000000000000E-002     6.6055830822962357E-007
  -1.4249999999999999E-002     6.7377198091469183E-007
  -1.4200000000000001E-002     6.8722438497933293E-007
  -1.4149999999999999E-002     7.0091779635025321E-007
  -1.4099999999999998E-002     7.1484969058852650E-007
  -1.4050000000000000E-002     7.2901407067417060E-007
  -1.3999999999999999E-002     7.4340472754558382E-007
  -1.3950000000000001E-002     7.5801848935902193E-007
  -1.3899999999999999E-002     7.7285668660893331E-007
  -1.3850000000000001E-002     7.8792475316129012E-007
  -1.3800000000000000E-002     8.0322982390196374E-007
  -1.3749999999999998E-002     8.1877709221639608E-007
  -1.3700000000000000E-002     8.3456763434306818E-007
  -1.3649999999999999E-002     8.5059801595828983E-007
  -1.3600000000000001E-002     8.6686223477533460E-007
  -1.3550000000000000E-002     8.8335554540513192E-007
  -1.3499999999999998E-002     9.0007772223354799E-007
  -1.3450000000000000E-002     9.1703476957806461E-007
  -1.3399999999999999E-002     9.3423784100522305E-007
  -1.3350000000000001E-002     9.5170028920830078E-007
  -1.3299999999999999E-002     9.6943313928895261E-007
  -1.3249999999999998E-002     9.8744216447887190E-007
  -1.3200000000000000E-002     1.0057271819173314E-006
  -1.3149999999999998E-002     1.0242840762670548E-006
  -1.3100000000000001E-002     1.0431088035609186E-006
  -1.3049999999999999E-002     1.0622010134738268E-006
  -1.3000000000000001E-002     1.0815662753083074E-006
  -1.2950000000000000E-002     1.1012155324831791E-006
  -1.2899999999999998E-002     1.1211613699599887E-006
  -1.2850000000000000E-002     1.1414138761384760E-006
  -1.2799999999999999E-002     1.1619772030832683E-006