  -4.0000000000000001E-002     0.0000000000000000     
  -3.9949999999999999E-002    -8.7736330211816488E-010
  -3.9899999999999998E-002    -1.9308687788686964E-009
  -3.9850000000000003E-002    -2.4147582221773949E-009
  -3.9800000000000002E-002    -2.2330208123961610E-009
  -3.9750000000000001E-002    -1.9468109334527474E-009
  -3.9699999999999999E-002    -2.1168279619998188E-009
  -3.9649999999999998E-002    -2.6804221909862728E-009
  -3.9600000000000003E-002    -3.0029635500006564E-009
  -3.9550000000000002E-002    -2.5285727261671540E-009
  -3.9500000000000000E-002    -1.3449882580843937E-009
  -3.9449999999999999E-002    -9.4677332749284718E-011
  -3.9399999999999998E-002     6.4437527238382536E-010
  -3.9350000000000003E-002     8.5818317086256852E-010
  -3.9300000000000002E-002     9.9447247490721199E-010
  -3.9250000000000000E-002     1.4214418903005664E-009
  -3.9199999999999999E-002     2.0371638995552693E-009
  -3.9150000000000004E-002     2.4076271111153083E-009
  -3.9100000000000003E-002     2.2339780090576128E-009
  -3.9050000000000001E-002     1.6353303478974629E-009
  -3.9000000000000000E-002     9.8150577756626266E-010
  -3.8949999999999999E-002     5.0360122746359510E-010
  -3.8900000000000004E-002     1.0698066525111626E-010
  -3.8850000000000003E-002    -4.5980445394449779E-010
  -3.8800000000000001E-002    -1.3189586552899054E-009
  -3.8750000000000000E-002    -2.3763806181092863E-009
  -3.8699999999999998E-002    -3.4724661433765549E-009
  -3.8650000000000004E-002    -4.5381056565809055E-009
  -3.8600000000000002E-002    -5.5692853454614114E-009
  -3.8550000000000001E-002    -6.5039346679871910E-009
  -3.8500000000000000E-002    -7.2195828863231398E-009
  -3.8449999999999998E-002    -7.6964100141632411E-009
  -3.8400000000000004E-002    -8.1337278111949676E-009
  -3.8350000000000002E-002    -8.8150339054892226E-009
  -3.8300000000000001E-002    -9.8161345184796499E-009
  -3.8249999999999999E-002    -1.0889040808685011E-008
  -3.8199999999999998E-002    -1.1708712547032251E-008
  -3.8150000000000003E-002    -1.2258305513515694E-008
  -3.8100000000000002E-002    -1.2918776721668780E-008
  -3.8050000000000000E-002    -1.4107571802625818E-008
  -3.7999999999999999E-002    -1.5816628501035578E-008
  -3.7949999999999998E-002    -1.7566847769127610E-008
  -3.7900000000000003E-002    -1.8886394674402244E-008
  -3.7850000000000002E-002    -1.9836602335318536E-008
  -3.7800000000000000E-002    -2.0997944647305952E-008
  -3.7749999999999999E-002    -2.2867319474374990E-008
  -3.7699999999999997E-002    -2.5268068207459866E-008
  -3.7650000000000003E-002    -2.7423706781292854E-008
  -3.7600000000000001E-002    -2.8685682910527246E-008
  -3.7550000000000000E-002    -2.9198294544365446E-008
  -3.7499999999999999E-002    -2.9794490493921445E-008
  -3.7449999999999997E-002    -3.1182990442746847E-008
  -3.7400000000000003E-002    -3.3236269743442416E-008
  -3.7350000000000001E-002    -3.5122226464298491E-008
  -3.7300000000000000E-002    -3.6170802610655297E-008
  -3.7249999999999998E-002    -3.6596400084262799E-008
  -3.7200000000000004E-002    -3.7320329328265337E-008
  -3.7150000000000002E-002    -3.9053963246527932E-008
  -3.7100000000000001E-002    -4.1575179653156914E-008
  -3.7050000000000000E-002    -4.3949495249819147E-008
  -3.6999999999999998E-002    -4.5482594119265833E-008
  -3.6950000000000004E-002    -4.6433148261233971E-008
  -3.6900000000000002E-002    -4.7751299389503324E-008
  -3.6850000000000001E-002    -5.0104317971233225E-008
  -3.6799999999999999E-002    -5.3182908511159493E-008
  -3.6749999999999998E-002    -5.5995735891604098E-008
  -3.6700000000000003E-002    -5.7850464926332960E-008
  -3.6650000000000002E-002    -5.9024543745682567E-008
  -3.6600000000000001E-002    -6.0455453855208638E-008
  -3.6549999999999999E-002    -6.2782815126642362E-008
  -3.6499999999999998E-002    -6.5722232892826069E-008
  -3.6450000000000003E-002    -6.8391654918683263E-008
  -3.6400000000000002E-002    -7.0233038403771206E-008
  -3.6350000000000000E-002    -7.1582819127171692E-008
  -3.6299999999999999E-002    -7.3328496101649915E-008
  -3.6249999999999998E-002    -7.6027074029894440E-008
  -3.6200000000000003E-002    -7.9385990185259907E-008
  -3.6150000000000002E-002    -8.2606945315663297E-008
  -3.6100000000000000E-002    -8.5208252334095965E-008
  -3.6049999999999999E-002    -8.7483627372435107E-008
  -3.6000000000000004E-002    -9.0163369572234919E-008
  -3.5950000000000003E-002    -9.3661952134365359E-008
  -3.5900000000000001E-002    -9.7683803843301492E-008
  -3.5850000000000000E-002    -1.0155319567407703E-007
  -3.5799999999999998E-002    -1.0489135447288316E-007
  -3.5750000000000004E-002    -1.0794810569965469E-007
  -3.5700000000000003E-002    -1.1129082904515011E-007
  -3.5650000000000001E-002    -1.1521290886319327E-007
  -3.5600000000000000E-002    -1.1946976709167925E-007
  -3.5549999999999998E-002    -1.2357186744377907E-007
  -3.5500000000000004E-002    -1.2729290928373257E-007
  -3.5450000000000002E-002    -1.3087233446744710E-007
  -3.5400000000000001E-002    -1.3474609894694037E-007
  -3.5349999999999999E-002    -1.3912099481907556E-007
  -3.5299999999999998E-002    -1.4382546989441053E-007
  -3.5250000000000004E-002    -1.4854493548065243E-007
  -3.5200000000000002E-002    -1.5315870163611314E-007
  -3.5150000000000001E-002    -1.5783359047297481E-007
  -3.5099999999999999E-002    -1.6281879579612864E-007
  -3.5049999999999998E-002    -1.6819008788909181E-007
  -3.5000000000000003E-002    -1.7380355047051356E-007
  -3.4950000000000002E-002    -1.7946914384049377E-007
  -3.4900000000000000E-002    -1.8513415094445755E-007
  -3.4849999999999999E-002    -1.9089432244449610E-007
  -3.4799999999999998E-002    -1.9685849459643102E-007
  -3.4750000000000003E-002    -2.0303620888385670E-007
  -3.4700000000000002E-002    -2.0935851380473744E-007
  -3.4650000000000000E-002    -2.1577864903297675E-007
  -3.4599999999999999E-002    -2.2232440015565244E-007
  -3.4549999999999997E-002    -2.2905488621238810E-007
  -3.4500000000000003E-002    -2.3599430722135590E-007
  -3.4450000000000001E-002    -2.4312909046964199E-007
  -3.4400000000000000E-002    -2.5046121005282296E-007
  -3.4349999999999999E-002    -2.5803726925566535E-007
  -3.4299999999999997E-002    -2.6590715581763591E-007
  -3.4250000000000003E-002    -2.7406411628136942E-007
  -3.4200000000000001E-002    -2.8244756440515385E-007
  -3.4150000000000000E-002    -2.9101584997589911E-007
  -3.4099999999999998E-002    -2.9980469838778181E-007
  -3.4049999999999997E-002    -3.0889562255510063E-007
  -3.4000000000000002E-002    -3.1832306828257127E-007
  -3.3950000000000001E-002    -3.2802705334642362E-007
  -3.3900000000000000E-002    -3.3791251181170017E-007
  -3.3849999999999998E-002    -3.4795511522761026E-007
  -3.3799999999999997E-002    -3.5823498601691258E-007
  -3.3750000000000002E-002    -3.6885607806474984E-007
  -3.3700000000000001E-002    -3.7983874193512816E-007
  -3.3649999999999999E-002    -3.9110483964198557E-007
  -3.3599999999999998E-002    -4.0257345493054851E-007
  -3.3550000000000003E-002    -4.1426016266372539E-007
  -3.3500000000000002E-002    -4.2626820200006999E-007
  -3.3450000000000001E-002    -4.3868240653040573E-007
  -3.3399999999999999E-002    -4.5148813666763686E-007
  -3.3349999999999998E-002    -4.6460792120224310E-007
  -3.3300000000000003E-002    -4.7801275549659564E-007
  -3.3250000000000002E-002    -4.9177789570882222E-007
  -3.3200000000000000E-002    -5.0601417497782189E-007
  -3.3149999999999999E-002    -5.2075195693137027E-007
  -3.3099999999999997E-002    -5.3591201909511323E-007
  -3.3050000000000003E-002    -5.5140256035325159E-007
  -3.3000000000000002E-002    -5.6723478560129315E-007
  -3.2950000000000000E-002    -5.8352285755435407E-007
  -3.2899999999999999E-002    -6.0036381734818786E-007
  -3.2850000000000004E-002    -6.1773127785180247E-007
  -3.2800000000000003E-002    -6.3550872220535909E-007
  -3.2750000000000001E-002    -6.5363231104047290E-007
  -3.2700000000000000E-002    -6.7218255082298877E-007
  -3.2649999999999998E-002    -6.9131548477763247E-007
  -3.2600000000000004E-002    -7.1110070797422932E-007
  -3.2550000000000003E-002    -7.3144612872313483E-007
  -3.2500000000000001E-002    -7.5220093990996611E-007
  -3.2450000000000000E-002    -7.7333317742390805E-007
  -3.2399999999999998E-002    -7.9498715538880941E-007
  -3.2350000000000004E-002    -8.1735160431725216E-007
  -3.2300000000000002E-002    -8.4047434884445157E-007
  -3.2250000000000001E-002    -8.6422443256327757E-007
  -3.2199999999999999E-002    -8.8844631788423042E-007
  -3.2149999999999998E-002    -9.1314296126573719E-007
  -3.2100000000000004E-002    -9.3848781245173859E-007
  -3.2050000000000002E-002    -9.6465183647825729E-007
  -3.2000000000000001E-002    -9.9162886126557314E-007
  -3.1949999999999999E-002    -1.0192512789346723E-006
  -3.1899999999999998E-002    -1.0473818838525352E-006
  -3.1850000000000003E-002    -1.0760744682030023E-006
  -3.1800000000000002E-002    -1.1055340323046697E-006
  -3.1750000000000000E-002    -1.1359162878188927E-006
  -3.1699999999999999E-002    -1.1671823169357243E-006
  -3.1649999999999998E-002    -1.1991624116424978E-006
  -3.1600000000000003E-002    -1.2317550473771422E-006
  -3.1550000000000002E-002    -1.2650480944780840E-006
  -3.1500000000000000E-002    -1.2992348990517536E-006
  -3.1449999999999999E-002    -1.3344267576487415E-006
  -3.1399999999999997E-002    -1.3705656643496662E-006
  -3.1350000000000003E-002    -1.4075295367702241E-006
  -3.1300000000000001E-002    -1.4453037417376000E-006
  -3.1250000000000000E-002    -1.4840279815996877E-006
  -3.1199999999999999E-002    -1.5238684031655346E-006
  -3.1150000000000001E-002    -1.5648629417043394E-006
  -3.1100000000000003E-002    -1.6069125408070733E-006
  -3.1050000000000001E-002    -1.6499216016207582E-006
  -3.1000000000000000E-002    -1.6939293440790728E-006
  -3.0949999999999998E-002    -1.7390768609421254E-006
  -3.0900000000000000E-002    -1.7854592563363726E-006
  -3.0850000000000002E-002    -1.8330295363989505E-006
  -3.0800000000000001E-002    -1.8816766620344060E-006
  -3.0750000000000000E-002    -1.9313865228775141E-006
  -3.0699999999999998E-002    -1.9822984570575562E-006
  -3.0650000000000000E-002    -2.0345835171303730E-006
  -3.0600000000000002E-002    -2.0882751331459797E-006
  -3.0550000000000001E-002    -2.1432456248412549E-006
  -3.0499999999999999E-002    -2.1993723129135149E-006
  -3.0449999999999998E-002    -2.2567116718247293E-006
  -3.0400000000000000E-002    -2.3154869086453955E-006
  -3.0350000000000002E-002    -2.3758842374678162E-006
  -3.0300000000000001E-002    -2.4378773432755581E-006
  -3.0249999999999999E-002    -2.5012760745845073E-006
  -3.0200000000000001E-002    -2.5659641357735169E-006
  -3.0150000000000000E-002    -2.6320694358733765E-006
  -3.0100000000000002E-002    -2.6998791773797989E-006
  -3.0050000000000000E-002    -2.7695718389646081E-006
  -2.9999999999999999E-002    -2.8410496249997733E-006
  -2.9950000000000001E-002    -2.9140568208058183E-006
  -2.9899999999999999E-002    -2.9884737782534651E-006
  -2.9850000000000002E-002    -3.0644848332256534E-006
  -2.9800000000000000E-002    -3.1424291373689895E-006
  -2.9749999999999999E-002    -3.2224866195172550E-006
  -2.9700000000000001E-002    -3.3045215135228547E-006
  -2.9650000000000003E-002    -3.3882530575891238E-006
  -2.9600000000000001E-002    -3.4735844348089132E-006
  -2.9550000000000000E-002    -3.5607525581559014E-006
  -2.9499999999999998E-002    -3.6501369780829466E-006
  -2.9450000000000000E-002    -3.7419247583663764E-006
  -2.9400000000000003E-002    -3.8359671561185212E-006
  -2.9350000000000001E-002    -3.9319789752035999E-006
  -2.9300000000000000E-002    -4.0298736025805665E-006
  -2.9249999999999998E-002    -4.1299020382167761E-006
  -2.9200000000000000E-002    -4.2324499350347689E-006
  -2.9150000000000002E-002    -4.3377033463025890E-006
  -2.9100000000000001E-002    -4.4455162477962095E-006
  -2.9049999999999999E-002    -4.5556028535383429E-006
  -2.8999999999999998E-002    -4.6678635609344592E-006
  -2.8950000000000000E-002    -4.7825120398453953E-006
  -2.8900000000000002E-002    -4.8998951554829432E-006
  -2.8850000000000001E-002    -5.0201931261140552E-006
  -2.8799999999999999E-002    -5.1432983913947311E-006
  -2.8749999999999998E-002    -5.2689833690831752E-006
  -2.8700000000000000E-002    -5.3971743071539252E-006
  -2.8650000000000002E-002    -5.5280686040060534E-006
  -2.8600000000000000E-002    -5.6619885722630772E-006
  -2.8549999999999999E-002    -5.7991323736578554E-006
  -2.8500000000000001E-002    -5.9394611373755164E-006
  -2.8450000000000000E-002    -6.0828138606672751E-006
  -2.8400000000000002E-002    -6.2291202552402995E-006
  -2.8350000000000000E-002    -6.3785124722857706E-006
  -2.8299999999999999E-002    -6.5312460498089070E-006
  -2.8250000000000001E-002    -6.6875135022893473E-006
  -2.8200000000000003E-002    -6.8473400975363325E-006
  -2.8150000000000001E-002    -7.0106241591326652E-006
  -2.8100000000000000E-002    -7.1772872673927035E-006
  -2.8049999999999999E-002    -7.3473850611738807E-006
  -2.8000000000000001E-002    -7.5211019380353966E-006
  -2.7950000000000003E-002    -7.6986424481457482E-006
  -2.7900000000000001E-002    -7.8801175180666000E-006
  -2.7850000000000000E-002    -8.0655139034048549E-006
  -2.7799999999999998E-002    -8.2547580972299627E-006
  -2.7750000000000000E-002    -8.4478374244283539E-006
  -2.7700000000000002E-002    -8.6448755181982848E-006
  -2.7650000000000001E-002    -8.8460996354014948E-006
  -2.7600000000000000E-002    -9.0517186664081139E-006
  -2.7549999999999998E-002    -9.2618115134923825E-006
  -2.7500000000000000E-002    -9.4763247604118023E-006
  -2.7450000000000002E-002    -9.6951847697837503E-006
  -2.7400000000000001E-002    -9.9184404018240403E-006
  -2.7349999999999999E-002    -1.0146310214620709E-005
  -2.7299999999999998E-002    -1.0379065987067200E-005
  -2.7250000000000000E-002    -1.0616857592489734E-005
  -2.7200000000000002E-002    -1.0859638379148357E-005
  -2.7150000000000001E-002    -1.1107269888681459E-005
  -2.7099999999999999E-002    -1.1359736253906499E-005
  -2.7049999999999998E-002    -1.1617243297257335E-005
  -2.7000000000000000E-002    -1.1880119405291754E-005
  -2.6950000000000002E-002    -1.2148587665017038E-005
  -2.6900000000000000E-002    -1.2422631780939844E-005
  -2.6849999999999999E-002    -1.2702082359083381E-005
  -2.6800000000000001E-002    -1.2986877146730724E-005
  -2.6749999999999999E-002    -1.3277211777221643E-005
  -2.6700000000000002E-002    -1.3573459874172109E-005
  -2.6650000000000000E-002    -1.3875904269430980E-005
  -2.6599999999999999E-002    -1.4184567920704711E-005
  -2.6550000000000001E-002    -1.4499286600040559E-005
  -2.6500000000000003E-002    -1.4819981068484747E-005
  -2.6450000000000001E-002    -1.5146836338652270E-005
  -2.6400000000000000E-002    -1.5480233311934396E-005
  -2.6349999999999998E-002    -1.5820487090188517E-005
  -2.6300000000000000E-002    -1.6167641923092653E-005
  -2.6250000000000002E-002    -1.6521527055701193E-005
  -2.6200000000000001E-002    -1.6882024382286655E-005
  -2.6150000000000000E-002    -1.7249280189498743E-005
  -2.6099999999999998E-002    -1.7623674332559685E-005
  -2.6050000000000000E-002    -1.8005552876577475E-005
  -2.6000000000000002E-002    -1.8395008498846500E-005
  -2.5950000000000001E-002    -1.8791911927707600E-005
  -2.5899999999999999E-002    -1.9196144681406853E-005
  -2.5849999999999998E-002    -1.9607826205908610E-005
  -2.5800000000000000E-002    -2.0027320205488606E-005
  -2.5750000000000002E-002    -2.0454993283517249E-005
  -2.5700000000000001E-002    -2.0890997977645969E-005
  -2.5649999999999999E-002    -2.1335259389203596E-005
  -2.5599999999999998E-002    -2.1787665052934273E-005
  -2.5550000000000000E-002    -2.2248300758655496E-005
  -2.5500000000000002E-002    -2.2717488379427319E-005
  -2.5450000000000000E-002    -2.3195595190472101E-005
  -2.5399999999999999E-002    -2.3682824909640265E-005
  -2.5349999999999998E-002    -2.4179149849636755E-005
  -2.5300000000000000E-002    -2.4684477010071792E-005
  -2.5250000000000002E-002    -2.5198844630508450E-005
  -2.5200000000000000E-002    -2.5722519641576644E-005
  -2.5149999999999999E-002    -2.6255866350028160E-005
  -2.5100000000000001E-002    -2.6799132028747268E-005
  -2.5049999999999999E-002    -2.7352343190860677E-005
  -2.5000000000000001E-002    -2.7915439115703346E-005
  -2.4950000000000000E-002    -2.8488456977443261E-005
  -2.4899999999999999E-002    -2.9071629840890604E-005
  -2.4850000000000001E-002    -2.9665311261295934E-005
  -2.4800000000000003E-002    -3.0269777975163164E-005
  -2.4750000000000001E-002    -3.0885120799910792E-005
  -2.4700000000000000E-002    -3.1511292951406803E-005
  -2.4649999999999998E-002    -3.2148310323561516E-005
  -2.4600000000000000E-002    -3.2796373146671415E-005
  -2.4550000000000002E-002    -3.3455831970175367E-005
  -2.4500000000000001E-002    -3.4127010822010829E-005
  -2.4450000000000000E-002    -3.4810044867061645E-005
  -2.4399999999999998E-002    -3.5504921550165067E-005
  -2.4350000000000000E-002    -3.6211640475210542E-005
  -2.4299999999999999E-002    -3.6930360048109884E-005
  -2.4250000000000001E-002    -3.7661432728685869E-005
  -2.4199999999999999E-002    -3.8405197622666748E-005
  -2.4150000000000001E-002    -3.9161813222180039E-005
  -2.4100000000000000E-002    -3.9931272117866049E-005
  -2.4049999999999998E-002    -4.0713563232360492E-005
  -2.4000000000000000E-002    -4.1508860943304600E-005
  -2.3949999999999999E-002    -4.2317518880163711E-005
  -2.3900000000000001E-002    -4.3139881298172387E-005
  -2.3850000000000000E-002    -4.3976131592581057E-005
  -2.3800000000000002E-002    -4.4826282568295945E-005
  -2.3750000000000000E-002    -4.5690344262189859E-005
  -2.3699999999999999E-002    -4.6568496334348708E-005
  -2.3650000000000001E-002    -4.7461090613095693E-005
  -2.3599999999999999E-002    -4.8368458804099227E-005
  -2.3550000000000001E-002    -4.9290785461061492E-005
  -2.3500000000000000E-002    -5.0228115317450014E-005
  -2.3449999999999999E-002    -5.1180483886034873E-005
  -2.3400000000000001E-002    -5.2148086770308077E-005
  -2.3349999999999999E-002    -5.3131231569374289E-005
  -2.3300000000000001E-002    -5.4130246508956800E-005
  -2.3250000000000000E-002    -5.5145306808251481E-005
  -2.3199999999999998E-002    -5.6176473984997639E-005
  -2.3150000000000000E-002    -5.7223818342337922E-005
  -2.3099999999999999E-002    -5.8287540856025622E-005
  -2.3050000000000001E-002    -5.9367953982885366E-005
  -2.3000000000000000E-002    -6.0465359128817502E-005
  -2.2950000000000002E-002    -6.1579939539968911E-005
  -2.2900000000000000E-002    -6.2711771535696784E-005
  -2.2849999999999999E-002    -6.3860949641079533E-005
  -2.2800000000000001E-002    -6.5027684297286423E-005
  -2.2749999999999999E-002    -6.6212296501607076E-005
  -2.2700000000000001E-002    -6.7415080448655689E-005
  -2.2650000000000000E-002    -6.8636194104480927E-005
  -2.2599999999999999E-002    -6.9875711648586148E-005
  -2.2550000000000001E-002    -7.1133776781303801E-005
  -2.2499999999999999E-002    -7.2410624354658326E-005
  -2.2450000000000001E-002    -7.3706561649837521E-005
  -2.2400000000000000E-002    -7.5021864383786863E-005
  -2.2349999999999998E-002    -7.6356667911537247E-005
  -2.2300000000000000E-002    -7.7711094814832907E-005
  -2.2249999999999999E-002    -7.9085282657608371E-005
  -2.2200000000000001E-002    -8.0479497251298242E-005
  -2.2150000000000000E-002    -8.1894003454471625E-005
  -2.2100000000000002E-002    -8.3329020499238416E-005
  -2.2050000000000000E-002    -8.4784699999957379E-005
  -2.1999999999999999E-002    -8.6261177513968714E-005
  -2.1950000000000001E-002    -8.7758652514387638E-005
  -2.1899999999999999E-002    -8.9277362903253041E-005
  -2.1850000000000001E-002    -9.0817595914796656E-005
  -2.1800000000000000E-002    -9.2379525110807340E-005
  -2.1749999999999999E-002    -9.3963319127494146E-005
  -2.1700000000000001E-002    -9.5569148299338080E-005
  -2.1649999999999999E-002    -9.7197220194432171E-005
  -2.1600000000000001E-002    -9.8847768484154998E-005
  -2.1550000000000000E-002    -1.0052102136756398E-004
  -2.1499999999999998E-002    -1.0221718030307817E-004
  -2.1450000000000000E-002    -1.0393642631512719E-004
  -2.1399999999999999E-002    -1.0567895216716955E-004
  -2.1350000000000001E-002    -1.0744491759917204E-004
  -2.1299999999999999E-002    -1.0923455286014107E-004
  -2.1250000000000002E-002    -1.1104807116284611E-004
  -2.1200000000000000E-002    -1.1288564751649275E-004
  -2.1149999999999999E-002    -1.1474744996823228E-004
  -2.1100000000000001E-002    -1.1663370635291550E-004
  -2.1049999999999999E-002    -1.1854460422492329E-004
  -2.1000000000000001E-002    -1.2048030283403439E-004
  -2.0950000000000000E-002    -1.2244098184240569E-004
  -2.0899999999999998E-002    -1.2442682813350813E-004
  -2.0850000000000000E-002    -1.2643804086899654E-004
  -2.0799999999999999E-002    -1.2847486568061395E-004
  -2.0750000000000001E-002    -1.3053749486826964E-004
  -2.0700000000000000E-002    -1.3262607905436749E-004
  -2.0649999999999998E-002    -1.3474073242837007E-004
  -2.0600000000000000E-002    -1.3688155938837800E-004
  -2.0549999999999999E-002    -1.3904883516561843E-004
  -2.0500000000000001E-002    -1.4124283446395906E-004
  -2.0449999999999999E-002    -1.4346372220793335E-004
  -2.0400000000000001E-002    -1.4571162101032018E-004
  -2.0350000000000000E-002    -1.4798656511722961E-004
  -2.0299999999999999E-002    -1.5028870280648981E-004
  -2.0250000000000001E-002    -1.5261827741854905E-004
  -2.0199999999999999E-002    -1.5497555705771366E-004
  -2.0150000000000001E-002    -1.5736075113436288E-004
  -2.0100000000000000E-002    -1.5977390515725621E-004
  -2.0049999999999998E-002    -1.6221503143635336E-004
  -2.0000000000000000E-002    -1.6468422422369323E-004
  -1.9949999999999999E-002    -1.6718172212148628E-004
  -1.9900000000000001E-002    -1.6970785626500579E-004
  -1.9850000000000000E-002    -1.7226280971878124E-004
  -1.9799999999999998E-002    -1.7484660043974847E-004
  -1.9750000000000000E-002    -1.7745918339871053E-004
  -1.9699999999999999E-002    -1.8010064518028863E-004
  -1.9650000000000001E-002    -1.8277126532350771E-004
  -1.9599999999999999E-002    -1.8547132110849633E-004
  -1.9550000000000001E-002    -1.8820106287985305E-004
  -1.9500000000000000E-002    -1.9096044714721227E-004
  -1.9449999999999999E-002    -1.9374936486415864E-004
  -1.9400000000000001E-002    -1.9656782656347839E-004
  -1.9349999999999999E-002    -1.9941604385382400E-004
  -1.9300000000000001E-002    -2.0229439121843330E-004
  -1.9250000000000000E-002    -2.0520303682672130E-004
  -1.9199999999999998E-002    -2.0814194735927567E-004
  -1.9150000000000000E-002    -2.1111097495229601E-004
  -1.9099999999999999E-002    -2.1411003313771219E-004
  -1.9050000000000001E-002    -2.1713935359055471E-004
  -1.9000000000000000E-002    -2.2019928313797457E-004
  -1.8949999999999998E-002    -2.2328999701935748E-004
  -1.8900000000000000E-002    -2.2641144973548121E-004
  -1.8849999999999999E-002    -2.2956346195851258E-004
  -1.8800000000000001E-002    -2.3274587713946774E-004
  -1.8749999999999999E-002    -2.3595892915307315E-004
  -1.8700000000000001E-002    -2.3920286789186991E-004
  -1.8650000000000000E-002    -2.4247787525396962E-004
  -1.8599999999999998E-002    -2.4578391591839393E-004
  -1.8550000000000001E-002    -2.4912079294887304E-004
  -1.8499999999999999E-002    -2.5248825015650568E-004
  -1.8450000000000001E-002    -2.5588643644568502E-004
  -1.8400000000000000E-002    -2.5931561342286630E-004
  -1.8349999999999998E-002    -2.6277591441614852E-004
  -1.8300000000000000E-002    -2.6626722955524129E-004
  -1.8249999999999999E-002    -2.6978934641638634E-004
  -1.8200000000000001E-002    -2.7334202574653488E-004
  -1.8149999999999999E-002    -2.7692532678233895E-004
  -1.8100000000000002E-002    -2.8053946922564771E-004
  -1.8050000000000000E-002    -2.8418456676650161E-004
  -1.7999999999999999E-002    -2.8786048622067876E-004
  -1.7950000000000001E-002    -2.9156699178314741E-004
  -1.7899999999999999E-002    -2.9530389202989072E-004
  -1.7850000000000001E-002    -2.9907111717995686E-004
  -1.7800000000000000E-002    -3.0286870172030900E-004
  -1.7749999999999998E-002    -3.0669676732298637E-004
  -1.7700000000000000E-002    -3.1055524878542727E-004
  -1.7649999999999999E-002    -3.1444393821113527E-004
  -1.7600000000000001E-002    -3.1836245532523193E-004
  -1.7550000000000000E-002    -3.2231063075020263E-004
  -1.7499999999999998E-002    -3.2628853370258960E-004
  -1.7450000000000000E-002    -3.3029624308383724E-004
  -1.7399999999999999E-002    -3.3433360857322136E-004
  -1.7350000000000001E-002    -3.3840034141419334E-004
  -1.7299999999999999E-002    -3.4249606771638227E-004
  -1.7250000000000001E-002    -3.4662060905883306E-004
  -1.7200000000000000E-002    -3.5077388196430711E-004
  -1.7149999999999999E-002    -3.5495590159917087E-004
  -1.7100000000000001E-002    -3.5916656151202325E-004
  -1.7049999999999999E-002    -3.6340549881389668E-004
  -1.7000000000000001E-002    -3.6767237051416003E-004
  -1.6950000000000000E-002    -3.7196683102402785E-004
  -1.6899999999999998E-002    -3.7628872732410222E-004
  -1.6850000000000000E-002    -3.8063804878766920E-004
  -1.6799999999999999E-002    -3.8501460268893688E-004
  -1.6750000000000001E-002    -3.8941791189808523E-004
  -1.6700000000000000E-002    -3.9384759359971638E-004
  -1.6649999999999998E-002    -3.9830346115873275E-004
  -1.6600000000000000E-002    -4.0278523056729411E-004
  -1.6549999999999999E-002    -4.0729264179313867E-004
  -1.6500000000000001E-002    -4.1182540993423130E-004
  -1.6449999999999999E-002    -4.1638319461178349E-004
  -1.6400000000000001E-002    -4.2096552878250881E-004
  -1.6350000000000000E-002    -4.2557214343738820E-004
  -1.6299999999999999E-002    -4.3020275045020737E-004
  -1.6250000000000001E-002    -4.3485690741721207E-004
  -1.6199999999999999E-002    -4.3953435090290449E-004
  -1.6150000000000001E-002    -4.4423445086681085E-004
  -1.6100000000000000E-002    -4.4895691390948447E-004
  -1.6049999999999998E-002    -4.5370143898345629E-004
  -1.6000000000000000E-002    -4.5846766840123600E-004
  -1.5949999999999999E-002    -4.6325501746887626E-004
  -1.5900000000000001E-002    -4.6806285544807999E-004
  -1.5850000000000000E-002    -4.7289079430408790E-004
  -1.5799999999999998E-002    -4.7773845626823902E-004
  -1.5750000000000000E-002    -4.8260556441533748E-004
  -1.5699999999999999E-002    -4.8749176665354235E-004
  -1.5650000000000001E-002    -4.9239630652630909E-004
  -1.5599999999999999E-002    -4.9731820100695290E-004
  -1.5550000000000001E-002    -5.0225705964861015E-004
  -1.5500000000000000E-002    -5.0721262904455640E-004
  -1.5449999999999998E-002    -5.1218484495700427E-004
  -1.5400000000000000E-002    -5.1717293917767247E-004
  -1.5349999999999999E-002    -5.2217600520728259E-004
  -1.5300000000000001E-002    -5.2719306650004854E-004
  -1.5250000000000000E-002    -5.3222353349744074E-004
  -1.5199999999999998E-002    -5.3726738521604452E-004
  -1.5150000000000000E-002    -5.4232430987923626E-004
  -1.5099999999999999E-002    -5.4739368482164185E-004
  -1.5050000000000001E-002    -5.5247422252907401E-004
  -1.4999999999999999E-002    -5.5756489526867948E-004
  -1.4949999999999998E-002    -5.6266514375925142E-004
  -1.4900000000000000E-002    -5.6777478869421937E-004
  -1.4849999999999999E-002    -5.7289370347011169E-004
  -1.4800000000000001E-002    -5.7802101531198927E-004
  -1.4749999999999999E-002    -5.8315543862369219E-004
  -1.4700000000000001E-002    -5.8829575697255405E-004
  -1.4650000000000000E-002    -5.9344128504600080E-004
  -1.4599999999999998E-002    -5.9859195421931282E-004
  -1.4550000000000000E-002    -6.0374750752255433E-004
  -1.4499999999999999E-002    -6.0890698481730517E-004
  -1.4450000000000001E-002    -6.1406892433144965E-004
  -1.4400000000000000E-002    -6.1923209747910980E-004
  -1.4349999999999998E-002    -6.2439579042018831E-004
  -1.4300000000000000E-002    -6.2955995656552560E-004
  -1.4249999999999999E-002    -6.3472420137128220E-004
  -1.4200000000000001E-002    -6.3988742963034216E-004
  -1.4149999999999999E-002    -6.4504806902998622E-004
  -1.4099999999999998E-002    -6.5020483597526268E-004
  -1.4050000000000000E-002    -6.5535717032725715E-004
  -1.3999999999999999E-002    -6.6050480873260792E-004
  -1.3950000000000001E-002    -6.6564730745382987E-004
  -1.3899999999999999E-002    -6.7078332377547463E-004
  -1.3850000000000001E-002    -6.7591124147683458E-004
  -1.3800000000000000E-002    -6.8102957612729744E-004
  -1.3749999999999998E-002    -6.8613808862244725E-004
  -1.3700000000000000E-002    -6.9123647750384334E-004
  -1.3649999999999999E-002    -6.9632408591028139E-004
  -1.3600000000000001E-002    -7.0139944782589714E-004
  -1.3550000000000000E-002    -7.0646069957580604E-004
  -1.3499999999999998E-002    -7.1150662619331832E-004
  -1.3450000000000000E-002    -7.1653673622921500E-004
  -1.3399999999999999E-002    -7.2155086793832326E-004
  -1.3350000000000001E-002    -7.2654820241860665E-004
  -1.3299999999999999E-002    -7.3152697323427066E-004
  -1.3249999999999998E-002    -7.3648536944209697E-004
  -1.3200000000000000E-002    -7.4142220383993825E-004
  -1.3149999999999998E-002    -7.4633707176127023E-004
  -1.3100000000000001E-002    -7.5122959186448273E-004
  -1.3049999999999999E-002    -7.5609847595492930E-004
  -1.3000000000000001E-002    -7.6094215754732384E-004
  -1.2950000000000000E-002    -7.6575887630346302E-004
  -1.2899999999999998E-002    -7.7054767466677720E-004
  -1.2850000000000000E-002    -7.7530804171881563E-004
  -1.2799999999999999E-002    -7.8003934352566858E-004