  -4.0000000000000001E-002     0.0000000000000000     
  -3.9949999999999999E-002     0.0000000000000000     
  -3.9899999999999998E-002     0.0000000000000000     
  -3.9850000000000003E-002     0.0000000000000000     
  -3.9800000000000002E-002     0.0000000000000000     
  -3.9750000000000001E-002     0.0000000000000000     
  -3.9699999999999999E-002     0.0000000000000000     
  -3.9649999999999998E-002     0.0000000000000000     
  -3.9600000000000003E-002     0.0000000000000000     
  -3.9550000000000002E-002     0.0000000000000000     
  -3.9500000000000000E-002     0.0000000000000000     
  -3.9449999999999999E-002     0.0000000000000000     
  -3.9399999999999998E-002     0.0000000000000000     
  -3.9350000000000003E-002     0.0000000000000000     
  -3.9300000000000002E-002     0.0000000000000000     
  -3.9250000000000000E-002     0.0000000000000000     
  -3.9199999999999999E-002     0.0000000000000000     
  -3.9150000000000004E-002     0.0000000000000000     
  -3.9100000000000003E-002     0.0000000000000000     
  -3.9050000000000001E-002     0.0000000000000000     
  -3.9000000000000000E-002     0.0000000000000000     
  -3.8949999999999999E-002     0.0000000000000000     
  -3.8900000000000004E-002     0.0000000000000000     
  -3.8850000000000003E-002     0.0000000000000000     
  -3.8800000000000001E-002     0.0000000000000000     
  -3.8750000000000000E-002     0.0000000000000000     
  -3.8699999999999998E-002     0.0000000000000000     
  -3.8650000000000004E-002     0.0000000000000000     
  -3.8600000000000002E-002     0.0000000000000000     
  -3.8550000000000001E-002     0.0000000000000000     
  -3.8500000000000000E-002     0.0000000000000000     
  -3.8449999999999998E-002     0.0000000000000000     
  -3.8400000000000004E-002     0.0000000000000000     
  -3.8350000000000002E-002     0.0000000000000000     
  -3.8300000000000001E-002     0.0000000000000000     
  -3.8249999999999999E-002     0.0000000000000000     
  -3.8199999999999998E-002     0.0000000000000000     
  -3.8150000000000003E-002     0.0000000000000000     
  -3.8100000000000002E-002     0.0000000000000000     
  -3.8050000000000000E-002     0.0000000000000000     
  -3.7999999999999999E-002     0.0000000000000000     
  -3.7949999999999998E-002     0.0000000000000000     
  -3.7900000000000003E-002     0.0000000000000000     
  -3.7850000000000002E-002     0.0000000000000000     
  -3.7800000000000000E-002     0.0000000000000000     
  -3.7749999999999999E-002     0.0000000000000000     
  -3.7699999999999997E-002     0.0000000000000000     
  -3.7650000000000003E-002     0.0000000000000000     
  -3.7600000000000001E-002     0.0000000000000000     
  -3.7550000000000000E-002     0.0000000000000000     
  -3.7499999999999999E-002     0.0000000000000000     
  -3.7449999999999997E-002     0.0000000000000000     
  -3.7400000000000003E-002     0.0000000000000000     
  -3.7350000000000001E-002     0.0000000000000000     
  -3.7300000000000000E-002     0.0000000000000000     
  -3.7249999999999998E-002     0.0000000000000000     
  -3.7200000000000004E-002     0.0000000000000000     
  -3.7150000000000002E-002     0.0000000000000000     
  -3.7100000000000001E-002     0.0000000000000000     
  -3.7050000000000000E-002     0.0000000000000000     
  -3.6999999999999998E-002     0.0000000000000000     
  -3.6950000000000004E-002     0.0000000000000000     
  -3.6900000000000002E-002     0.0000000000000000     
  -3.6850000000000001E-002     0.0000000000000000     
  -3.6799999999999999E-002     0.0000000000000000     
  -3.6749999999999998E-002     0.0000000000000000     
  -3.6700000000000003E-002     0.0000000000000000     
  -3.6650000000000002E-002     0.0000000000000000     
  -3.6600000000000001E-002     0.0000000000000000     
  -3.6549999999999999E-002     0.0000000000000000     
  -3.6499999999999998E-002     0.0000000000000000     
  -3.6450000000000003E-002     0.0000000000000000     
  -3.6400000000000002E-002     0.0000000000000000     
  -3.6350000000000000E-002     0.0000000000000000     
  -3.6299999999999999E-002     0.0000000000000000     
  -3.6249999999999998E-002    -6.5580167148761597E-040
  -3.6200000000000003E-002    -1.3077734123959392E-039
  -3.6150000000000002E-002    -1.3077734123959392E-039
  -3.6100000000000000E-002     1.0741258533961191E-039
  -3.6049999999999999E-002     6.4309983561328617E-039
  -3.6000000000000004E-002     1.3494195343278986E-038
  -3.5950000000000003E-002     1.9124533937703304E-038
  -3.5900000000000001E-002     1.5283785088681770E-038
  -3.5850000000000000E-002    -5.2823286975611521E-039
  -3.5799999999999998E-002    -4.8571696318169318E-038
  -3.5750000000000004E-002    -1.1224610906803503E-037
  -3.5700000000000003E-002    -1.7611492003995743E-037
  -3.5650000000000001E-002    -2.1206993842514968E-037
  -3.5600000000000000E-002    -1.7638840564102443E-037
  -3.5549999999999998E-002    -1.2315694877816501E-038
  -3.5500000000000004E-002     3.2068643157683547E-037
  -3.5450000000000002E-002     8.4365089941754951E-037
  -3.5400000000000001E-002     1.4946083918755078E-036
  -3.5349999999999999E-002     2.0729505194027458E-036
  -3.5299999999999998E-002     2.2277136897969990E-036
  -3.5250000000000004E-002     1.4754087359991784E-036
  -3.5200000000000002E-002    -6.7387204320685788E-037
  -3.5150000000000001E-002    -4.4823932438083889E-036
  -3.5099999999999999E-002    -9.6605394061154706E-036
  -3.5049999999999998E-002    -1.5040296645661102E-035
  -3.5000000000000003E-002    -1.8400111456772486E-035
  -3.4950000000000002E-002    -1.6642713042538938E-035
  -3.4900000000000000E-002    -6.5057688220267306E-036
  -3.4849999999999999E-002     1.4130803777962438E-035
  -3.4799999999999998E-002     4.4510932005951597E-035
  -3.4750000000000003E-002     7.9325801374346056E-035
  -3.4700000000000002E-002     1.0787539663361730E-034
  -3.4650000000000000E-002     1.1497898561346783E-034
  -3.4599999999999999E-002     8.4329270878163374E-035
  -3.4549999999999997E-002     4.3186052669799103E-036
  -3.4500000000000003E-002    -1.2471983268399982E-034
  -3.4450000000000001E-002    -2.8414780913917557E-034
  -3.4400000000000000E-002    -4.3470990943005781E-034
  -3.4349999999999999E-002    -5.2135523441549729E-034
  -3.4299999999999997E-002    -4.8669613198613600E-034
  -3.4250000000000003E-002    -2.9147239235176302E-034
  -3.4200000000000001E-002     6.3625104773722718E-035
  -3.4150000000000000E-002     5.2383150252490797E-034
  -3.4099999999999998E-002     9.8372556048204436E-034
  -3.4049999999999997E-002     1.3143578365522222E-033
  -3.4000000000000002E-002     1.4115371106047733E-033
  -3.3950000000000001E-002     1.2506191285837790E-033
  -3.3900000000000000E-002     9.2195207273089313E-034
  -3.3849999999999998E-002     6.1714470252020321E-034
  -3.3799999999999997E-002     5.4564140949686919E-034
  -3.3750000000000002E-002     7.8654473498889557E-034
  -3.3700000000000001E-002     1.1185095742142490E-033
  -3.3649999999999999E-002     9.0890281541319779E-034
  -3.3599999999999998E-002    -8.3639997561774664E-034
  -3.3550000000000003E-002    -5.1791878697991274E-033
  -3.3500000000000002E-002    -1.2696126414120027E-032
  -3.3450000000000001E-002    -2.2766142646317652E-032
  -3.3399999999999999E-002    -3.2928719201975916E-032
  -3.3349999999999998E-002    -3.8643374525209919E-032
  -3.3300000000000003E-002    -3.3789778267421602E-032
  -3.3250000000000002E-002    -1.2121429651661162E-032
  -3.3200000000000000E-002     3.0384224463233241E-032
  -3.3149999999999999E-002     9.2701448993314607E-032
  -3.3099999999999997E-002     1.6623714929670192E-031
  -3.3050000000000003E-002     2.3361090924443343E-031
  -3.3000000000000002E-002     2.6967951697015747E-031
  -3.2950000000000000E-002     2.4538661441654438E-031
  -3.2899999999999999E-002     1.3438465552864339E-031
  -3.2850000000000004E-002    -7.8371412197910864E-032
  -3.2800000000000003E-002    -3.8752350411663230E-031
  -3.2750000000000001E-002    -7.5957485953474894E-031
  -3.2700000000000000E-002    -1.1284922500345467E-030
  -3.2649999999999998E-002    -1.3965102127753729E-030
  -3.2600000000000004E-002    -1.4418713227545368E-030
  -3.2550000000000003E-002    -1.1351844434115346E-030
  -3.2500000000000001E-002    -3.6596770512524709E-031
  -3.2450000000000000E-002     9.1984535617307699E-031
  -3.2399999999999998E-002     2.6729611176474312E-030
  -3.2350000000000004E-002     4.6905676093419610E-030
  -3.2300000000000002E-002     6.5762932590247950E-030
  -3.2250000000000001E-002     7.7317754012921009E-030
  -3.2199999999999999E-002     7.4071223574397770E-030
  -3.2149999999999998E-002     4.8360814822784611E-030
  -3.2100000000000004E-002    -5.3229608076801593E-031
  -3.2050000000000002E-002    -8.7231760552219857E-030
  -3.2000000000000001E-002    -1.8907225126206627E-029
  -3.1949999999999999E-002    -2.9160875300559477E-029
  -3.1899999999999998E-002    -3.6456231803211040E-029
  -3.1850000000000003E-002    -3.7019708684181321E-029
  -3.1800000000000002E-002    -2.7142581708798712E-029
  -3.1750000000000000E-002    -4.4083768318268381E-030
  -3.1699999999999999E-002     3.0865826581450898E-029
  -3.1649999999999998E-002     7.4356155622734671E-029
  -3.1600000000000003E-002     1.1713779952431722E-028
  -3.1550000000000002E-002     1.4628951650284271E-028
  -3.1500000000000000E-002     1.4704704306966726E-028
  -3.1449999999999999E-002     1.0649221770149839E-028
  -3.1399999999999997E-002     1.8254334083588314E-029
  -3.1350000000000003E-002    -1.1284003183872961E-028
  -3.1300000000000001E-002    -2.6762932098146246E-028
  -3.1250000000000000E-002    -4.1252217903153077E-028
  -3.1199999999999999E-002    -5.0358330963993300E-028
  -3.1150000000000001E-002    -4.9506003215554240E-028
  -3.1100000000000003E-002    -3.5137733546362252E-028
  -3.1050000000000001E-002    -6.0327116356583244E-029
  -3.1000000000000000E-002     3.5580988409365848E-028
  -3.0949999999999998E-002     8.3477816728545680E-028
  -3.0900000000000000E-002     1.2774471492363107E-027
  -3.0850000000000002E-002     1.5609138320514241E-027
  -3.0800000000000001E-002     1.5608623605484548E-027
  -3.0750000000000000E-002     1.1801448661318657E-027
  -3.0699999999999998E-002     3.7871914694736000E-028
  -3.0650000000000000E-002    -8.0085360102542025E-028
  -3.0600000000000002E-002    -2.2180190643377683E-027
  -3.0550000000000001E-002    -3.6336358074551208E-027
  -3.0499999999999999E-002    -4.7274608910255066E-027
  -3.0449999999999998E-002    -5.1355837438450814E-027
  -3.0400000000000000E-002    -4.5083049952930563E-027
  -3.0350000000000002E-002    -2.5870818782772883E-027
  -3.0300000000000001E-002     7.0415228914771194E-028
  -3.0249999999999999E-002     5.1638564283987713E-027
  -3.0200000000000001E-002     1.0233027483283303E-026
  -3.0150000000000000E-002     1.4959531462431588E-026
  -3.0100000000000002E-002     1.8042921342188684E-026
  -3.0050000000000000E-002     1.7995499547221760E-026
  -2.9999999999999999E-002     1.3440829094755232E-026
  -2.9950000000000001E-002     3.5386984687808320E-027
  -2.9899999999999999E-002    -1.1523242056570151E-026
  -2.9850000000000002E-002    -3.0087279263961601E-026
  -2.9800000000000000E-002    -4.8795797645196697E-026
  -2.9749999999999999E-002    -6.2751939923333259E-026
  -2.9700000000000001E-002    -6.6210331788741266E-026
  -2.9650000000000003E-002    -5.3833181031599366E-026
  -2.9600000000000001E-002    -2.2381839084007819E-026
  -2.9550000000000000E-002     2.7481373361070310E-026
  -2.9499999999999998E-002     8.9779989933954303E-026
  -2.9450000000000000E-002     1.5278190368243845E-025
  -2.9400000000000003E-002     2.0004440416385377E-025
  -2.9350000000000001E-002     2.1320462224978597E-025
  -2.9300000000000000E-002     1.7634378687248667E-025
  -2.9249999999999998E-002     8.1222106202719562E-026
  -2.9200000000000000E-002    -6.7815795079159570E-026
  -2.9150000000000002E-002    -2.5076643533789830E-025
  -2.9100000000000001E-002    -4.3217471829943042E-025
  -2.9049999999999999E-002    -5.6558297466275959E-025
  -2.8999999999999998E-002    -6.0226985225172241E-025
  -2.8950000000000000E-002    -5.0314738435223924E-025
  -2.8900000000000002E-002    -2.5151595372073081E-025
  -2.8850000000000001E-002     1.3645310219334019E-025
  -2.8799999999999999E-002     6.0679707191992205E-025
  -2.8749999999999998E-002     1.0710072826606248E-024
  -2.8700000000000000E-002     1.4185181249062142E-024
  -2.8650000000000002E-002     1.5374022656712576E-024
  -2.8600000000000000E-002     1.3400146815836357E-024
  -2.8549999999999999E-002     7.8854174847890171E-025
  -2.8500000000000001E-002    -8.5399433356535957E-026
  -2.8450000000000000E-002    -1.1724898233279741E-024
  -2.8400000000000002E-002    -2.2923871547778779E-024
  -2.8350000000000000E-002    -3.2162576152555159E-024
  -2.8299999999999999E-002    -3.7029820265171937E-024
  -2.8250000000000001E-002    -3.5440925812469484E-024
  -2.8200000000000003E-002    -2.6105915913162241E-024
  -2.8150000000000001E-002    -8.9405384022928602E-025
  -2.8100000000000000E-002     1.4652626203493815E-024
  -2.8049999999999999E-002     4.1695093549937127E-024
  -2.8000000000000001E-002     6.7783028193764946E-024
  -2.7950000000000003E-002     8.7508633648220294E-024
  -2.7900000000000001E-002     9.5163284623360562E-024
  -2.7850000000000000E-002     8.5702974141414177E-024
  -2.7799999999999998E-002     5.5909568120643455E-024
  -2.7750000000000000E-002     5.6137209560897095E-025
  -2.7700000000000002E-002    -6.1236591814840935E-024
  -2.7650000000000001E-002    -1.3595593066830855E-023
  -2.7600000000000000E-002    -2.0528593972152539E-023
  -2.7549999999999998E-002    -2.5264775470869203E-023
  -2.7500000000000000E-002    -2.6064690471047612E-023
  -2.7450000000000002E-002    -2.1473504158879723E-023
  -2.7400000000000001E-002    -1.0757956663518273E-023
  -2.7349999999999999E-002     5.6690824733660042E-024
  -2.7299999999999998E-002     2.5949877815271096E-023
  -2.7250000000000000E-002     4.6732467399202982E-023
  -2.7200000000000002E-002     6.3472783303836228E-023
  -2.7150000000000001E-002     7.1132623761228693E-023
  -2.7099999999999999E-002     6.5227151692059879E-023
  -2.7049999999999998E-002     4.3067577237383249E-023
  -2.7000000000000000E-002     4.9441463680268681E-024
  -2.6950000000000002E-002    -4.5067890791463881E-023
  -2.6900000000000000E-002    -9.8992065575269919E-023
  -2.6849999999999999E-002    -1.4574777107999840E-022
  -2.6800000000000001E-002    -1.7291191461814622E-022
  -2.6749999999999999E-002    -1.6926498714333821E-022
  -2.6700000000000002E-002    -1.2769939858426373E-022
  -2.6650000000000000E-002    -4.7874673030414853E-023
  -2.6599999999999999E-002     6.2076047673283863E-023
  -2.6550000000000001E-002     1.8540878662778818E-022
  -2.6500000000000003E-002     2.9857407488422667E-022
  -2.6450000000000001E-002     3.7495272647356307E-022
  -2.6400000000000000E-002     3.9005103262950067E-022
  -2.6349999999999998E-002     3.2725809518466557E-022
  -2.6300000000000000E-002     1.8298305784168554E-022
  -2.6250000000000002E-002    -3.0068107635236471E-023
  -2.6200000000000001E-002    -2.8249459947452093E-022
  -2.6150000000000000E-002    -5.3121886112751476E-022
  -2.6099999999999998E-002    -7.2580191566105750E-022
  -2.6050000000000000E-002    -8.1722760360105798E-022
  -2.6000000000000002E-002    -7.6773203181303065E-022
  -2.5950000000000001E-002    -5.5989742601948255E-022
  -2.5899999999999999E-002    -2.0320616964528064E-022
  -2.5849999999999998E-002     2.6343063091110800E-022
  -2.5800000000000000E-002     7.7404933419224622E-022
  -2.5750000000000002E-002     1.2430246954613397E-021
  -2.5700000000000001E-002     1.5767987487524513E-021
  -2.5649999999999999E-002     1.6885818361171917E-021
  -2.5599999999999998E-002     1.5141709376205684E-021
  -2.5550000000000000E-002     1.0267461003754068E-021
  -2.5500000000000002E-002     2.4841550490377892E-022
  -2.5450000000000000E-002    -7.4365209197563407E-022
  -2.5399999999999999E-002    -1.8184410027520951E-021
  -2.5349999999999998E-002    -2.8011488461000265E-021
  -2.5300000000000000E-002    -3.4928476251569472E-021
  -2.5250000000000002E-002    -3.6993260856778300E-021
  -2.5200000000000000E-002    -3.2669895004249110E-021
  -2.5149999999999999E-002    -2.1216186747584141E-021
  -2.5100000000000001E-002    -3.0362473807429863E-022
  -2.5049999999999999E-002     2.0083181086719553E-021
  -2.5000000000000001E-002     4.4939156397401382E-021
  -2.4950000000000000E-002     6.7155052882866414E-021
  -2.4899999999999999E-002     8.1736524081620132E-021
  -2.4850000000000001E-002     8.3918837831330788E-021
  -2.4800000000000003E-002     7.0208586707370037E-021
  -2.4750000000000001E-002     3.9447100759358220E-021
  -2.4700000000000000E-002    -6.3361385724331395E-022
  -2.4649999999999998E-002    -6.1530440297172782E-021
  -2.4600000000000000E-002    -1.1722528483919162E-020
  -2.4550000000000002E-002    -1.6228134393009169E-020
  -2.4500000000000001E-002    -1.8515175546401622E-020
  -2.4450000000000000E-002    -1.7623097507297414E-020
  -2.4399999999999998E-002    -1.3033031884307437E-020
  -2.4350000000000000E-002    -4.8757334932141746E-021
  -2.4299999999999999E-002     5.9552379218418667E-021
  -2.4250000000000001E-002     1.7830564050309683E-020
  -2.4199999999999999E-002     2.8575624830567607E-020
  -2.4150000000000001E-002     3.5815357787866095E-020
  -2.4100000000000000E-002     3.7428215349535270E-020
  -2.4049999999999998E-002     3.2031333677363966E-020
  -2.4000000000000000E-002     1.9398147619847689E-020
  -2.3949999999999999E-002     7.0799031538647000E-022
  -2.3900000000000001E-002    -2.1452824278199896E-020
  -2.3850000000000000E-002    -4.3377838892809763E-020
  -2.3800000000000002E-002    -6.0799049932505802E-020
  -2.3750000000000000E-002    -6.9641783486507206E-020
  -2.3699999999999999E-002    -6.6849466148119368E-020
  -2.3650000000000001E-002    -5.1122011034469157E-020
  -2.3599999999999999E-002    -2.3410695389048057E-020
  -2.3550000000000001E-002     1.2955591054942143E-020
  -2.3500000000000000E-002     5.2578339940503774E-020
  -2.3449999999999999E-002     8.8718969498197101E-020
  -2.3400000000000001E-002     1.1435703014198321E-019
  -2.3349999999999999E-002     1.2341490601124222E-019
  -2.3300000000000001E-002     1.1194610628264528E-019
  -2.3250000000000000E-002     7.9076652396189637E-020
  -2.3199999999999998E-002     2.7519177561718291E-020
  -2.3150000000000000E-002    -3.6460321067254118E-020
  -2.3099999999999999E-002    -1.0366207402205405E-019
  -2.3050000000000001E-002    -1.6311021684741357E-019
  -2.3000000000000000E-002    -2.0361859719055284E-019
  -2.2950000000000002E-002    -2.1557028593271449E-019
  -2.2900000000000000E-002    -1.9267362114090990E-019
  -2.2849999999999999E-002    -1.3343942264597401E-019
  -2.2800000000000001E-002    -4.2132928240159982E-020
  -2.2749999999999999E-002     7.1013331704801210E-020
  -2.2700000000000001E-002     1.9047694894948544E-019
  -2.2650000000000000E-002     2.9707392537821432E-019
  -2.2599999999999999E-002     3.7047416305971545E-019
  -2.2550000000000001E-002     3.9239214293612059E-019
  -2.2499999999999999E-002     3.5007867617230337E-019
  -2.2450000000000001E-002     2.3958669687037035E-019
  -2.2400000000000000E-002     6.8187237220713543E-020
  -2.2349999999999998E-002    -1.4470435960855767E-019
  -2.2300000000000000E-002    -3.6861576854402382E-019
  -2.2249999999999999E-002    -5.6538775559671804E-019
  -2.2200000000000001E-002    -6.9470657937971460E-019
  -2.2150000000000000E-002    -7.2121091993587330E-019
  -2.2100000000000002E-002    -6.2211466457976812E-019
  -2.2050000000000000E-002    -3.9393048599306937E-019
  -2.1999999999999999E-002    -5.6746906227892370E-020
  -2.1950000000000001E-002     3.4531424197935110E-019
  -2.1899999999999999E-002     7.4831568883388603E-019
  -2.1850000000000001E-002     1.0774383889272727E-018
  -2.1800000000000000E-002     1.2596733545283785E-018
  -2.1749999999999999E-002     1.2383361278081762E-018
  -2.1700000000000001E-002     9.8673956835488323E-019
  -2.1649999999999999E-002     5.1806490358410485E-019
  -2.1600000000000001E-002    -1.1120457379070693E-019
  -2.1550000000000000E-002    -8.0598404838886842E-019
  -2.1499999999999998E-002    -1.4456641069397968E-018
  -2.1450000000000000E-002    -1.9040703607747727E-018
  -2.1399999999999999E-002    -2.0731702688600035E-018
  -2.1350000000000001E-002    -1.8861995792130929E-018
  -2.1299999999999999E-002    -1.3354508397521281E-018
  -2.1250000000000002E-002    -4.8052633970424679E-019
  -2.1200000000000000E-002     5.5565110288685548E-019
  -2.1149999999999999E-002     1.6035429086026107E-018
  -2.1100000000000001E-002     2.4743481306939239E-018
  -2.1049999999999999E-002     2.9935831116597666E-018
  -2.1000000000000001E-002     3.0348583855721313E-018
  -2.0950000000000000E-002     2.5473068605668813E-018
  -2.0899999999999998E-002     1.5709287835733648E-018
  -2.0850000000000000E-002     2.3613955607114828E-019
  -2.0799999999999999E-002    -1.2533287165565011E-018
  -2.0750000000000001E-002    -2.6518672324575469E-018
  -2.0700000000000000E-002    -3.7126476425309944E-018
  -2.0649999999999998E-002    -4.2304760892143799E-018
  -2.0600000000000000E-002    -4.0792866169027466E-018
  -2.0549999999999999E-002    -3.2375694607153315E-018
  -2.0500000000000001E-002    -1.7970973815236229E-018
  -2.0449999999999999E-002     4.6729332161863050E-020
  -2.0400000000000001E-002     2.0215816357798459E-018
  -2.0350000000000000E-002     3.8177796666792602E-018
  -2.0299999999999999E-002     5.1348061913261655E-018
  -2.0250000000000001E-002     5.7278702260787202E-018
  -2.0199999999999999E-002     5.4480063738753543E-018
  -2.0150000000000001E-002     4.2701674791444778E-018
  -2.0100000000000000E-002     2.3053955461349600E-018
  -2.0049999999999998E-002    -2.0499446455491303E-019
  -2.0000000000000000E-002    -2.9135410279489035E-018
  -1.9949999999999999E-002    -5.4075741151318294E-018
  -1.9900000000000001E-002    -7.2637440676581741E-018
  -1.9850000000000000E-002    -8.1110388435843520E-018
  -1.9799999999999998E-002    -7.6952106281618347E-018
  -1.9750000000000000E-002    -5.9355754874845459E-018
  -1.9699999999999999E-002    -2.9642280412239883E-018
  -1.9650000000000001E-002     8.6257971451647161E-019
  -1.9599999999999999E-002     4.9889938232085520E-018
  -1.9550000000000001E-002     8.7238569839997388E-018
  -1.9500000000000000E-002     1.1342006511689160E-017
  -1.9449999999999999E-002     1.2211571471517929E-017
  -1.9400000000000001E-002     1.0928432120474925E-017
  -1.9349999999999999E-002     7.4323577674532063E-018
  -1.9300000000000001E-002     2.0776809652998278E-018
  -1.9250000000000000E-002    -4.3657190564854697E-018
  -1.9199999999999998E-002    -1.0795239363227501E-017
  -1.9150000000000000E-002    -1.5941314722795637E-017
  -1.9099999999999999E-002    -1.8596878549591481E-017
  -1.9050000000000001E-002    -1.7873733047045013E-017
  -1.9000000000000000E-002    -1.3435970227334738E-017
  -1.8949999999999998E-002    -5.6564161264005157E-018
  -1.8900000000000000E-002     4.3501322067178227E-018
  -1.8849999999999999E-002     1.4844675651835970E-017
  -1.8800000000000001E-002     2.3731563316604165E-017
  -1.8749999999999999E-002     2.8941913654825789E-017
  -1.8700000000000001E-002     2.8868710497772069E-017
  -1.8650000000000000E-002     2.2768263500696426E-017
  -1.8599999999999998E-002     1.1037764297891594E-017
  -1.8550000000000001E-002    -4.7069545900090566E-018
  -1.8499999999999999E-002    -2.1796858377879769E-017
  -1.8450000000000001E-002    -3.6915614737195937E-017
  -1.8400000000000000E-002    -4.6692110618067382E-017
  -1.8349999999999998E-002    -4.8379523440564277E-017
  -1.8300000000000000E-002    -4.0491879996792541E-017
  -1.8249999999999999E-002    -2.3262483856725045E-017
  -1.8200000000000001E-002     1.1874701921006343E-018
  -1.8149999999999999E-002     2.9036885261046639E-017
  -1.8100000000000002E-002     5.5307797810500886E-017
  -1.8050000000000000E-002     7.4693751663207661E-017
  -1.7999999999999999E-002     8.2539157002596881E-017
  -1.7950000000000001E-002     7.5796478591618239E-017
  -1.7899999999999999E-002     5.3777633388034813E-017
  -1.7850000000000001E-002     1.8541356996417086E-017
  -1.7800000000000000E-002    -2.5184519992637878E-017
  -1.7749999999999998E-002    -7.0569892728013441E-017
  -1.7700000000000000E-002    -1.0967490495142507E-016
  -1.7649999999999999E-002    -1.3472695204352394E-016
  -1.7600000000000001E-002    -1.3948455439593017E-016
  -1.7550000000000000E-002    -1.2046447558103034E-016
  -1.7499999999999998E-002    -7.7821402213102623E-017
  -1.7450000000000000E-002    -1.5711305583292603E-017
  -1.7399999999999999E-002     5.7954665792001295E-017
  -1.7350000000000001E-002     1.3237789609301922E-016
  -1.7299999999999999E-002     1.9527892867489638E-016
  -1.7250000000000001E-002     2.3467949042952706E-016
  -1.7200000000000000E-002     2.4083423503948844E-016
  -1.7149999999999999E-002     2.0804439632219332E-016
  -1.7100000000000001E-002     1.3607773027366615E-016
  -1.7049999999999999E-002     3.0941762173042146E-017
  -1.7000000000000001E-002    -9.5187070295298651E-017
  -1.6950000000000000E-002    -2.2498854368370433E-016
  -1.6899999999999998E-002    -3.3796680563511273E-016
  -1.6850000000000000E-002    -4.1321467321470464E-016
  -1.6799999999999999E-002    -4.3268326481642888E-016
  -1.6750000000000001E-002    -3.8453023695611937E-016
  -1.6700000000000000E-002    -2.6602976536255352E-016
  -1.6649999999999998E-002    -8.5494097446201448E-017
  -1.6600000000000000E-002     1.3728527236591650E-016
  -1.6549999999999999E-002     3.7242126137146586E-016
  -1.6500000000000001E-002     5.8323190625666831E-016
  -1.6449999999999999E-002     7.3124010831084015E-016
  -1.6400000000000001E-002     7.8231523663729159E-016
  -1.6350000000000000E-002     7.1309088489843786E-016
  -1.6299999999999999E-002     5.1659605466157441E-016
  -1.6250000000000001E-002     2.0598529850659803E-016
  -1.6199999999999999E-002    -1.8458980405545123E-016
  -1.6150000000000001E-002    -6.0257146307721759E-016
  -1.6100000000000000E-002    -9.8313289630022040E-016
  -1.6049999999999998E-002    -1.2583162025141417E-015
  -1.6000000000000000E-002    -1.3680205027405576E-015
  -1.5949999999999999E-002    -1.2711899364315917E-015
  -1.5900000000000001E-002    -9.5529581427998331E-016
  -1.5850000000000000E-002    -4.4224670854414481E-016
  -1.5799999999999998E-002     2.1074331547906196E-016
  -1.5750000000000000E-002     9.1611133375272686E-016
  -1.5699999999999999E-002     1.5666001464680739E-015
  -1.5650000000000001E-002     2.0504694442193571E-015
  -1.5599999999999999E-002     2.2692638037015431E-015
  -1.5550000000000001E-002     2.1554376613127574E-015
  -1.5500000000000000E-002     1.6869245886170734E-015
  -1.5449999999999998E-002     8.9591194248103898E-016
  -1.5400000000000000E-002    -1.3020744578880871E-016
  -1.5349999999999999E-002    -1.2566809761949960E-015
  -1.5300000000000001E-002    -2.3176627794784424E-015
  -1.5250000000000000E-002    -3.1391535041279173E-015
  -1.5199999999999998E-002    -3.5656288148117799E-015
  -1.5150000000000000E-002    -3.4865147755574689E-015
  -1.5099999999999999E-002    -2.8583344158165192E-015
  -1.5050000000000001E-002    -1.7186319154382112E-015
  -1.4999999999999999E-002    -1.8869651593318688E-016
  -1.4949999999999998E-002     1.5364594873076657E-015
  -1.4900000000000000E-002     3.2105963692291547E-015
  -1.4849999999999999E-002     4.5690056746109650E-015
  -1.4800000000000001E-002     5.3675412388485986E-015
  -1.4749999999999999E-002     5.4225731964708330E-015
  -1.4700000000000001E-002     4.6458214374357910E-015
  -1.4650000000000000E-002     3.0681815619862246E-015
  -1.4599999999999998E-002     8.4772271754064468E-016
  -1.4550000000000000E-002    -1.7410462402648191E-015
  -1.4499999999999999E-002    -4.3370181024518814E-015
  -1.4450000000000001E-002    -6.5388679722600156E-015
  -1.4400000000000000E-002    -7.9626182671555272E-015
  -1.4349999999999998E-002    -8.3027096212450951E-015
  -1.4300000000000000E-002    -7.3875459993565994E-015
  -1.4249999999999999E-002    -5.2203480302267921E-015
  -1.4200000000000001E-002    -1.9974595478356015E-015
  -1.4149999999999999E-002     1.9010810422575222E-015
  -1.4099999999999998E-002     5.9501217125337907E-015
  -1.4050000000000000E-002     9.5441994548679558E-015
  -1.3999999999999999E-002     1.2081285261080452E-014
  -1.3950000000000001E-002     1.3054517724786189E-014
  -1.3899999999999999E-002     1.2138780261632804E-014
  -1.3850000000000001E-002     9.2584381434257864E-015
  -1.3800000000000000E-002     4.6242170723220623E-015
  -1.3749999999999998E-002    -1.2691808020768875E-015
  -1.3700000000000000E-002    -7.6879801088062349E-015
  -1.3649999999999999E-002    -1.3743889617538013E-014
  -1.3600000000000001E-002    -1.8509303824413030E-014
  -1.3550000000000000E-002    -2.1148847627723301E-014
  -1.3499999999999998E-002    -2.1049473523246550E-014
  -1.3450000000000000E-002    -1.7929949326052831E-014
  -1.3399999999999999E-002    -1.1912195778530449E-014
  -1.3350000000000001E-002    -3.5409082759486097E-015
  -1.3299999999999999E-002     6.2557037911911504E-015
  -1.3249999999999998E-002     1.6263385199109163E-014
  -1.3200000000000000E-002     2.5128511425030190E-014
  -1.3149999999999998E-002     3.1537147082247332E-014
  -1.3100000000000001E-002     3.4403655746525065E-014
  -1.3049999999999999E-002     3.3042598154355091E-014
  -1.3000000000000001E-002     2.7297758584141738E-014
  -1.2950000000000000E-002     1.7605821371611700E-014
  -1.2899999999999998E-002     4.9795808862526829E-015
  -1.2850000000000000E-002    -9.0940052830363703E-015
  -1.2799999999999999E-002    -2.2833730437781615E-014