  -4.0000000000000001E-002     0.0000000000000000     
  -3.9949999999999999E-002     0.0000000000000000     
  -3.9899999999999998E-002     0.0000000000000000     
  -3.9850000000000003E-002     0.0000000000000000     
  -3.9800000000000002E-002     0.0000000000000000     
  -3.9750000000000001E-002     0.0000000000000000     
  -3.9699999999999999E-002     0.0000000000000000     
  -3.9649999999999998E-002     0.0000000000000000     
  -3.9600000000000003E-002     0.0000000000000000     
  -3.9550000000000002E-002     0.0000000000000000     
  -3.9500000000000000E-002     0.0000000000000000     
  -3.9449999999999999E-002     0.0000000000000000     
  -3.9399999999999998E-002     0.0000000000000000     
  -3.9350000000000003E-002     0.0000000000000000     
  -3.9300000000000002E-002     0.0000000000000000     
  -3.9250000000000000E-002     0.0000000000000000     
  -3.9199999999999999E-002    -3.4238524422048620E-038
  -3.9150000000000004E-002    -4.3603307194199857E-037
  -3.9100000000000003E-002    -2.6465463145995997E-036
  -3.9050000000000001E-002    -5.0369522886353129E-036
  -3.9000000000000000E-002     4.6941979245007080E-035
  -3.8949999999999999E-002     4.9366763123979728E-034
  -3.8900000000000004E-002     2.5425355878839211E-033
  -3.8850000000000003E-002     8.5562478671851851E-033
  -3.8800000000000001E-002     1.8124949170570292E-032
  -3.8750000000000000E-002     1.0117093225301287E-032
  -3.8699999999999998E-002    -9.7950330539100372E-032
  -3.8650000000000004E-002    -4.8448956555975004E-031
  -3.8600000000000002E-002    -1.3153567675041670E-030
  -3.8550000000000001E-002    -2.2168313302440870E-030
  -3.8500000000000000E-002    -1.1437135640188880E-030
  -3.8449999999999998E-002     6.7256342029299145E-030
  -3.8400000000000004E-002     2.7602654742759715E-029
  -3.8350000000000002E-002     6.0982400705369652E-029
  -3.8300000000000001E-002     8.2443647296374856E-029
  -3.8249999999999999E-002     2.5276452304656556E-029
  -3.8199999999999998E-002    -2.1212855679928206E-028
  -3.8150000000000003E-002    -6.9174856971309530E-028
  -3.8100000000000002E-002    -1.2728549447073510E-027
  -3.8050000000000000E-002    -1.4226055196217023E-027
  -3.7999999999999999E-002    -1.9611113205454252E-028
  -3.7949999999999998E-002     3.3334257133812434E-027
  -3.7900000000000003E-002     9.0471589301370348E-027
  -3.7850000000000002E-002     1.4477802391413281E-026
  -3.7800000000000000E-002     1.4228388304641572E-026
  -3.7749999999999999E-002     1.4915229379470441E-027
  -3.7699999999999997E-002    -2.7548883742348594E-026
  -3.7650000000000003E-002    -6.7557216001046141E-026
  -3.7600000000000001E-002    -9.9798425724769936E-026
  -3.7550000000000000E-002    -9.4850764256377967E-026
  -3.7499999999999999E-002    -2.5425263046854145E-026
  -3.7449999999999997E-002     1.1343157985935402E-025
  -3.7400000000000003E-002     2.8704328954314127E-025
  -3.7350000000000001E-002     4.2112791556804579E-025
  -3.7300000000000000E-002     4.2871176013345131E-025
  -3.7249999999999998E-002     2.5803521000333426E-025
  -3.7200000000000004E-002    -6.4692830274606808E-026
  -3.7150000000000002E-002    -4.3528287100174113E-025
  -3.7100000000000001E-002    -7.3855710550816452E-025
  -3.7050000000000000E-002    -9.6115527393336300E-025
  -3.6999999999999998E-002    -1.2660288320075785E-024
  -3.6950000000000004E-002    -1.9077199784102485E-024
  -3.6900000000000002E-002    -2.9168936862463493E-024
  -3.6850000000000001E-002    -3.6529118281591868E-024
  -3.6799999999999999E-002    -2.5639513102936643E-024
  -3.6749999999999998E-002     2.3652830767165263E-024
  -3.6700000000000003E-002     1.2193211300373980E-023
  -3.6650000000000002E-002     2.4996696495473517E-023
  -3.6600000000000001E-002     3.4504007299361932E-023
  -3.6549999999999999E-002     3.1138764363724502E-023
  -3.6499999999999998E-002     6.5285644779814005E-024
  -3.6450000000000003E-002    -3.9638293984383130E-023
  -3.6400000000000002E-002    -9.4263701046583566E-023
  -3.6350000000000000E-002    -1.3207537750062260E-022
  -3.6299999999999999E-002    -1.2610754969993400E-022
  -3.6249999999999998E-002    -6.3896557404878143E-023
  -3.6200000000000003E-002     4.0780048302293387E-023
  -3.6150000000000002E-002     1.5200096257194766E-022
  -3.6100000000000000E-002     2.3433625348778616E-022
  -3.6049999999999999E-002     2.8038488467442597E-022
  -3.6000000000000004E-002     3.1672130701228040E-022
  -3.5950000000000003E-002     3.6748232199627145E-022
  -3.5900000000000001E-002     3.8619392783711891E-022
  -3.5850000000000000E-002     2.1024776138527476E-022
  -3.5799999999999998E-002    -3.8575839342731125E-022
  -3.5750000000000004E-002    -1.4993063371023875E-021
  -3.5700000000000003E-002    -2.8382331328396170E-021
  -3.5650000000000001E-002    -3.5775834097283890E-021
  -3.5600000000000000E-002    -2.5677381788618961E-021
  -3.5549999999999998E-002     1.0037075875134077E-021
  -3.5500000000000004E-002     6.7021026729082133E-021
  -3.5450000000000002E-002     1.2238404364228981E-020
  -3.5400000000000001E-002     1.3838534647332018E-020
  -3.5349999999999999E-002     7.9356903600932650E-021
  -3.5299999999999998E-002    -6.2533377161625188E-021
  -3.5250000000000004E-002    -2.4604209608161957E-020
  -3.5200000000000002E-002    -3.8147257853051724E-020
  -3.5150000000000001E-002    -3.6398628583431190E-020
  -3.5099999999999999E-002    -1.3300092187558769E-020
  -3.5049999999999998E-002     2.6993676300645951E-020
  -3.5000000000000003E-002     6.8374379592800334E-020
  -3.4950000000000002E-002     8.7923843507565279E-020
  -3.4900000000000000E-002     6.7345541150429441E-020
  -3.4849999999999999E-002     5.6750613034912151E-021
  -3.4799999999999998E-002    -7.4478558577215080E-020
  -3.4750000000000003E-002    -1.3346044598940064E-019
  -3.4700000000000002E-002    -1.3395152297857640E-019
  -3.4650000000000000E-002    -6.4802799670692321E-020
  -3.4599999999999999E-002     4.4881492190673998E-020
  -3.4549999999999997E-002     1.3385207878180378E-019
  -3.4500000000000003E-002     1.4070277160181127E-019
  -3.4450000000000001E-002     4.5889490232801522E-020
  -3.4400000000000000E-002    -1.0149984665219773E-019
  -3.4349999999999999E-002    -1.9573238632579912E-019
  -3.4299999999999997E-002    -1.3045178935137356E-019
  -3.4250000000000003E-002     1.2395789720414034E-019
  -3.4200000000000001E-002     4.6667949448603482E-019
  -3.4150000000000000E-002     6.8146966007656475E-019
  -3.4099999999999998E-002     5.3580769881011438E-019
  -3.4049999999999997E-002    -6.9949296892943401E-020
  -3.4000000000000002E-002    -9.8151124960009840E-019
  -3.3950000000000001E-002    -1.7844572952982187E-018
  -3.3900000000000000E-002    -1.9565909268869359E-018
  -3.3849999999999998E-002    -1.1390539674205451E-018
  -3.3799999999999997E-002     5.9800851403701166E-019
  -3.3750000000000002E-002     2.6536444931249202E-018
  -3.3700000000000001E-002     4.0659142268747556E-018
  -3.3649999999999999E-002     3.9328955697134470E-018
  -3.3599999999999998E-002     1.9140159688584361E-018
  -3.3550000000000003E-002    -1.4492694603921590E-018
  -3.3500000000000002E-002    -4.8166528797341797E-018
  -3.3450000000000001E-002    -6.5843575713528927E-018
  -3.3399999999999999E-002    -5.6769944568927100E-018
  -3.3349999999999998E-002    -2.2108452124120263E-018
  -3.3300000000000003E-002     2.3697464744955386E-018
  -3.3250000000000002E-002     5.8704357099608670E-018
  -3.3200000000000000E-002     6.4602505455129106E-018
  -3.3149999999999999E-002     3.7923813619114305E-018
  -3.3099999999999997E-002    -5.2312431301563511E-019
  -3.3050000000000003E-002    -3.5300939885764490E-018
  -3.3000000000000002E-002    -2.5287747359636573E-018
  -3.2950000000000000E-002     3.0315822381678783E-018
  -3.2899999999999999E-002     1.0438262497952753E-017
  -3.2850000000000004E-002     1.4297528875136322E-017
  -3.2800000000000003E-002     9.0133605848006431E-018
  -3.2750000000000001E-002    -7.6787624457542604E-018
  -3.2700000000000000E-002    -3.1833916017299100E-017
  -3.2649999999999998E-002    -5.2958071050588712E-017
  -3.2600000000000004E-002    -5.7270950410901196E-017
  -3.2550000000000003E-002    -3.4000340092948027E-017
  -3.2500000000000001E-002     1.7669926188844212E-017
  -3.2450000000000000E-002     8.4439762615066940E-017
  -3.2399999999999998E-002     1.4053100273569616E-016
  -3.2350000000000004E-002     1.5603997949254365E-016
  -3.2300000000000002E-002     1.0981314855715928E-016
  -3.2250000000000001E-002     1.8563254037838439E-018
  -3.2199999999999999E-002    -1.4073065218097824E-016
  -3.2149999999999998E-002    -2.6863530043881928E-016
  -3.2100000000000004E-002    -3.2625701235057283E-016
  -3.2050000000000002E-002    -2.7383312513728683E-016
  -3.2000000000000001E-002    -1.0716070009735256E-016
  -3.1949999999999999E-002     1.3412682583326968E-016
  -3.1899999999999998E-002     3.7510417526053883E-016
  -3.1850000000000003E-002     5.2962631865676449E-016
  -3.1800000000000002E-002     5.3167234516718940E-016
  -3.1750000000000000E-002     3.6168213699839333E-016
  -3.1699999999999999E-002     5.6758211934059438E-017
  -3.1649999999999998E-002    -3.0009221899832661E-016
  -3.1600000000000003E-002    -6.0758165293409556E-016
  -3.1550000000000002E-002    -7.7912513443460898E-016
  -3.1500000000000000E-002    -7.6752505181457116E-016
  -3.1449999999999999E-002    -5.7222005640552102E-016
  -3.1399999999999997E-002    -2.2922110752927424E-016
  -3.1350000000000003E-002     2.0693923701138972E-016
  -3.1300000000000001E-002     6.7603669050816412E-016
  -3.1250000000000000E-002     1.1109819347411103E-015
  -3.1199999999999999E-002     1.4251612009979472E-015
  -3.1150000000000001E-002     1.5029901649113703E-015
  -3.1100000000000003E-002     1.2135906913859915E-015
  -3.1050000000000001E-002     4.5994705935530544E-016
  -3.1000000000000000E-002    -7.4396850505883602E-016
  -3.0949999999999998E-002    -2.1998408050225663E-015
  -3.0900000000000000E-002    -3.5025940189994515E-015
  -3.0850000000000002E-002    -4.1102377136204621E-015
  -3.0800000000000001E-002    -3.5156685265645510E-015
  -3.0750000000000000E-002    -1.4806237287383177E-015
  -3.0699999999999998E-002     1.7551511976493340E-015
  -3.0650000000000000E-002     5.3964486091689191E-015
  -3.0600000000000002E-002     8.2279967809202072E-015
  -3.0550000000000001E-002     8.9714747145134864E-015
  -3.0499999999999999E-002     6.7755715697921867E-015
  -3.0449999999999998E-002     1.6671944888130729E-015
  -3.0400000000000000E-002    -5.2353662841816534E-015
  -3.0350000000000002E-002    -1.1892354101167712E-014
  -3.0300000000000001E-002    -1.5911430192258605E-014
  -3.0249999999999999E-002    -1.5369007260768439E-014
  -3.0200000000000001E-002    -9.6062486179586107E-015
  -3.0150000000000000E-002     3.1577111407788530E-016
  -3.0100000000000002E-002     1.1730481554220981E-014
  -3.0050000000000000E-002     2.1085362475755402E-014
  -2.9999999999999999E-002     2.5069789339698041E-014
  -2.9950000000000001E-002     2.1774900538212349E-014
  -2.9899999999999999E-002     1.1462734896168565E-014
  -2.9850000000000002E-002    -3.3604254989699749E-015
  -2.9800000000000000E-002    -1.8626582259087533E-014
  -2.9749999999999999E-002    -2.9925076533254228E-014
  -2.9700000000000001E-002    -3.3839241833018551E-014
  -2.9650000000000003E-002    -2.8945619609559213E-014
  -2.9600000000000001E-002    -1.6164007163511058E-014
  -2.9550000000000000E-002     1.5945725970792075E-015
  -2.9499999999999998E-002     2.0276516874442480E-014
  -2.9450000000000000E-002     3.5682075905160742E-014
  -2.9400000000000003E-002     4.4290688212642552E-014
  -2.9350000000000001E-002     4.3768886208160638E-014
  -2.9300000000000000E-002     3.3223209846112320E-014
  -2.9249999999999998E-002     1.3378289045576332E-014
  -2.9200000000000000E-002    -1.3194858695546865E-014
  -2.9150000000000002E-002    -4.1880562695831845E-014
  -2.9100000000000001E-002    -6.6162675354340488E-014
  -2.9049999999999999E-002    -7.8509515291733123E-014
  -2.8999999999999998E-002    -7.2211759977191053E-014
  -2.8950000000000000E-002    -4.3932531726403279E-014
  -2.8900000000000002E-002     3.8202632349190539E-015
  -2.8850000000000001E-002     6.1451733245355599E-014
  -2.8799999999999999E-002     1.1332840554794441E-013
  -2.8749999999999998E-002     1.4152249516718583E-013
  -2.8700000000000000E-002     1.3158850546186257E-013
  -2.8650000000000002E-002     7.8622428976931115E-014
  -2.8600000000000000E-002    -8.7473382441116821E-015
  -2.8549999999999999E-002    -1.0851013626447746E-013
  -2.8500000000000001E-002    -1.9040865602931426E-013
  -2.8450000000000000E-002    -2.2506804165634958E-013
  -2.8400000000000002E-002    -1.9435807532337127E-013
  -2.8350000000000000E-002    -9.9291047276629279E-014
  -2.8299999999999999E-002     3.7828657003790783E-014
  -2.8250000000000001E-002     1.7850705884846221E-013
  -2.8200000000000003E-002     2.7933493234006390E-013
  -2.8150000000000001E-002     3.0592944654730917E-013
  -2.8100000000000000E-002     2.4476861206838073E-013
  -2.8049999999999999E-002     1.0862660365263508E-013
  -2.8000000000000001E-002    -6.6527402189816717E-014
  -2.7950000000000003E-002    -2.3225702234581365E-013
  -2.7900000000000001E-002    -3.4234669340120904E-013
  -2.7850000000000000E-002    -3.6641914637894758E-013
  -2.7799999999999998E-002    -2.9801818601555365E-013
  -2.7750000000000000E-002    -1.5493830105628164E-013
  -2.7700000000000002E-002     2.7478584764475740E-014
  -2.7650000000000001E-002     2.0696143462236293E-013
  -2.7600000000000000E-002     3.4485156808259872E-013
  -2.7549999999999998E-002     4.1345809027441320E-013
  -2.7500000000000000E-002     3.9917791360733329E-013
  -2.7450000000000002E-002     3.0242069269105017E-013
  -2.7400000000000001E-002     1.3641166593828764E-013
  -2.7349999999999999E-002    -7.3600093699919980E-014
  -2.7299999999999998E-002    -2.9091495766796135E-013
  -2.7250000000000000E-002    -4.6969605999171561E-013
  -2.7200000000000002E-002    -5.6151873876646067E-013
  -2.7150000000000001E-002    -5.2722719228553343E-013
  -2.7099999999999999E-002    -3.5211165184897520E-013
  -2.7049999999999998E-002    -5.9122637449995723E-014
  -2.7000000000000000E-002     2.8681695624952708E-013
  -2.6950000000000002E-002     5.8890307856780629E-013
  -2.6900000000000000E-002     7.4373784835761168E-013
  -2.6849999999999999E-002     6.7609384996427038E-013
  -2.6800000000000001E-002     3.7177798479016874E-013
  -2.6749999999999999E-002    -1.0476347806397315E-013
  -2.6700000000000002E-002    -6.1812600031820304E-013
  -2.6650000000000000E-002    -9.9676494251697513E-013
  -2.6599999999999999E-002    -1.0864740568679997E-012
  -2.6550000000000001E-002    -8.0558787706399333E-013
  -2.6500000000000003E-002    -1.8211007741204671E-013
  -2.6450000000000001E-002     6.4248069130878211E-013
  -2.6400000000000000E-002     1.4471305277212085E-012
  -2.6349999999999998E-002     1.9938016959019082E-012
  -2.6300000000000000E-002     2.0989085238886186E-012
  -2.6250000000000002E-002     1.6898406562396297E-012
  -2.6200000000000001E-002     8.2760542243160837E-013
  -2.6150000000000000E-002    -3.1153448960781145E-013
  -2.6099999999999998E-002    -1.4881607457807157E-012
  -2.6050000000000000E-002    -2.4668685485463972E-012
  -2.6000000000000002E-002    -3.0757552537057993E-012
  -2.5950000000000001E-002    -3.2400168338441415E-012
  -2.5899999999999999E-002    -2.9823577175330864E-012
  -2.5849999999999998E-002    -2.3955107679134760E-012
  -2.5800000000000000E-002    -1.6012650257020619E-012
  -2.5750000000000002E-002    -7.1266184290691027E-013
  -2.5700000000000001E-002     1.8869906689581838E-013
  -2.5649999999999999E-002     1.0570617700083836E-012
  -2.5599999999999998E-002     1.8737326575549348E-012
  -2.5550000000000000E-002     2.6341456463100042E-012
  -2.5500000000000002E-002     3.3379872460904872E-012
  -2.5450000000000000E-002     3.9837603775537333E-012
  -2.5399999999999999E-002     4.5632601925364913E-012
  -2.5349999999999998E-002     5.0494661263468763E-012
  -2.5300000000000000E-002     5.3752545287011921E-012
  -2.5250000000000002E-002     5.4087061022237168E-012
  -2.5200000000000000E-002     4.9392770592114371E-012
  -2.5149999999999999E-002     3.6924208064620939E-012
  -2.5100000000000001E-002     1.3848200133931880E-012
  -2.5049999999999999E-002    -2.1815046546606072E-012
  -2.5000000000000001E-002    -7.0057096113904017E-012
  -2.4950000000000000E-002    -1.2789025108239649E-011
  -2.4899999999999999E-002    -1.8887428428707469E-011
  -2.4850000000000001E-002    -2.4342854116005841E-011
  -2.4800000000000003E-002    -2.7997088528874684E-011
  -2.4750000000000001E-002    -2.8664952490082157E-011
  -2.4700000000000000E-002    -2.5321468369453452E-011
  -2.4649999999999998E-002    -1.7250143244623574E-011
  -2.4600000000000000E-002    -4.1102774245089329E-012
  -2.4550000000000002E-002     1.4092458025854057E-011
  -2.4500000000000001E-002     3.7115442888286114E-011
  -2.4450000000000000E-002     6.4625181175151660E-011
  -2.4399999999999998E-002     9.6325462627972304E-011
  -2.4350000000000000E-002     1.3202198583191061E-010
  -2.4299999999999999E-002     1.7160361515163710E-010
  -2.4250000000000001E-002     2.1495251614751339E-010
  -2.4199999999999999E-002     2.6182284321629765E-010
  -2.4150000000000001E-002     3.1173932356773904E-010
  -2.4100000000000000E-002     3.6395968972047594E-010
  -2.4049999999999998E-002     4.1752172803226520E-010
  -2.4000000000000000E-002     4.7136651604501168E-010
  -2.3949999999999999E-002     5.2450375297720909E-010
  -2.3900000000000001E-002     5.7617509585938496E-010
  -2.3850000000000000E-002     6.2597393879307135E-010
  -2.3800000000000002E-002     6.7389879714701100E-010
  -2.3750000000000000E-002     7.2033720736688662E-010
  -2.3699999999999999E-002     7.6599459567219515E-010
  -2.3650000000000001E-002     8.1179063883290616E-010
  -2.3599999999999999E-002     8.5874092779652907E-010
  -2.3550000000000001E-002     9.0783651021565468E-010
  -2.3500000000000000E-002     9.5992458142786786E-010
  -2.3449999999999999E-002     1.0155943797516083E-009
  -2.3400000000000001E-002     1.0750789297233945E-009
  -2.3349999999999999E-002     1.1381913062842480E-009
  -2.3300000000000001E-002     1.2043193729361869E-009
  -2.3250000000000000E-002     1.2725001042721806E-009
  -2.3199999999999998E-002     1.3415744392175730E-009
  -2.3150000000000000E-002     1.4104002358334998E-009
  -2.3099999999999999E-002     1.4780762991161348E-009
  -2.3050000000000001E-002     1.5441174519574483E-009
  -2.3000000000000000E-002     1.6085307430770391E-009
  -2.2950000000000002E-002     1.6717672459391275E-009
  -2.2900000000000000E-002     1.7345630380533150E-009
  -2.2849999999999999E-002     1.7977226413955778E-009
  -2.2800000000000001E-002     1.8619162767901220E-009
  -2.2749999999999999E-002     1.9275607208663495E-009
  -2.2700000000000001E-002     1.9948211131714044E-009
  -2.2650000000000000E-002     2.0637270228176276E-009
  -2.2599999999999999E-002     2.1343530190445716E-009
  -2.2550000000000001E-002     2.2069854366458033E-009
  -2.2499999999999999E-002     2.2822022612003573E-009
  -2.2450000000000001E-002     2.3608198057732567E-009
  -2.2400000000000000E-002     2.4437152960815103E-009
  -2.2349999999999998E-002     2.5315744581698329E-009
  -2.2300000000000000E-002     2.6246473777157448E-009
  -2.2249999999999999E-002     2.7225984601115609E-009
  -2.2200000000000001E-002     2.8245013448865559E-009
  -2.2150000000000000E-002     2.9289904019133510E-009
  -2.2100000000000002E-002     3.0345293869249522E-009
  -2.2050000000000000E-002     3.1397261154767237E-009
  -2.1999999999999999E-002     3.2436136137274660E-009
  -2.1950000000000001E-002     3.3458393739605271E-009
  -2.1899999999999999E-002     3.4467316138528448E-009
  -2.1850000000000001E-002     3.5472440498401601E-009
  -2.1800000000000000E-002     3.6488116450854144E-009
  -2.1749999999999999E-002     3.7531510096861484E-009
  -2.1700000000000001E-002     3.8620410230015155E-009
  -2.1649999999999999E-002     3.9771072365377762E-009
  -2.1600000000000001E-002     4.0996292760016057E-009
  -2.1550000000000000E-002     4.2303849241551834E-009
  -2.1499999999999998E-002     4.3695515220941676E-009
  -2.1450000000000000E-002     4.5166823926586096E-009
  -2.1399999999999999E-002     4.6707718006264133E-009
  -2.1350000000000001E-002     4.8304132028887863E-009
  -2.1299999999999999E-002     4.9940251957704598E-009
  -2.1250000000000002E-002     5.1601051892390833E-009
  -2.1200000000000000E-002     5.3274595064092712E-009
  -2.1149999999999999E-002     5.4953585692380587E-009
  -2.1100000000000001E-002     5.6635882332382558E-009
  -2.1049999999999999E-002     5.8323987372455659E-009
  -2.1000000000000001E-002     6.0023843810127207E-009
  -2.0950000000000000E-002     6.1743329667721215E-009
  -2.0899999999999998E-002     6.3491080443467317E-009
  -2.0850000000000000E-002     6.5275889449533590E-009
  -2.0799999999999999E-002     6.7106839835818726E-009
  -2.0750000000000001E-002     6.8993896508880648E-009
  -2.0700000000000000E-002     7.0948536199719761E-009
  -2.0649999999999998E-002     7.2983852865403510E-009
  -2.0600000000000000E-002     7.5113839999678527E-009
  -2.0549999999999999E-002     7.7351644972662117E-009
  -2.0500000000000001E-002     7.9707099837551646E-009
  -2.0449999999999999E-002     8.2184118810454691E-009
  -2.0400000000000001E-002     8.4778791192181231E-009
  -2.0350000000000000E-002     8.7478737251298804E-009
  -2.0299999999999999E-002     9.0264247145406893E-009
  -2.0250000000000001E-002     9.3111184469791616E-009
  -2.0199999999999999E-002     9.5995122699429052E-009
  -2.0150000000000001E-002     9.8895752454626883E-009
  -2.0100000000000000E-002     1.0180065481033994E-008
  -2.0049999999999998E-002     1.0470756920031044E-008
  -2.0000000000000000E-002     1.0762473896033535E-008
  -1.9949999999999999E-002     1.1056948275518299E-008
  -1.9900000000000001E-002     1.1356543500613773E-008
  -1.9850000000000000E-002     1.1663917670830011E-008
  -1.9799999999999998E-002     1.1981706567781279E-008
  -1.9750000000000000E-002     1.2312262327507343E-008
  -1.9699999999999999E-002     1.2657472177812813E-008
  -1.9650000000000001E-002     1.3018648071763827E-008
  -1.9599999999999999E-002     1.3396467071195729E-008
  -1.9550000000000001E-002     1.3790952731194725E-008
  -1.9500000000000000E-002     1.4201504828405705E-008
  -1.9449999999999999E-002     1.4626976837510393E-008
  -1.9400000000000001E-002     1.5065807078771773E-008
  -1.9349999999999999E-002     1.5516217889175514E-008
  -1.9300000000000001E-002     1.5976431036943301E-008
  -1.9250000000000000E-002     1.6444896111202812E-008
  -1.9199999999999998E-002     1.6920474192320287E-008
  -1.9150000000000000E-002     1.7402558070010117E-008
  -1.9099999999999999E-002     1.7891132985838235E-008
  -1.9050000000000001E-002     1.8386763397552828E-008
  -1.9000000000000000E-002     1.8890551116184260E-008
  -1.8949999999999998E-002     1.9404081223063568E-008
  -1.8900000000000000E-002     1.9929329733765089E-008
  -1.8849999999999999E-002     2.0468563228901667E-008
  -1.8800000000000001E-002     2.1024194756635373E-008
  -1.8749999999999999E-002     2.1598587477012961E-008
  -1.8700000000000001E-002     2.2193832727113404E-008
  -1.8650000000000000E-002     2.2811508175815646E-008
  -1.8599999999999998E-002     2.3452466919386383E-008
  -1.8550000000000001E-002     2.4116715019606379E-008
  -1.8499999999999999E-002     2.4803393548802000E-008
  -1.8450000000000001E-002     2.5510918339622760E-008
  -1.8400000000000000E-002     2.6237241520078467E-008
  -1.8349999999999998E-002     2.6980197874766626E-008
  -1.8300000000000000E-002     2.7737870630367913E-008
  -1.8249999999999999E-002     2.8508924763678311E-008
  -1.8200000000000001E-002     2.9292826094708051E-008
  -1.8149999999999999E-002     3.0089919384743657E-008
  -1.8100000000000002E-002     3.0901373728334564E-008
  -1.8050000000000000E-002     3.1729020626434478E-008
  -1.7999999999999999E-002     3.2575119848824416E-008
  -1.7950000000000001E-002     3.3442173677295322E-008
  -1.7899999999999999E-002     3.4332703209912766E-008
  -1.7850000000000001E-002     3.5249127652517030E-008
  -1.7800000000000000E-002     3.6193614733317202E-008
  -1.7749999999999998E-002     3.7167992878511302E-008
  -1.7700000000000000E-002     3.8173612889560530E-008
  -1.7649999999999999E-002     3.9211217566494033E-008
  -1.7600000000000001E-002     4.0280880520994193E-008
  -1.7550000000000000E-002     4.1381980888475675E-008
  -1.7499999999999998E-002     4.2513282738529425E-008
  -1.7450000000000000E-002     4.3673141261448530E-008
  -1.7399999999999999E-002     4.4859758554921077E-008
  -1.7350000000000001E-002     4.6071474275437500E-008
  -1.7299999999999999E-002     4.7307053084391370E-008
  -1.7250000000000001E-002     4.8565884419238523E-008
  -1.7200000000000000E-002     4.9848148556414558E-008
  -1.7149999999999999E-002     5.1154859912121396E-008
  -1.7100000000000001E-002     5.2487884104652154E-008
  -1.7049999999999999E-002     5.3849797479450507E-008
  -1.7000000000000001E-002     5.5243688880288038E-008
  -1.6950000000000000E-002     5.6672871758216172E-008
  -1.6899999999999998E-002     5.8140515708389832E-008
  -1.6850000000000000E-002     5.9649310307675156E-008
  -1.6799999999999999E-002     6.1201173234659029E-008
  -1.6750000000000001E-002     6.2797138668681399E-008
  -1.6700000000000000E-002     6.4437398574305938E-008
  -1.6649999999999998E-002     6.6121561523100480E-008
  -1.6600000000000000E-002     6.7848932826494601E-008
  -1.6549999999999999E-002     6.9618772243514643E-008
  -1.6500000000000001E-002     7.1430564242905577E-008
  -1.6449999999999999E-002     7.3284027669996022E-008
  -1.6400000000000001E-002     7.5179133585478405E-008
  -1.6350000000000000E-002     7.7115997097271175E-008
  -1.6299999999999999E-002     7.9094869764472126E-008
  -1.6250000000000001E-002     8.1116194797713275E-008
  -1.6199999999999999E-002     8.3180762146561786E-008
  -1.6150000000000001E-002     8.5289901889188404E-008
  -1.6100000000000000E-002     8.7445548687756080E-008
  -1.6049999999999998E-002     8.9650260677078436E-008
  -1.6000000000000000E-002     9.1906974171453566E-008
  -1.5949999999999999E-002     9.4218717051656474E-008
  -1.5900000000000001E-002     9.6588264487250352E-008
  -1.5850000000000000E-002     9.9017932471060339E-008
  -1.5799999999999998E-002     1.0150941791669311E-007
  -1.5750000000000000E-002     1.0406384685514389E-007
  -1.5699999999999999E-002     1.0668186068412387E-007
  -1.5650000000000001E-002     1.0936370682672355E-007
  -1.5599999999999999E-002     1.1210927357364451E-007
  -1.5550000000000001E-002     1.1491816279142140E-007
  -1.5500000000000000E-002     1.1778969199439279E-007
  -1.5449999999999998E-002     1.2072301995112009E-007
  -1.5400000000000000E-002     1.2371737550041648E-007
  -1.5349999999999999E-002     1.2677236074669004E-007
  -1.5300000000000001E-002     1.2988837331104086E-007
  -1.5250000000000000E-002     1.3306677944093796E-007
  -1.5199999999999998E-002     1.3631001361770013E-007
  -1.5150000000000000E-002     1.3962134508185137E-007
  -1.5099999999999999E-002     1.4300445842751708E-007
  -1.5050000000000001E-002     1.4646296935568547E-007
  -1.4999999999999999E-002     1.4999995961764764E-007
  -1.4949999999999998E-002     1.5361779805951807E-007
  -1.4900000000000000E-002     1.5731822610710605E-007
  -1.4849999999999999E-002     1.6110263486139710E-007
  -1.4800000000000001E-002     1.6497253559857840E-007
  -1.4749999999999999E-002     1.6892977986050798E-007
  -1.4700000000000001E-002     1.7297672934641461E-007
  -1.4650000000000000E-002     1.7711593439985022E-007
  -1.4599999999999998E-002     1.8134979984157073E-007
  -1.4550000000000000E-002     1.8568022666183357E-007
  -1.4499999999999999E-002     1.9010840315412789E-007
  -1.4450000000000001E-002     1.9463494071246124E-007
  -1.4400000000000000E-002     1.9926017753849157E-007
  -1.4349999999999998E-002     2.0398463699778548E-007
  -1.4300000000000000E-002     2.0880944400650645E-007
  -1.4249999999999999E-002     2.1373643659663952E-007
  -1.4200000000000001E-002     2.1876795425743611E-007
  -1.4149999999999999E-002     2.2390657632230093E-007
  -1.4099999999999998E-002     2.2915472579930841E-007
  -1.4050000000000000E-002     2.3451445641011807E-007
  -1.3999999999999999E-002     2.3998750879862441E-007
  -1.3950000000000001E-002     2.4557546357011168E-007
  -1.3899999999999999E-002     2.5128001646707384E-007
  -1.3850000000000001E-002     2.5710308571099534E-007
  -1.3800000000000000E-002     2.6304673760449722E-007
  -1.3749999999999998E-002     2.6911277571352929E-007
  -1.3700000000000000E-002     2.7530261148284571E-007
  -1.3649999999999999E-002     2.8161695533209300E-007
  -1.3600000000000001E-002     2.8805598847705283E-007
  -1.3550000000000000E-002     2.9461971715609711E-007
  -1.3499999999999998E-002     3.0130849087304921E-007
  -1.3450000000000000E-002     3.0812354140868325E-007
  -1.3399999999999999E-002     3.1506716240855772E-007
  -1.3350000000000001E-002     3.2214255488617905E-007
  -1.3299999999999999E-002     3.2935353606316545E-007
  -1.3249999999999998E-002     3.3670397284812488E-007
  -1.3200000000000000E-002     3.4419761776677569E-007
  -1.3149999999999998E-002     3.5183808083033139E-007
  -1.3100000000000001E-002     3.5962911413660107E-007
  -1.3049999999999999E-002     3.6757506458480346E-007
  -1.3000000000000001E-002     3.7568124249034419E-007
  -1.2950000000000000E-002     3.8395366253510744E-007
  -1.2899999999999998E-002     3.9239879867940187E-007
  -1.2850000000000000E-002     4.0102278825820352E-007
  -1.2799999999999999E-002     4.0983093139965487E-007