  -4.0000000000000001E-002     0.0000000000000000     
  -3.9949999999999999E-002     0.0000000000000000     
  -3.9899999999999998E-002     0.0000000000000000     
  -3.9850000000000003E-002     0.0000000000000000     
  -3.9800000000000002E-002     0.0000000000000000     
  -3.9750000000000001E-002     0.0000000000000000     
  -3.9699999999999999E-002     0.0000000000000000     
  -3.9649999999999998E-002     0.0000000000000000     
  -3.9600000000000003E-002     0.0000000000000000     
  -3.9550000000000002E-002     0.0000000000000000     
  -3.9500000000000000E-002     0.0000000000000000     
  -3.9449999999999999E-002     0.0000000000000000     
  -3.9399999999999998E-002     0.0000000000000000     
  -3.9350000000000003E-002     0.0000000000000000     
  -3.9300000000000002E-002     0.0000000000000000     
  -3.9250000000000000E-002     0.0000000000000000     
  -3.9199999999999999E-002     0.0000000000000000     
  -3.9150000000000004E-002     0.0000000000000000     
  -3.9100000000000003E-002     0.0000000000000000     
  -3.9050000000000001E-002     0.0000000000000000     
  -3.9000000000000000E-002     0.0000000000000000     
  -3.8949999999999999E-002     0.0000000000000000     
  -3.8900000000000004E-002     0.0000000000000000     
  -3.8850000000000003E-002     0.0000000000000000     
  -3.8800000000000001E-002     1.8502969325070979E-039
  -3.8750000000000000E-002     0.0000000000000000     
  -3.8699999999999998E-002    -4.5977150192543345E-038
  -3.8650000000000004E-002    -2.8496024396900137E-037
  -3.8600000000000002E-002    -9.4182999633385315E-037
  -3.8550000000000001E-002    -1.8378706148215890E-036
  -3.8500000000000000E-002    -5.0860498915570903E-037
  -3.8449999999999998E-002     1.2174828700036356E-035
  -3.8400000000000004E-002     5.5258792717099808E-035
  -3.8350000000000002E-002     1.4404025387911570E-034
  -3.8300000000000001E-002     2.2606020170047136E-034
  -3.8249999999999999E-002     4.0523823795167676E-035
  -3.8199999999999998E-002    -1.0253794972041759E-033
  -3.8150000000000003E-002    -3.7555984366493347E-033
  -3.8100000000000002E-002    -7.9637516766183775E-033
  -3.8050000000000000E-002    -9.8805580661755171E-033
  -3.7999999999999999E-002     9.9680250434730039E-034
  -3.7949999999999998E-002     4.1336828092231948E-032
  -3.7900000000000003E-002     1.2168271381641428E-031
  -3.7850000000000002E-002     2.1546496510843710E-031
  -3.7800000000000000E-002     2.1614377948676955E-031
  -3.7749999999999999E-002    -8.0244685575040745E-032
  -3.7699999999999997E-002    -8.9553083757392593E-031
  -3.7650000000000003E-002    -2.2219664169833006E-030
  -3.7600000000000001E-002    -3.4265751982554549E-030
  -3.7550000000000000E-002    -2.9335024668320984E-030
  -3.7499999999999999E-002     1.5392458905403283E-030
  -3.7449999999999997E-002     1.1635892144389689E-029
  -3.7400000000000003E-002     2.5766165768764275E-029
  -3.7350000000000001E-002     3.6192971917840081E-029
  -3.7300000000000000E-002     2.8244476032056522E-029
  -3.7249999999999998E-002    -1.4954783792223010E-029
  -3.7200000000000004E-002    -9.9997920528985849E-029
  -3.7150000000000002E-002    -2.0534195394977275E-028
  -3.7100000000000001E-002    -2.6815649598057745E-028
  -3.7050000000000000E-002    -1.9286800572665699E-028
  -3.6999999999999998E-002     1.0294377062971497E-028
  -3.6950000000000004E-002     6.0724310778978664E-028
  -3.6900000000000002E-002     1.1335518831174102E-027
  -3.6850000000000001E-002     1.3154574576533272E-027
  -3.6799999999999999E-002     7.5228629377026657E-028
  -3.6749999999999998E-002    -6.8557986026213398E-028
  -3.6700000000000003E-002    -2.5289578665836620E-027
  -3.6650000000000002E-002    -3.6504790110544952E-027
  -3.6600000000000001E-002    -2.7750137876192846E-027
  -3.6549999999999999E-002     4.2541277147271167E-028
  -3.6499999999999998E-002     4.2172517102197412E-027
  -3.6450000000000003E-002     4.7917105092559851E-027
  -3.6400000000000002E-002    -1.5966063113643553E-027
  -3.6350000000000000E-002    -1.4494460293406545E-026
  -3.6299999999999999E-002    -2.5437642676390598E-026
  -3.6249999999999998E-002    -1.8579806197860103E-026
  -3.6200000000000003E-002     2.0791811539308435E-026
  -3.6150000000000002E-002     9.0986395668280605E-026
  -3.6100000000000000E-002     1.6028548360409965E-025
  -3.6049999999999999E-002     1.6854532787801998E-025
  -3.6000000000000004E-002     5.4273797568810840E-026
  -3.5950000000000003E-002    -1.9752461103411644E-025
  -3.5900000000000001E-002    -5.1245093042395482E-025
  -3.5850000000000000E-002    -7.2652432346294180E-025
  -3.5799999999999998E-002    -6.5289926295141373E-025
  -3.5750000000000004E-002    -1.9691686281533342E-025
  -3.5700000000000003E-002     5.4955642820978206E-025
  -3.5650000000000001E-002     1.3194408176711733E-024
  -3.5600000000000000E-002     1.8178230761764134E-024
  -3.5549999999999998E-002     1.9207694569719572E-024
  -3.5500000000000004E-002     1.7417579015316181E-024
  -3.5450000000000002E-002     1.4113164067566403E-024
  -3.5400000000000001E-002     6.3545087803609795E-025
  -3.5349999999999999E-002    -1.5777469747118276E-024
  -3.5299999999999998E-002    -6.4645104281245952E-024
  -3.5250000000000004E-002    -1.4053044322668795E-023
  -3.5200000000000002E-002    -2.1269847043317278E-023
  -3.5150000000000001E-002    -2.1160247268266068E-023
  -3.5099999999999999E-002    -5.1254891664409195E-024
  -3.5049999999999998E-002     3.1065261307361528E-023
  -3.5000000000000003E-002     7.9482674498572130E-023
  -3.4950000000000002E-002     1.1561251826037632E-022
  -3.4900000000000000E-002     1.0360032379140636E-022
  -3.4849999999999999E-002     1.4272629022969292E-023
  -3.4799999999999998E-002    -1.4882666415758501E-022
  -3.4750000000000003E-002    -3.2945761821145250E-022
  -3.4700000000000002E-002    -4.2323823153963137E-022
  -3.4650000000000000E-002    -3.1840612580159826E-022
  -3.4599999999999999E-002     3.4852811859227242E-023
  -3.4549999999999997E-002     5.5855861529249802E-022
  -3.4500000000000003E-002     1.0309646812175991E-021
  -3.4450000000000001E-002     1.1556251864031877E-021
  -3.4400000000000000E-002     7.0943776670187262E-022
  -3.4349999999999999E-002    -2.9237510314111210E-022
  -3.4299999999999997E-002    -1.5141170803125212E-021
  -3.4250000000000003E-002    -2.3850139450281971E-021
  -3.4200000000000001E-002    -2.3574640223400170E-021
  -3.4150000000000000E-002    -1.2297251241611476E-021
  -3.4099999999999998E-002     6.5625138480709088E-022
  -3.4049999999999997E-002     2.5084839511549365E-021
  -3.4000000000000002E-002     3.4873930272155221E-021
  -3.3950000000000001E-002     3.2191401462428120E-021
  -3.3900000000000000E-002     2.0757593896385402E-021
  -3.3849999999999998E-002     9.3818795469330386E-022
  -3.3799999999999997E-002     4.6289253763727215E-022
  -3.3750000000000002E-002     2.8840752424536647E-022
  -3.3700000000000001E-002    -1.1323751325834262E-021
  -3.3649999999999999E-002    -5.5779755811407526E-021
  -3.3599999999999998E-002    -1.3173958594022976E-020
  -3.3550000000000003E-002    -2.0660381218387868E-020
  -3.3500000000000002E-002    -2.1394642948507070E-020
  -3.3450000000000001E-002    -8.2079029076517988E-021
  -3.3399999999999999E-002     2.1333304695763275E-020
  -3.3349999999999998E-002     5.9766333551351175E-020
  -3.3300000000000003E-002     8.8477761740285044E-020
  -3.3250000000000002E-002     8.3416228713236873E-020
  -3.3200000000000000E-002     2.7608327883302368E-020
  -3.3149999999999999E-002    -7.4323128395011672E-020
  -3.3099999999999997E-002    -1.8800439640084727E-019
  -3.3050000000000003E-002    -2.5558139446228567E-019
  -3.3000000000000002E-002    -2.1890314195975215E-019
  -3.2950000000000000E-002    -5.2718300463801755E-020
  -3.2899999999999999E-002     2.0779329194326208E-019
  -3.2850000000000004E-002     4.6334715530479115E-019
  -3.2800000000000003E-002     5.8143376422439744E-019
  -3.2750000000000001E-002     4.5606186322107626E-019
  -3.2700000000000000E-002     7.2288814407869261E-020
  -3.2649999999999998E-002    -4.5867539189798048E-019
  -3.2600000000000004E-002    -9.2148752212805492E-019
  -3.2550000000000003E-002    -1.0793648859467002E-018
  -3.2500000000000001E-002    -7.8837658938338911E-019
  -3.2450000000000000E-002    -8.9707889191145269E-020
  -3.2399999999999998E-002     7.7408349203496422E-019
  -3.2350000000000004E-002     1.4429706222610917E-018
  -3.2300000000000002E-002     1.5977870579566927E-018
  -3.2250000000000001E-002     1.1214908798419221E-018
  -3.2199999999999999E-002     1.7742952876651718E-019
  -3.2149999999999998E-002    -8.4959831815863009E-019
  -3.2100000000000004E-002    -1.5349574221702669E-018
  -3.2050000000000002E-002    -1.6311880447521234E-018
  -3.2000000000000001E-002    -1.1988694526053740E-018
  -3.1949999999999999E-002    -5.6239355895061507E-019
  -3.1899999999999998E-002    -9.5302833608349404E-020
  -3.1850000000000003E-002     5.0247866952572852E-020
  -3.1800000000000002E-002     9.4196372808117701E-020
  -3.1750000000000000E-002     5.2188262951396350E-019
  -3.1699999999999999E-002     1.7210557784378429E-018
  -3.1649999999999998E-002     3.5413204152601377E-018
  -3.1600000000000003E-002     5.0688506643882553E-018
  -3.1550000000000002E-002     4.8677906976235855E-018
  -3.1500000000000000E-002     1.7213565260358438E-018
  -3.1449999999999999E-002    -4.4087999721899360E-018
  -3.1399999999999997E-002    -1.1732587560240831E-017
  -3.1350000000000003E-002    -1.6824583206873466E-017
  -3.1300000000000001E-002    -1.5879564448913115E-017
  -3.1250000000000000E-002    -6.6999608990961086E-018
  -3.1199999999999999E-002     9.4536900910566607E-018
  -3.1150000000000001E-002     2.7232112637399838E-017
  -3.1100000000000003E-002     3.8541668121122627E-017
  -3.1050000000000001E-002     3.5774889384501060E-017
  -3.1000000000000000E-002     1.5797493288371301E-017
  -3.0949999999999998E-002    -1.7162621025254601E-017
  -3.0900000000000000E-002    -5.1513456394483047E-017
  -3.0850000000000002E-002    -7.1949557400728655E-017
  -3.0800000000000001E-002    -6.5842803275796125E-017
  -3.0750000000000000E-002    -2.9851719691911352E-017
  -3.0699999999999998E-002     2.6459109745732926E-017
  -3.0650000000000000E-002     8.2402807948666173E-017
  -3.0600000000000002E-002     1.1358618756348349E-016
  -3.0550000000000001E-002     1.0244760263799234E-016
  -3.0499999999999999E-002     4.7400798226766898E-017
  -3.0449999999999998E-002    -3.4042027536995326E-017
  -3.0400000000000000E-002    -1.1061085683517375E-016
  -3.0350000000000002E-002    -1.4975646163179893E-016
  -3.0300000000000001E-002    -1.3223737406559666E-016
  -3.0249999999999999E-002    -6.2047282709678959E-017
  -3.0200000000000001E-002     3.3664261192173486E-017
  -3.0150000000000000E-002     1.1569461771438374E-016
  -3.0100000000000002E-002     1.5049891158461917E-016
  -3.0050000000000000E-002     1.2622444875034305E-016
  -2.9999999999999999E-002     5.8732338954650591E-017
  -2.9950000000000001E-002    -1.6390349185006295E-017
  -2.9899999999999999E-002    -6.2776608093242753E-017
  -2.9850000000000002E-002    -6.3774572724604885E-017
  -2.9800000000000000E-002    -3.2997729079055043E-017
  -2.9749999999999999E-002    -7.4493459452229208E-018
  -2.9700000000000001E-002    -2.4646756338139043E-017
  -2.9650000000000003E-002    -9.4849689509096010E-017
  -2.9600000000000001E-002    -1.8463600132796816E-016
  -2.9550000000000000E-002    -2.2488185540528427E-016
  -2.9499999999999998E-002    -1.4478298294221946E-016
  -2.9450000000000000E-002     8.1423539617225907E-017
  -2.9400000000000003E-002     3.9927772470063603E-016
  -2.9350000000000001E-002     6.7454657598231259E-016
  -2.9300000000000000E-002     7.3975635010079264E-016
  -2.9249999999999998E-002     4.7450579381403506E-016
  -2.9200000000000000E-002    -1.1439485233278139E-016
  -2.9150000000000002E-002    -8.5562610361533096E-016
  -2.9100000000000001E-002    -1.4498410664901785E-015
  -2.9049999999999999E-002    -1.5803303148202976E-015
  -2.8999999999999998E-002    -1.0606734675670375E-015
  -2.8950000000000000E-002     4.4767010116683258E-017
  -2.8900000000000002E-002     1.3921280282860184E-015
  -2.8850000000000001E-002     2.4542907513423440E-015
  -2.8799999999999999E-002     2.7215049526538181E-015
  -2.8749999999999998E-002     1.9320945591625419E-015
  -2.8700000000000000E-002     2.3155187029153404E-016
  -2.8650000000000002E-002    -1.8250277576394288E-015
  -2.8600000000000000E-002    -3.4525031955075825E-015
  -2.8549999999999999E-002    -3.9419118045794510E-015
  -2.8500000000000001E-002    -2.9719969041207876E-015
  -2.8450000000000000E-002    -7.8674923829913676E-016
  -2.8400000000000002E-002     1.8552834236498431E-015
  -2.8350000000000000E-002     3.9597708494493600E-015
  -2.8299999999999999E-002     4.6986908793841683E-015
  -2.8250000000000001E-002     3.7648616856044669E-015
  -2.8200000000000003E-002     1.5160440768586535E-015
  -2.8150000000000001E-002    -1.1684759319249732E-015
  -2.8100000000000000E-002    -3.2662921591432230E-015
  -2.8049999999999999E-002    -4.0581449446541752E-015
  -2.8000000000000001E-002    -3.4328266060840803E-015
  -2.7950000000000003E-002    -1.8992839901756932E-015
  -2.7900000000000001E-002    -2.9224197827618256E-016
  -2.7850000000000000E-002     6.8666085183627713E-016
  -2.7799999999999998E-002     8.5454330783625716E-016
  -2.7750000000000000E-002     6.4206255694013985E-016
  -2.7700000000000002E-002     8.1762010439713518E-016
  -2.7650000000000001E-002     1.9587020320141864E-015
  -2.7600000000000000E-002     3.9478139131883224E-015
  -2.7549999999999998E-002     5.8019147715547300E-015
  -2.7500000000000000E-002     6.0114945589572396E-015
  -2.7450000000000002E-002     3.3130426529348405E-015
  -2.7400000000000001E-002    -2.4390421513387765E-015
  -2.7349999999999999E-002    -9.7632689388010963E-015
  -2.7299999999999998E-002    -1.5775258984954323E-014
  -2.7250000000000000E-002    -1.7213229199841429E-014
  -2.7200000000000002E-002    -1.1935488985991568E-014
  -2.7150000000000001E-002    -2.5296611520098811E-016
  -2.7099999999999999E-002     1.4589311933682810E-014
  -2.7049999999999998E-002     2.7190314411467317E-014
  -2.7000000000000000E-002     3.1916044786317495E-014
  -2.6950000000000002E-002     2.5296628570452708E-014
  -2.6900000000000000E-002     7.8964956765458112E-015
  -2.6849999999999999E-002    -1.5258842866547927E-014
  -2.6800000000000001E-002    -3.6099014280026114E-014
  -2.6749999999999999E-002    -4.6400924707854578E-014
  -2.6700000000000002E-002    -4.1093729182731395E-014
  -2.6650000000000000E-002    -2.0613992450235534E-014
  -2.6599999999999999E-002     8.7772442328650172E-015
  -2.6550000000000001E-002     3.7022207125210246E-014
  -2.6500000000000003E-002     5.3962005560618041E-014
  -2.6450000000000001E-002     5.3261789199803641E-014
  -2.6400000000000000E-002     3.4945413143165182E-014
  -2.6349999999999998E-002     5.4387045394052712E-015
  -2.6300000000000000E-002    -2.4950068035991650E-014
  -2.6250000000000002E-002    -4.6080098790189561E-014
  -2.6200000000000001E-002    -5.1843634747514495E-014
  -2.6150000000000000E-002    -4.2201208764008779E-014
  -2.6099999999999998E-002    -2.2558479398663957E-014
  -2.6050000000000000E-002    -8.6977771196964460E-016
  -2.6000000000000002E-002     1.6093963081142874E-014
  -2.5950000000000001E-002     2.5492481645845751E-014
  -2.5899999999999999E-002     2.8856834842199355E-014
  -2.5849999999999998E-002     3.0075164211714410E-014
  -2.5800000000000000E-002     3.2071464091002916E-014
  -2.5750000000000002E-002     3.4094311841917553E-014
  -2.5700000000000001E-002     3.1338889410070459E-014
  -2.5649999999999999E-002     1.7484761144592839E-014
  -2.5599999999999998E-002    -1.0858673086313345E-014
  -2.5550000000000000E-002    -5.0067604202922449E-014
  -2.5500000000000002E-002    -8.8282365616333416E-014
  -2.5450000000000000E-002    -1.0849521600878455E-013
  -2.5399999999999999E-002    -9.5402857722522637E-014
  -2.5349999999999998E-002    -4.3420299204338384E-014
  -2.5300000000000000E-002     3.7860087576369664E-014
  -2.5250000000000002E-002     1.2396142508538719E-013
  -2.5200000000000000E-002     1.8262339880123695E-013
  -2.5149999999999999E-002     1.8579171785825577E-013
  -2.5100000000000001E-002     1.2203851790420495E-013
  -2.5049999999999999E-002     4.0861496790023091E-015
  -2.5000000000000001E-002    -1.3249884376510829E-013
  -2.4950000000000000E-002    -2.4007578226456248E-013
  -2.4899999999999999E-002    -2.7585510591014600E-013
  -2.4850000000000001E-002    -2.1874447617934801E-013
  -2.4800000000000003E-002    -7.9338447740336293E-014
  -2.4750000000000001E-002     1.0146223540384025E-013
  -2.4700000000000000E-002     2.6540736337416418E-013
  -2.4649999999999998E-002     3.5698838573216877E-013
  -2.4600000000000000E-002     3.4317560973557496E-013
  -2.4550000000000002E-002     2.2522992225134728E-013
  -2.4500000000000001E-002     3.8029570152743368E-014
  -2.4450000000000000E-002    -1.6271909960242660E-013
  -2.4399999999999998E-002    -3.2021722911422313E-013
  -2.4350000000000000E-002    -3.9544040087443533E-013
  -2.4299999999999999E-002    -3.7796151324528024E-013
  -2.4250000000000001E-002    -2.8517782441821714E-013
  -2.4199999999999999E-002    -1.5140024342846169E-013
  -2.4150000000000001E-002    -1.2428841382799491E-014
  -2.4100000000000000E-002     1.0727386345106910E-013
  -2.4049999999999998E-002     1.9951014049124534E-013
  -2.4000000000000000E-002     2.6826836881041255E-013
  -2.3949999999999999E-002     3.2008521777510017E-013
  -2.3900000000000001E-002     3.5498202117534901E-013
  -2.3850000000000000E-002     3.6358583594805174E-013
  -2.3800000000000002E-002     3.3250574429911396E-013
  -2.3750000000000000E-002     2.5519567617670308E-013
  -2.3699999999999999E-002     1.4185702197728682E-013
  -2.3650000000000001E-002     2.1462849074172668E-014
  -2.3599999999999999E-002    -6.7701010472736812E-014
  -2.3550000000000001E-002    -9.6749078117679613E-014
  -2.3500000000000000E-002    -6.6277709001823996E-014
  -2.3449999999999999E-002    -1.7331821071688202E-014
  -2.3400000000000001E-002    -2.4986955218864979E-014
  -2.3349999999999999E-002    -1.7295348368744396E-013
  -2.3300000000000001E-002    -5.1620602740960540E-013
  -2.3250000000000000E-002    -1.0454804269979998E-012
  -2.3199999999999998E-002    -1.6692147023881704E-012
  -2.3150000000000000E-002    -2.2237423768983772E-012
  -2.3099999999999999E-002    -2.5126117433078030E-012
  -2.3050000000000001E-002    -2.3644791400977199E-012
  -2.3000000000000000E-002    -1.6907537930263020E-012
  -2.2950000000000002E-002    -5.2268411680355567E-013
  -2.2900000000000000E-002     9.8608901761826499E-013
  -2.2849999999999999E-002     2.5934727015283073E-012
  -2.2800000000000001E-002     4.0281922269993712E-012
  -2.2749999999999999E-002     5.0541750357071391E-012
  -2.2700000000000001E-002     5.5184645458670241E-012
  -2.2650000000000000E-002     5.3679998629896975E-012
  -2.2599999999999999E-002     4.6329964575645252E-012
  -2.2550000000000001E-002     3.3875516489243205E-012
  -2.2499999999999999E-002     1.7063599356138561E-012
  -2.2450000000000001E-002    -3.6314025576559846E-013
  -2.2400000000000000E-002    -2.8010766883490873E-012
  -2.2349999999999998E-002    -5.5874563839420062E-012
  -2.2300000000000000E-002    -8.6571594829488518E-012
  -2.2249999999999999E-002    -1.1854445635543727E-011
  -2.2200000000000001E-002    -1.4902899175071828E-011
  -2.2150000000000000E-002    -1.7399734286277679E-011
  -2.2100000000000002E-002    -1.8833980090045429E-011
  -2.2050000000000000E-002    -1.8620535579448628E-011
  -2.1999999999999999E-002    -1.6139562612010738E-011
  -2.1950000000000001E-002    -1.0773681486300743E-011
  -2.1899999999999999E-002    -1.9415292310009935E-012
  -2.1850000000000001E-002     1.0868241818107496E-011
  -2.1800000000000000E-002     2.8057303389480484E-011
  -2.1749999999999999E-002     4.9871043653858867E-011
  -2.1700000000000001E-002     7.6351691751282346E-011
  -2.1649999999999999E-002     1.0730502802193361E-010
  -2.1600000000000001E-002     1.4229723599821186E-010
  -2.1550000000000000E-002     1.8069350616401370E-010
  -2.1499999999999998E-002     2.2173836001155903E-010
  -2.1450000000000000E-002     2.6466279074169203E-010
  -2.1399999999999999E-002     3.0879253203187475E-010
  -2.1350000000000001E-002     3.5362774441409048E-010
  -2.1299999999999999E-002     3.9887241262452659E-010
  -2.1250000000000002E-002     4.4440782879773844E-010
  -2.1200000000000000E-002     4.9022337898135711E-010
  -2.1149999999999999E-002     5.3633316546948619E-010
  -2.1100000000000001E-002     5.8271133583381491E-010
  -2.1049999999999999E-002     6.2927211698367594E-010
  -2.1000000000000001E-002     6.7590227646566532E-010
  -2.0950000000000000E-002     7.2253360503116033E-010
  -2.0899999999999998E-002     7.6922593393404401E-010
  -2.0850000000000000E-002     8.1622611121650002E-010
  -2.0799999999999999E-002     8.6397362162878600E-010
  -2.0750000000000001E-002     9.1304366159805189E-010
  -2.0700000000000000E-002     9.6403656986084665E-010
  -2.0649999999999998E-002     1.0174439910378273E-009
  -2.0600000000000000E-002     1.0735274149412632E-009
  -2.0549999999999999E-002     1.1322446603181364E-009
  -2.0500000000000001E-002     1.1932425058412929E-009
  -2.0449999999999999E-002     1.2559178648750265E-009
  -2.0400000000000001E-002     1.3195327521119463E-009
  -2.0350000000000000E-002     1.3833531934493855E-009
  -2.0299999999999999E-002     1.4467835467627469E-009
  -2.0250000000000001E-002     1.5094695526925217E-009
  -2.0199999999999999E-002     1.5713540554032894E-009
  -2.0150000000000001E-002     1.6326822408170562E-009
  -2.0100000000000000E-002     1.6939587035999184E-009
  -2.0049999999999998E-002     1.7558688297776018E-009
  -2.0000000000000000E-002     1.8191792743734650E-009
  -1.9949999999999999E-002     1.8846299564540547E-009
  -1.9900000000000001E-002     1.9528356613468632E-009
  -1.9850000000000000E-002     2.0242086734234777E-009
  -1.9799999999999998E-002     2.0989181710780955E-009
  -1.9750000000000000E-002     2.1768898194599168E-009
  -1.9699999999999999E-002     2.2578507156984312E-009
  -1.9650000000000001E-002     2.3414089924248865E-009
  -1.9599999999999999E-002     2.4271509007955907E-009
  -1.9550000000000001E-002     2.5147360527703328E-009
  -1.9500000000000000E-002     2.6039648480021810E-009
  -1.9449999999999999E-002     2.6948013576957483E-009
  -1.9400000000000001E-002     2.7873478229507974E-009
  -1.9349999999999999E-002     2.8817819551052832E-009
  -1.9300000000000001E-002     2.9782764630411201E-009
  -1.9250000000000000E-002     3.0769327476211875E-009
  -1.9199999999999998E-002     3.1777546366235440E-009
  -1.9150000000000000E-002     3.2806805576607311E-009
  -1.9099999999999999E-002     3.3856657026891185E-009
  -1.9050000000000001E-002     3.4927944613701535E-009
  -1.9000000000000000E-002     3.6023841618649189E-009
  -1.8949999999999998E-002     3.7150396189810818E-009
  -1.8900000000000000E-002     3.8316231307112803E-009
  -1.8849999999999999E-002     3.9531373490772823E-009
  -1.8800000000000001E-002     4.0805308254643097E-009
  -1.8749999999999999E-002     4.2144769566766441E-009
  -1.8700000000000001E-002     4.3551825406749872E-009
  -1.8650000000000000E-002     4.5022819904379262E-009
  -1.8599999999999998E-002     4.6548569017860186E-009
  -1.8550000000000001E-002     4.8115831612009029E-009
  -1.8499999999999999E-002     4.9709836729458852E-009
  -1.8450000000000001E-002     5.1317235890583862E-009
  -1.8400000000000000E-002     5.2928842903630061E-009
  -1.8349999999999998E-002     5.4541482593945786E-009
  -1.8300000000000000E-002     5.6158650101291116E-009
  -1.8249999999999999E-002     5.7789835992209230E-009
  -1.8200000000000001E-002     5.9448781921919350E-009
  -1.8149999999999999E-002     6.1151171795360808E-009
  -1.8100000000000002E-002     6.2912286561284529E-009
  -1.8050000000000000E-002     6.4745084031785165E-009
  -1.7999999999999999E-002     6.6659007542194902E-009
  -1.7950000000000001E-002     6.8659599685123018E-009
  -1.7899999999999999E-002     7.0748769789289894E-009
  -1.7850000000000001E-002     7.2925501778578772E-009
  -1.7800000000000000E-002     7.5186721533786390E-009
  -1.7749999999999998E-002     7.7528142822009579E-009
  -1.7700000000000000E-002     7.9944896327877513E-009
  -1.7649999999999999E-002     8.2431939362794670E-009
  -1.7600000000000001E-002     8.4984312536885013E-009
  -1.7550000000000000E-002     8.7597251642202584E-009
  -1.7499999999999998E-002     9.0266268080242960E-009
  -1.7450000000000000E-002     9.2987207823409444E-009
  -1.7399999999999999E-002     9.5756481165405264E-009
  -1.7350000000000001E-002     9.8571466456463514E-009
  -1.7299999999999999E-002     1.0143115837814056E-008
  -1.7250000000000001E-002     1.0433706198940588E-008
  -1.7200000000000000E-002     1.0729417415996254E-008
  -1.7149999999999999E-002     1.1031177949094993E-008
  -1.7100000000000001E-002     1.1340369026321846E-008
  -1.7049999999999999E-002     1.1658762089750124E-008
  -1.7000000000000001E-002     1.1988357036196450E-008
  -1.6950000000000000E-002     1.2331114510532535E-008
  -1.6899999999999998E-002     1.2688639882476455E-008
  -1.6850000000000000E-002     1.3061883722426924E-008
  -1.6799999999999999E-002     1.3450935375715183E-008
  -1.6750000000000001E-002     1.3854973989234872E-008
  -1.6700000000000000E-002     1.4272406726244541E-008
  -1.6649999999999998E-002     1.4701182890487913E-008
  -1.6600000000000000E-002     1.5139201169364756E-008
  -1.6549999999999999E-002     1.5584721218540956E-008
  -1.6500000000000001E-002     1.6036695700907858E-008
  -1.6449999999999999E-002     1.6494925443437262E-008
  -1.6400000000000001E-002     1.6960051582540035E-008
  -1.6350000000000000E-002     1.7433378026599405E-008
  -1.6299999999999999E-002     1.7916616539898620E-008
  -1.6250000000000001E-002     1.8411612859447289E-008
  -1.6199999999999999E-002     1.8920128777346826E-008
  -1.6150000000000001E-002     1.9443704294105010E-008
  -1.6100000000000000E-002     1.9983614730115267E-008
  -1.6049999999999998E-002     2.0540880527317562E-008
  -1.6000000000000000E-002     2.1116293913225508E-008
  -1.5949999999999999E-002     2.1710458272657180E-008
  -1.5900000000000001E-002     2.2323778960394381E-008
  -1.5850000000000000E-002     2.2956452835015001E-008
  -1.5799999999999998E-002     2.3608432865546653E-008
  -1.5750000000000000E-002     2.4279418450122595E-008
  -1.5699999999999999E-002     2.4968853982504167E-008
  -1.5650000000000001E-002     2.5675979444866986E-008
  -1.5599999999999999E-002     2.6399910935013309E-008
  -1.5550000000000001E-002     2.7139774641816191E-008
  -1.5500000000000000E-002     2.7894860275603326E-008
  -1.5449999999999998E-002     2.8664786623900081E-008
  -1.5400000000000000E-002     2.9449675010830231E-008
  -1.5349999999999999E-002     3.0250259535406809E-008
  -1.5300000000000001E-002     3.1067942685089074E-008
  -1.5250000000000000E-002     3.1904730511206691E-008
  -1.5199999999999998E-002     3.2763065237328995E-008
  -1.5150000000000000E-002     3.3645575926265669E-008
  -1.5099999999999999E-002     3.4554750939790758E-008
  -1.5050000000000001E-002     3.5492641783842060E-008
  -1.4999999999999999E-002     3.6460592015519523E-008
  -1.4949999999999998E-002     3.7459112322380145E-008
  -1.4900000000000000E-002     3.8487871057149553E-008
  -1.4849999999999999E-002     3.9545855872737279E-008
  -1.4800000000000001E-002     4.0631627554971368E-008
  -1.4749999999999999E-002     4.1743637506085986E-008
  -1.4700000000000001E-002     4.2880542295434959E-008
  -1.4650000000000000E-002     4.4041445412275714E-008
  -1.4599999999999998E-002     4.5226055670235941E-008
  -1.4550000000000000E-002     4.6434718353597571E-008
  -1.4499999999999999E-002     4.7668373396427331E-008
  -1.4450000000000001E-002     4.8928437499931045E-008
  -1.4400000000000000E-002     5.0216661087908249E-008
  -1.4349999999999998E-002     5.1535009622838650E-008
  -1.4300000000000000E-002     5.2885551898302528E-008
  -1.4249999999999999E-002     5.4270388280486332E-008
  -1.4200000000000001E-002     5.5691558800919499E-008
  -1.4149999999999999E-002     5.7151010468076326E-008
  -1.4099999999999998E-002     5.8650479339626810E-008
  -1.4050000000000000E-002     6.0191394586936697E-008
  -1.3999999999999999E-002     6.1774812999420172E-008
  -1.3950000000000001E-002     6.3401352304975410E-008
  -1.3899999999999999E-002     6.5071148675545140E-008
  -1.3850000000000001E-002     6.6783878527211152E-008
  -1.3800000000000000E-002     6.8538855286662849E-008
  -1.3749999999999998E-002     7.0335158860480328E-008
  -1.3700000000000000E-002     7.2171833326687263E-008
  -1.3649999999999999E-002     7.4048116613050127E-008
  -1.3600000000000001E-002     7.5963673889921014E-008
  -1.3550000000000000E-002     7.7918818742099514E-008
  -1.3499999999999998E-002     7.9914644997428561E-008
  -1.3450000000000000E-002     8.1953052823302733E-008
  -1.3399999999999999E-002     8.4036630534831037E-008
  -1.3350000000000001E-002     8.6168411084684676E-008
  -1.3299999999999999E-002     8.8351536384882911E-008
  -1.3249999999999998E-002     9.0588927612634252E-008
  -1.3200000000000000E-002     9.2882998708966198E-008
  -1.3149999999999998E-002     9.5235536834819742E-008
  -1.3100000000000001E-002     9.7647725590579518E-008
  -1.3049999999999999E-002     1.0012026918565511E-007
  -1.3000000000000001E-002     1.0265360216584394E-007
  -1.2950000000000000E-002     1.0524801604276100E-007
  -1.2899999999999998E-002     1.0790377730332387E-007
  -1.2850000000000000E-002     1.1062115072078148E-007
  -1.2799999999999999E-002     1.1340037766441851E-007