  -4.0000000000000001E-002     0.0000000000000000     
  -3.9949999999999999E-002     0.0000000000000000     
  -3.9899999999999998E-002     0.0000000000000000     
  -3.9850000000000003E-002     0.0000000000000000     
  -3.9800000000000002E-002     0.0000000000000000     
  -3.9750000000000001E-002     0.0000000000000000     
  -3.9699999999999999E-002     0.0000000000000000     
  -3.9649999999999998E-002     0.0000000000000000     
  -3.9600000000000003E-002     0.0000000000000000     
  -3.9550000000000002E-002     0.0000000000000000     
  -3.9500000000000000E-002     0.0000000000000000     
  -3.9449999999999999E-002     0.0000000000000000     
  -3.9399999999999998E-002     0.0000000000000000     
  -3.9350000000000003E-002     0.0000000000000000     
  -3.9300000000000002E-002     0.0000000000000000     
  -3.9250000000000000E-002     0.0000000000000000     
  -3.9199999999999999E-002     0.0000000000000000     
  -3.9150000000000004E-002     0.0000000000000000     
  -3.9100000000000003E-002     0.0000000000000000     
  -3.9050000000000001E-002     0.0000000000000000     
  -3.9000000000000000E-002     0.0000000000000000     
  -3.8949999999999999E-002     0.0000000000000000     
  -3.8900000000000004E-002     0.0000000000000000     
  -3.8850000000000003E-002     0.0000000000000000     
  -3.8800000000000001E-002     0.0000000000000000     
  -3.8750000000000000E-002     0.0000000000000000     
  -3.8699999999999998E-002     0.0000000000000000     
  -3.8650000000000004E-002     0.0000000000000000     
  -3.8600000000000002E-002     0.0000000000000000     
  -3.8550000000000001E-002     0.0000000000000000     
  -3.8500000000000000E-002     0.0000000000000000     
  -3.8449999999999998E-002     0.0000000000000000     
  -3.8400000000000004E-002     0.0000000000000000     
  -3.8350000000000002E-002     0.0000000000000000     
  -3.8300000000000001E-002     0.0000000000000000     
  -3.8249999999999999E-002     0.0000000000000000     
  -3.8199999999999998E-002     0.0000000000000000     
  -3.8150000000000003E-002     0.0000000000000000     
  -3.8100000000000002E-002     0.0000000000000000     
  -3.8050000000000000E-002     0.0000000000000000     
  -3.7999999999999999E-002     0.0000000000000000     
  -3.7949999999999998E-002     0.0000000000000000     
  -3.7900000000000003E-002     0.0000000000000000     
  -3.7850000000000002E-002     0.0000000000000000     
  -3.7800000000000000E-002     0.0000000000000000     
  -3.7749999999999999E-002     0.0000000000000000     
  -3.7699999999999997E-002     0.0000000000000000     
  -3.7650000000000003E-002     0.0000000000000000     
  -3.7600000000000001E-002     0.0000000000000000     
  -3.7550000000000000E-002     0.0000000000000000     
  -3.7499999999999999E-002     0.0000000000000000     
  -3.7449999999999997E-002     0.0000000000000000     
  -3.7400000000000003E-002     0.0000000000000000     
  -3.7350000000000001E-002     0.0000000000000000     
  -3.7300000000000000E-002     0.0000000000000000     
  -3.7249999999999998E-002     0.0000000000000000     
  -3.7200000000000004E-002     0.0000000000000000     
  -3.7150000000000002E-002     0.0000000000000000     
  -3.7100000000000001E-002     0.0000000000000000     
  -3.7050000000000000E-002     0.0000000000000000     
  -3.6999999999999998E-002     0.0000000000000000     
  -3.6950000000000004E-002     0.0000000000000000     
  -3.6900000000000002E-002     0.0000000000000000     
  -3.6850000000000001E-002     0.0000000000000000     
  -3.6799999999999999E-002     0.0000000000000000     
  -3.6749999999999998E-002     0.0000000000000000     
  -3.6700000000000003E-002     0.0000000000000000     
  -3.6650000000000002E-002     0.0000000000000000     
  -3.6600000000000001E-002     0.0000000000000000     
  -3.6549999999999999E-002     0.0000000000000000     
  -3.6499999999999998E-002     0.0000000000000000     
  -3.6450000000000003E-002     0.0000000000000000     
  -3.6400000000000002E-002     0.0000000000000000     
  -3.6350000000000000E-002     0.0000000000000000     
  -3.6299999999999999E-002     0.0000000000000000     
  -3.6249999999999998E-002     0.0000000000000000     
  -3.6200000000000003E-002     0.0000000000000000     
  -3.6150000000000002E-002     0.0000000000000000     
  -3.6100000000000000E-002     0.0000000000000000     
  -3.6049999999999999E-002     0.0000000000000000     
  -3.6000000000000004E-002     0.0000000000000000     
  -3.5950000000000003E-002     0.0000000000000000     
  -3.5900000000000001E-002     0.0000000000000000     
  -3.5850000000000000E-002     0.0000000000000000     
  -3.5799999999999998E-002     0.0000000000000000     
  -3.5750000000000004E-002     0.0000000000000000     
  -3.5700000000000003E-002     0.0000000000000000     
  -3.5650000000000001E-002     0.0000000000000000     
  -3.5600000000000000E-002     0.0000000000000000     
  -3.5549999999999998E-002     0.0000000000000000     
  -3.5500000000000004E-002     0.0000000000000000     
  -3.5450000000000002E-002     0.0000000000000000     
  -3.5400000000000001E-002     0.0000000000000000     
  -3.5349999999999999E-002     0.0000000000000000     
  -3.5299999999999998E-002     0.0000000000000000     
  -3.5250000000000004E-002     0.0000000000000000     
  -3.5200000000000002E-002    -1.2538130621232480E-038
  -3.5150000000000001E-002    -2.9006956684237716E-038
  -3.5099999999999999E-002    -2.9006956684237716E-038
  -3.5049999999999998E-002    -1.5655317653824571E-038
  -3.5000000000000003E-002     4.9629255217575603E-038
  -3.4950000000000002E-002     1.5854594626878046E-037
  -3.4900000000000000E-002     2.7491253971207878E-037
  -3.4849999999999999E-002     3.5337433479663451E-037
  -3.4799999999999998E-002     2.9918867914959276E-037
  -3.4750000000000003E-002     3.2845550383144259E-038
  -3.4700000000000002E-002    -4.8432255980000401E-037
  -3.4650000000000000E-002    -1.2091897270669123E-036
  -3.4599999999999999E-002    -1.9815153084172090E-036
  -3.4549999999999997E-002    -2.5122489630387526E-036
  -3.4500000000000003E-002    -2.4114734965692251E-036
  -3.4450000000000001E-002    -1.2711883727485418E-036
  -3.4400000000000000E-002     1.1878005763567635E-036
  -3.4349999999999999E-002     4.9202036534290179E-036
  -3.4299999999999997E-002     9.3567104660587097E-036
  -3.4250000000000003E-002     1.3285719260158254E-035
  -3.4200000000000001E-002     1.4924047292461287E-035
  -3.4150000000000000E-002     1.2261041752901427E-035
  -3.4099999999999998E-002     3.7045068792339422E-036
  -3.4049999999999997E-002    -1.1070253922109579E-035
  -3.4000000000000002E-002    -3.0312162305882944E-035
  -3.3950000000000001E-002    -4.9782656414241686E-035
  -3.3900000000000000E-002    -6.3127920949151004E-035
  -3.3849999999999998E-002    -6.3270110995796124E-035
  -3.3799999999999997E-002    -4.4720597770235562E-035
  -3.3750000000000002E-002    -6.2530624317069057E-036
  -3.3700000000000001E-002     4.7068621907269787E-035
  -3.3649999999999999E-002     1.0371075564561807E-034
  -3.3599999999999998E-002     1.4825618294665078E-034
  -3.3550000000000003E-002     1.6678991768602770E-034
  -3.3500000000000002E-002     1.5373901461489729E-034
  -3.3450000000000001E-002     1.1736228582049578E-034
  -3.3399999999999999E-002     8.0227391868406455E-035
  -3.3349999999999998E-002     7.1520962093459157E-035
  -3.3300000000000003E-002     1.1043717768508802E-034
  -3.3250000000000002E-002     1.8406147684564620E-034
  -3.3200000000000000E-002     2.2812483666847157E-034
  -3.3149999999999999E-002     1.2279236947563655E-034
  -3.3099999999999997E-002    -2.8412437735118761E-034
  -3.3050000000000003E-002    -1.1195345749094079E-033
  -3.3000000000000002E-002    -2.3976089912691793E-033
  -3.2950000000000000E-002    -3.9230492960282080E-033
  -3.2899999999999999E-002    -5.2214015409526407E-033
  -3.2850000000000004E-002    -5.5417347718112531E-033
  -3.2800000000000003E-002    -3.9725096902069942E-033
  -3.2750000000000001E-002     3.1065964703531414E-034
  -3.2700000000000000E-002     7.6855495736211079E-033
  -3.2649999999999998E-002     1.7680629632501227E-032
  -3.2600000000000004E-002     2.8642065964777087E-032
  -3.2550000000000003E-002     3.7608531161338102E-032
  -3.2500000000000001E-002     4.0524618200989352E-032
  -3.2450000000000000E-002     3.2878241976609397E-032
  -3.2399999999999998E-002     1.0767924248191587E-032
  -3.2350000000000004E-002    -2.7694197278783904E-032
  -3.2300000000000002E-002    -8.0842372906120999E-032
  -3.2250000000000001E-002    -1.4207450252993164E-031
  -3.2199999999999999E-002    -1.9900183665918073E-031
  -3.2149999999999998E-002    -2.3357178545330427E-031
  -3.2100000000000004E-002    -2.2364581711541281E-031
  -3.2050000000000002E-002    -1.4649822866543765E-031
  -3.2000000000000001E-002     1.5445337492968397E-032
  -3.1949999999999999E-002     2.6669500633009678E-031
  -3.1899999999999998E-002     5.8939954431020763E-031
  -3.1850000000000003E-002     9.3454669096587863E-031
  -3.1800000000000002E-002     1.2168567996830896E-030
  -3.1750000000000000E-002     1.3177029302378739E-030
  -3.1699999999999999E-002     1.1007025353359648E-030
  -3.1649999999999998E-002     4.4331399644651316E-031
  -3.1600000000000003E-002    -7.1581761407165021E-031
  -3.1550000000000002E-002    -2.3200152718563403E-030
  -3.1500000000000000E-002    -4.1420557778342869E-030
  -3.1449999999999999E-002    -5.7569668441125974E-030
  -3.1399999999999997E-002    -6.5647368455004845E-030
  -3.1350000000000003E-002    -5.8841448004421855E-030
  -3.1300000000000001E-002    -3.1257100084975118E-030
  -3.1250000000000000E-002     1.9716553580805499E-030
  -3.1199999999999999E-002     9.0861184373927976E-030
  -3.1150000000000001E-002     1.7116217888989924E-029
  -3.1100000000000003E-002     2.4135893993908362E-029
  -3.1050000000000001E-002     2.7589662658545223E-029
  -3.1000000000000000E-002     2.4778002046632604E-029
  -3.0949999999999998E-002     1.3610486731673834E-029
  -3.0900000000000000E-002    -6.4922421340547647E-030
  -3.0850000000000002E-002    -3.3764552162849735E-029
  -3.0800000000000001E-002    -6.3613833193506049E-029
  -3.0750000000000000E-002    -8.8776878288903040E-029
  -3.0699999999999998E-002    -1.0031487180742177E-028
  -3.0650000000000000E-002    -8.9468870936452450E-029
  -3.0600000000000002E-002    -5.0153219922692000E-029
  -3.0550000000000001E-002     1.8391943351722645E-029
  -3.0499999999999999E-002     1.0946228672687661E-028
  -3.0449999999999998E-002     2.0799744880240767E-028
  -3.0400000000000000E-002     2.9154347126969960E-028
  -3.0350000000000002E-002     3.3336496778969551E-028
  -3.0300000000000001E-002     3.0755064540947967E-028
  -3.0249999999999999E-002     1.9546176338738559E-028
  -3.0200000000000001E-002    -7.5529555740898801E-030
  -3.0150000000000000E-002    -2.8651378484931081E-028
  -3.0100000000000002E-002    -6.0362188168193644E-028
  -3.0050000000000000E-002    -8.9875803081814460E-028
  -2.9999999999999999E-002    -1.0945981431431051E-027
  -2.9950000000000001E-002    -1.1068732502366516E-027
  -2.9899999999999999E-002    -8.5978635691098279E-028
  -2.9850000000000002E-002    -3.0587373820690170E-028
  -2.9800000000000000E-002     5.5150544701484008E-028
  -2.9749999999999999E-002     1.6364647922687731E-027
  -2.9700000000000001E-002     2.7850894111013206E-027
  -2.9650000000000003E-002     3.7435247886587342E-027
  -2.9600000000000001E-002     4.1880459828208299E-027
  -2.9550000000000000E-002     3.7743184825395417E-027
  -2.9499999999999998E-002     2.2184756214517460E-027
  -2.9450000000000000E-002    -5.9600039911301283E-028
  -2.9400000000000003E-002    -4.5035622263320466E-027
  -2.9350000000000001E-002    -8.9649011349353252E-027
  -2.9300000000000000E-002    -1.3038650494090561E-026
  -2.9249999999999998E-002    -1.5457714030366171E-026
  -2.9200000000000000E-002    -1.4838689331361003E-026
  -2.9150000000000002E-002    -1.0024064767107130E-026
  -2.9100000000000001E-002    -5.1429994716317858E-028
  -2.9049999999999999E-002     1.3101357232335854E-026
  -2.8999999999999998E-002     2.8846686559108904E-026
  -2.8950000000000000E-002     4.3339466546506316E-026
  -2.8900000000000002E-002     5.2173047762997609E-026
  -2.8850000000000001E-002     5.0746278800852701E-026
  -2.8799999999999999E-002     3.5472538843238132E-026
  -2.8749999999999998E-002     5.1588799195812252E-027
  -2.8700000000000000E-002    -3.7780511658833575E-026
  -2.8650000000000002E-002    -8.6682168655319203E-026
  -2.8600000000000000E-002    -1.3094106183132434E-025
  -2.8549999999999999E-002    -1.5749956797169028E-025
  -2.8500000000000001E-002    -1.5348846911362596E-025
  -2.8450000000000000E-002    -1.0966082400779219E-025
  -2.8400000000000002E-002    -2.3934519035775662E-026
  -2.8350000000000000E-002     9.5863708405234915E-026
  -2.8299999999999999E-002     2.3099523634294820E-025
  -2.8250000000000001E-002     3.5327888254016633E-025
  -2.8200000000000003E-002     4.2931062778814501E-025
  -2.8150000000000001E-002     4.2708268737657457E-025
  -2.8100000000000000E-002     3.2397920801367381E-025
  -2.8049999999999999E-002     1.1457094080092065E-025
  -2.8000000000000001E-002    -1.8364309629805504E-025
  -2.7950000000000003E-002    -5.2829166797178048E-025
  -2.7900000000000001E-002    -8.5521140431347219E-025
  -2.7850000000000000E-002    -1.0869248985106241E-024
  -2.7799999999999998E-002    -1.1458511318012101E-024
  -2.7750000000000000E-002    -9.7055726536830440E-025
  -2.7700000000000002E-002    -5.3252942875462776E-025
  -2.7650000000000001E-002     1.4955785871979747E-025
  -2.7600000000000000E-002     1.0011915939388177E-024
  -2.7549999999999998E-002     1.8918042160578275E-024
  -2.7500000000000000E-002     2.6451105686348494E-024
  -2.7450000000000002E-002     3.0610331421776491E-024
  -2.7400000000000001E-002     2.9487192680120339E-024
  -2.7349999999999999E-002     2.1681467271069529E-024
  -2.7299999999999998E-002     6.7532212728481463E-025
  -2.7250000000000000E-002    -1.4366482370395396E-024
  -2.7200000000000002E-002    -3.9107948981426283E-024
  -2.7150000000000001E-002    -6.3253135355723237E-024
  -2.7099999999999999E-002    -8.1289560373692350E-024
  -2.7049999999999998E-002    -8.7191872886819326E-024
  -2.7000000000000000E-002    -7.5615836085071267E-024
  -2.6950000000000002E-002    -4.3377307587832186E-024
  -2.6900000000000000E-002     9.0391015457548091E-025
  -2.6849999999999999E-002     7.6309000273879918E-024
  -2.6800000000000001E-002     1.4785872382047095E-023
  -2.6749999999999999E-002     2.0860230725437342E-023
  -2.6700000000000002E-002     2.4104913447363611E-023
  -2.6650000000000000E-002     2.2872394013602681E-023
  -2.6599999999999999E-002     1.6047287790766270E-023
  -2.6550000000000001E-002     3.4851117486195289E-024
  -2.6500000000000003E-002    -1.3649813282054780E-023
  -2.6450000000000001E-002    -3.2764624568096406E-023
  -2.6400000000000000E-002    -5.0033111638633684E-023
  -2.6349999999999998E-002    -6.0950145084212783E-023
  -2.6300000000000000E-002    -6.1210279856318464E-023
  -2.6250000000000002E-002    -4.7783242471619908E-023
  -2.6200000000000001E-002    -1.9974791157311932E-023
  -2.6150000000000000E-002     1.9790098309016158E-023
  -2.6099999999999998E-002     6.5722255000707805E-023
  -2.6050000000000000E-002     1.0915325719491476E-022
  -2.6000000000000002E-002     1.3980935122666403E-022
  -2.5950000000000001E-002     1.4775672726086949E-022
  -2.5899999999999999E-002     1.2571484285283987E-022
  -2.5849999999999998E-002     7.1283938952682158E-023
  -2.5800000000000000E-002    -1.1438222801605948E-023
  -2.5750000000000002E-002    -1.1133719021202655E-022
  -2.5700000000000001E-002    -2.1118848991338826E-022
  -2.5649999999999999E-002    -2.9005940906256023E-022
  -2.5599999999999998E-002    -3.2695931822647208E-022
  -2.5550000000000000E-002    -3.0518380374714301E-022
  -2.5500000000000002E-002    -2.1656741057084101E-022
  -2.5450000000000000E-002    -6.4763889975060144E-023
  -2.5399999999999999E-002     1.3325336174620015E-022
  -2.5349999999999998E-002     3.4803528347682565E-022
  -2.5300000000000000E-002     5.4103554392394859E-022
  -2.5250000000000002E-002     6.7026893360601488E-022
  -2.5200000000000000E-002     6.9755816929428087E-022
  -2.5149999999999999E-002     5.9632330853935737E-022
  -2.5100000000000001E-002     3.5865155896912380E-022
  -2.5049999999999999E-002     3.4156415018621458E-025
  -2.5000000000000001E-002    -4.3724840890716027E-022
  -2.4950000000000000E-002    -8.8941302895057187E-022
  -2.4899999999999999E-002    -1.2747812494302905E-021
  -2.4850000000000001E-002    -1.5062888272653526E-021
  -2.4800000000000003E-002    -1.5055787767200068E-021
  -2.4750000000000001E-002    -1.2192216117925064E-021
  -2.4700000000000000E-002    -6.3442430576312252E-022
  -2.4649999999999998E-002     2.0868612214783134E-022
  -2.4600000000000000E-002     1.2113855093221478E-021
  -2.4550000000000002E-002     2.2202240518746093E-021
  -2.4500000000000001E-002     3.0424639970238016E-021
  -2.4450000000000000E-002     3.4734194416089604E-021
  -2.4399999999999998E-002     3.3336638843851452E-021
  -2.4350000000000000E-002     2.5113296293370119E-021
  -2.4299999999999999E-002     1.0021283023660343E-021
  -2.4250000000000001E-002    -1.0620316479616806E-021
  -2.4199999999999999E-002    -3.4051629046859140E-021
  -2.4150000000000001E-002    -5.6274603606984828E-021
  -2.4100000000000000E-002    -7.2568918646382244E-021
  -2.4049999999999998E-002    -7.8291247495273252E-021
  -2.4000000000000000E-002    -6.9856170133991786E-021
  -2.3949999999999999E-002    -4.5729848137620180E-021
  -2.3900000000000001E-002    -7.2226034511020541E-022
  -2.3850000000000000E-002     4.1139440024412697E-021
  -2.3800000000000002E-002     9.1840514396505862E-021
  -2.3750000000000000E-002     1.3528212569703721E-020
  -2.3699999999999999E-002     1.6132026888417200E-020
  -2.3650000000000001E-002     1.6123315642591251E-020
  -2.3599999999999999E-002     1.2978450078466366E-020
  -2.3550000000000001E-002     6.6963118058491076E-021
  -2.3500000000000000E-002    -2.1028346829324037E-021
  -2.3449999999999999E-002    -1.2187598365999615E-020
  -2.3400000000000001E-002    -2.1851425062247328E-020
  -2.3349999999999999E-002    -2.9166976472336493E-020
  -2.3300000000000001E-002    -3.2325756280652028E-020
  -2.3250000000000000E-002    -3.0007498603441206E-020
  -2.3199999999999998E-002    -2.1710130658278480E-020
  -2.3150000000000000E-002    -7.9701469270641123E-021
  -2.3099999999999999E-002     9.5833543011085206E-021
  -2.3050000000000001E-002     2.8371778022686004E-020
  -2.3000000000000000E-002     4.5203462384416685E-020
  -2.2950000000000002E-002     5.6762994789767003E-020
  -2.2900000000000000E-002     6.0181409144021888E-020
  -2.2849999999999999E-002     5.3595177387024472E-020
  -2.2800000000000001E-002     3.6597077856980047E-020
  -2.2749999999999999E-002     1.0494096311400743E-020
  -2.2700000000000001E-002    -2.1686559241994986E-020
  -2.2650000000000000E-002    -5.5466156535042852E-020
  -2.2599999999999999E-002    -8.5441475873951184E-020
  -2.2550000000000001E-002    -1.0601658548483620E-019
  -2.2499999999999999E-002    -1.1225536261047013E-019
  -2.2450000000000001E-002    -1.0074925444046337E-019
  -2.2400000000000000E-002    -7.0383938829781894E-020
  -2.2349999999999998E-002    -2.2886751458782547E-020
  -2.2300000000000000E-002     3.6954461886868436E-020
  -2.2249999999999999E-002     1.0149031779643139E-019
  -2.2200000000000001E-002     1.6088195040122413E-019
  -2.2150000000000000E-002     2.0425018981206975E-019
  -2.2100000000000002E-002     2.2123705454918508E-019
  -2.2050000000000000E-002     2.0383097726256729E-019
  -2.1999999999999999E-002     1.4821899137047075E-019
  -2.1950000000000001E-002     5.6353256043217690E-020
  -2.1899999999999999E-002    -6.3122307640286396E-020
  -2.1850000000000001E-002    -1.9492167337870005E-019
  -2.1800000000000000E-002    -3.1838670330715324E-019
  -2.1749999999999999E-002    -4.1004710397203709E-019
  -2.1700000000000001E-002    -4.4729791623804972E-019
  -2.1649999999999999E-002    -4.1275053700901352E-019
  -2.1600000000000001E-002    -2.9855980440971658E-019
  -2.1550000000000000E-002    -1.0986550857383372E-019
  -2.1499999999999998E-002     1.3353269686262438E-019
  -2.1450000000000000E-002     3.9798151151521477E-019
  -2.1399999999999999E-002     6.3961606448813325E-019
  -2.1350000000000001E-002     8.1068084087443243E-019
  -2.1299999999999999E-002     8.6778742581113865E-019
  -2.1250000000000002E-002     7.8082954692861877E-019
  -2.1200000000000000E-002     5.4090984276309929E-019
  -2.1149999999999999E-002     1.6554763679693534E-019
  -2.1100000000000001E-002    -3.0029223080513233E-019
  -2.1049999999999999E-002    -7.8820241452345704E-019
  -2.1000000000000001E-002    -1.2153371829450673E-018
  -2.0950000000000000E-002    -1.4973978102122539E-018
  -2.0899999999999998E-002    -1.5636604573493096E-018
  -2.0850000000000000E-002    -1.3714788972978739E-018
  -2.0799999999999999E-002    -9.1750315197468356E-019
  -2.0750000000000001E-002    -2.4318587851297340E-019
  -2.0700000000000000E-002     5.6701266436555234E-019
  -2.0649999999999998E-002     1.3951057605318026E-018
  -2.0600000000000000E-002     2.1057698153981873E-018
  -2.0549999999999999E-002     2.5670065521383681E-018
  -2.0500000000000001E-002     2.6721323158022730E-018
  -2.0449999999999999E-002     2.3595639233756353E-018
  -2.0400000000000001E-002     1.6270958011526590E-018
  -2.0350000000000000E-002     5.3811996935211106E-019
  -2.0299999999999999E-002    -7.8157664611811901E-019
  -2.0250000000000001E-002    -2.1564639928288059E-018
  -2.0199999999999999E-002    -3.3820894414376546E-018
  -2.0150000000000001E-002    -4.2517104164740936E-018
  -2.0100000000000000E-002    -4.5856680451801275E-018
  -2.0049999999999998E-002    -4.2600467426874030E-018
  -2.0000000000000000E-002    -3.2311200874551421E-018
  -1.9949999999999999E-002    -1.5522515687506720E-018
  -1.9900000000000001E-002     6.1969098959174420E-019
  -1.9850000000000000E-002     3.0307684644935202E-018
  -1.9799999999999998E-002     5.3507116772987843E-018
  -1.9750000000000000E-002     7.2081188594167000E-018
  -1.9699999999999999E-002     8.2384302149943746E-018
  -1.9650000000000001E-002     8.1406806276477582E-018
  -1.9599999999999999E-002     6.7364828080155025E-018
  -1.9550000000000001E-002     4.0223758324146855E-018
  -1.9500000000000000E-002     2.0513593222705211E-019
  -1.9449999999999999E-002    -4.2902338719619132E-018
  -1.9400000000000001E-002    -8.8479738181204129E-018
  -1.9349999999999999E-002    -1.2728053905660664E-017
  -1.9300000000000001E-002    -1.5168664365068785E-017
  -1.9250000000000000E-002    -1.5513876613189216E-017
  -1.9199999999999998E-002    -1.3348102702566125E-017
  -1.9150000000000000E-002    -8.6135185724789952E-018
  -1.9099999999999999E-002    -1.6847681776283515E-018
  -1.9050000000000001E-002     6.6215253823859455E-018
  -1.9000000000000000E-002     1.5116399785245235E-017
  -1.8949999999999998E-002     2.2388243811872408E-017
  -1.8900000000000000E-002     2.7017831425266344E-017
  -1.8849999999999999E-002     2.7828652059664298E-017
  -1.8800000000000001E-002     2.4130868517060321E-017
  -1.8749999999999999E-002     1.5912240178749853E-017
  -1.8700000000000001E-002     3.9330911978666306E-018
  -1.8650000000000000E-002    -1.0304850635063108E-017
  -1.8599999999999998E-002    -2.4725507152728766E-017
  -1.8550000000000001E-002    -3.6966618856933551E-017
  -1.8499999999999999E-002    -4.4750031079032919E-017
  -1.8450000000000001E-002    -4.6276103208576900E-017
  -1.8400000000000000E-002    -4.0574780688889858E-017
  -1.8349999999999998E-002    -2.7748442010026256E-017
  -1.8300000000000000E-002    -9.0564977787389056E-018
  -1.8249999999999999E-002     1.3183521057628287E-017
  -1.8200000000000001E-002     3.5873277993040561E-017
  -1.8149999999999999E-002     5.5553913160204368E-017
  -1.8100000000000002E-002     6.8909313250134437E-017
  -1.8050000000000000E-002     7.3277905527933192E-017
  -1.7999999999999999E-002     6.7096378192879516E-017
  -1.7950000000000001E-002     5.0209052544968478E-017
  -1.7899999999999999E-002     2.3996072818799905E-017
  -1.7850000000000001E-002    -8.7009887863534152E-018
  -1.7800000000000000E-002    -4.3851752638469733E-017
  -1.7749999999999998E-002    -7.6680397172384314E-017
  -1.7700000000000000E-002    -1.0223463341977281E-016
  -1.7649999999999999E-002    -1.1602321145288464E-016
  -1.7600000000000001E-002    -1.1465756934878410E-016
  -1.7550000000000000E-002    -9.6429360766867451E-017
  -1.7499999999999998E-002    -6.1753241422040186E-017
  -1.7450000000000000E-002    -1.3405514000160981E-017
  -1.7399999999999999E-002     4.3505233444981469E-017
  -1.7350000000000001E-002     1.0188453087987096E-016
  -1.7299999999999999E-002     1.5333689213378830E-016
  -1.7250000000000001E-002     1.8916842397567453E-016
  -1.7200000000000000E-002     2.0163089913796586E-016
  -1.7149999999999999E-002     1.8526926662166697E-016
  -1.7100000000000001E-002     1.3817820522126812E-016
  -1.7049999999999999E-002     6.2936817764595361E-017
  -1.7000000000000001E-002    -3.3010455523831286E-017
  -1.6950000000000000E-002    -1.3771276061675189E-016
  -1.6899999999999998E-002    -2.3590293744483852E-016
  -1.6850000000000000E-002    -3.1097268823312898E-016
  -1.6799999999999999E-002    -3.4752896264050967E-016
  -1.6750000000000001E-002    -3.3417519705947001E-016
  -1.6700000000000000E-002    -2.6605230757874689E-016
  -1.6649999999999998E-002    -1.4663684828611698E-016
  -1.6600000000000000E-002     1.1648549291873848E-017
  -1.6549999999999999E-002     1.8830222690798860E-016
  -1.6500000000000001E-002     3.5714127781440869E-016
  -1.6449999999999999E-002     4.9000252487686356E-016
  -1.6400000000000001E-002     5.6124503670232427E-016
  -1.6350000000000000E-002     5.5234372627830644E-016
  -1.6299999999999999E-002     4.5576608842355518E-016
  -1.6250000000000001E-002     2.7737369701218866E-016
  -1.6199999999999999E-002     3.6786650825421614E-017
  -1.6150000000000001E-002    -2.3452918235329005E-016
  -1.6100000000000000E-002    -4.9730627822280058E-016
  -1.6049999999999998E-002    -7.1011631819862869E-016
  -1.6000000000000000E-002    -8.3576343858887789E-016
  -1.5949999999999999E-002    -8.4741601790469610E-016
  -1.5900000000000001E-002    -7.3346642251602878E-016
  -1.5850000000000000E-002    -5.0028989883994465E-016
  -1.5799999999999998E-002    -1.7240116855675924E-016
  -1.5750000000000000E-002     2.1008481734715581E-016
  -1.5699999999999999E-002     5.9636259917901393E-016
  -1.5650000000000001E-002     9.3154100088538826E-016
  -1.5599999999999999E-002     1.1640365100718799E-015
  -1.5550000000000001E-002     1.2527708345932932E-015
  -1.5500000000000000E-002     1.1732496874391650E-015
  -1.5449999999999998E-002     9.2177756973974316E-016
  -1.5400000000000000E-002     5.1730800836014522E-016
  -1.5349999999999999E-002     6.8394601768334540E-019
  -1.5300000000000001E-002    -5.6873116682971698E-016
  -1.5250000000000000E-002    -1.1188236912924583E-015
  -1.5199999999999998E-002    -1.5725067139404783E-015
  -1.5150000000000000E-002    -1.8569232252112905E-015
  -1.5099999999999999E-002    -1.9133019499387735E-015
  -1.5050000000000001E-002    -1.7064719625705608E-015
  -1.4999999999999999E-002    -1.2328448080256094E-015
  -1.4949999999999998E-002    -5.2554122154701622E-016
  -1.4900000000000000E-002     3.4463891269425760E-016
  -1.4849999999999999E-002     1.2734420383963239E-015
  -1.4800000000000001E-002     2.1330866709605304E-015
  -1.4749999999999999E-002     2.7875674299637733E-015
  -1.4700000000000001E-002     3.1120172594206654E-015
  -1.4650000000000000E-002     3.0137580494073776E-015
  -1.4599999999999998E-002     2.4518355451659275E-015
  -1.4550000000000000E-002     1.4514077899000703E-015
  -1.4499999999999999E-002     1.0956167355431442E-016
  -1.4450000000000001E-002    -1.4099457388902091E-015
  -1.4400000000000000E-002    -2.8939312629746271E-015
  -1.4349999999999998E-002    -4.1078611900133375E-015
  -1.4300000000000000E-002    -4.8314174858651686E-015
  -1.4249999999999999E-002    -4.8963226559979502E-015
  -1.4200000000000001E-002    -4.2200680680525883E-015
  -1.4149999999999999E-002    -2.8290938554776258E-015
  -1.4099999999999998E-002    -8.6614703980248168E-016
  -1.4050000000000000E-002     1.4211670196171973E-015
  -1.3999999999999999E-002     3.7105129522586617E-015
  -1.3950000000000001E-002     5.6501256513632851E-015
  -1.3899999999999999E-002     6.9127705607809585E-015
  -1.3850000000000001E-002     7.2498100526911281E-015
  -1.3800000000000000E-002     6.5362432399027406E-015
  -1.3749999999999998E-002     4.7986563690477404E-015
  -1.3700000000000000E-002     2.2205637868299814E-015
  -1.3649999999999999E-002    -8.7671467579198553E-016
  -1.3600000000000001E-002    -4.0754249103311813E-015
  -1.3550000000000000E-002    -6.9190474984365865E-015
  -1.3499999999999998E-002    -8.9776225868512874E-015
  -1.3450000000000000E-002    -9.9108614652794469E-015
  -1.3399999999999999E-002    -9.5196592985900483E-015
  -1.3350000000000001E-002    -7.7786288152879857E-015
  -1.3299999999999999E-002    -4.8453105202660336E-015
  -1.3249999999999998E-002    -1.0452145164728099E-015
  -1.3200000000000000E-002     3.1648564452198095E-015
  -1.3149999999999998E-002     7.2501996878468651E-015
  -1.3100000000000001E-002     1.0661757020053331E-014
  -1.3049999999999999E-002     1.2902733453879194E-014
  -1.3000000000000001E-002     1.3591461872522297E-014
  -1.2950000000000000E-002     1.2514428986902353E-014
  -1.2899999999999998E-002     9.6642689985100387E-015
  -1.2850000000000000E-002     5.2582996449082337E-015
  -1.2799999999999999E-002    -2.6595680461394397E-016