  -4.0000000000000001E-002     0.0000000000000000     
  -3.9949999999999999E-002     0.0000000000000000     
  -3.9899999999999998E-002     0.0000000000000000     
  -3.9850000000000003E-002     0.0000000000000000     
  -3.9800000000000002E-002     0.0000000000000000     
  -3.9750000000000001E-002     0.0000000000000000     
  -3.9699999999999999E-002     0.0000000000000000     
  -3.9649999999999998E-002     0.0000000000000000     
  -3.9600000000000003E-002     0.0000000000000000     
  -3.9550000000000002E-002     0.0000000000000000     
  -3.9500000000000000E-002     0.0000000000000000     
  -3.9449999999999999E-002     0.0000000000000000     
  -3.9399999999999998E-002     0.0000000000000000     
  -3.9350000000000003E-002     0.0000000000000000     
  -3.9300000000000002E-002     0.0000000000000000     
  -3.9250000000000000E-002     0.0000000000000000     
  -3.9199999999999999E-002     0.0000000000000000     
  -3.9150000000000004E-002     0.0000000000000000     
  -3.9100000000000003E-002     0.0000000000000000     
  -3.9050000000000001E-002     0.0000000000000000     
  -3.9000000000000000E-002     0.0000000000000000     
  -3.8949999999999999E-002     0.0000000000000000     
  -3.8900000000000004E-002     0.0000000000000000     
  -3.8850000000000003E-002     0.0000000000000000     
  -3.8800000000000001E-002     0.0000000000000000     
  -3.8750000000000000E-002     0.0000000000000000     
  -3.8699999999999998E-002     0.0000000000000000     
  -3.8650000000000004E-002     0.0000000000000000     
  -3.8600000000000002E-002     0.0000000000000000     
  -3.8550000000000001E-002     0.0000000000000000     
  -3.8500000000000000E-002     0.0000000000000000     
  -3.8449999999999998E-002     0.0000000000000000     
  -3.8400000000000004E-002     0.0000000000000000     
  -3.8350000000000002E-002     0.0000000000000000     
  -3.8300000000000001E-002     0.0000000000000000     
  -3.8249999999999999E-002     0.0000000000000000     
  -3.8199999999999998E-002     0.0000000000000000     
  -3.8150000000000003E-002     0.0000000000000000     
  -3.8100000000000002E-002     0.0000000000000000     
  -3.8050000000000000E-002     0.0000000000000000     
  -3.7999999999999999E-002     0.0000000000000000     
  -3.7949999999999998E-002     0.0000000000000000     
  -3.7900000000000003E-002     0.0000000000000000     
  -3.7850000000000002E-002     0.0000000000000000     
  -3.7800000000000000E-002     0.0000000000000000     
  -3.7749999999999999E-002     0.0000000000000000     
  -3.7699999999999997E-002     0.0000000000000000     
  -3.7650000000000003E-002     0.0000000000000000     
  -3.7600000000000001E-002     0.0000000000000000     
  -3.7550000000000000E-002     0.0000000000000000     
  -3.7499999999999999E-002     0.0000000000000000     
  -3.7449999999999997E-002     0.0000000000000000     
  -3.7400000000000003E-002     0.0000000000000000     
  -3.7350000000000001E-002     0.0000000000000000     
  -3.7300000000000000E-002     0.0000000000000000     
  -3.7249999999999998E-002     0.0000000000000000     
  -3.7200000000000004E-002     0.0000000000000000     
  -3.7150000000000002E-002     0.0000000000000000     
  -3.7100000000000001E-002     0.0000000000000000     
  -3.7050000000000000E-002     0.0000000000000000     
  -3.6999999999999998E-002    -2.5485214218017128E-039
  -3.6950000000000004E-002    -6.8219353157295337E-039
  -3.6900000000000002E-002    -1.1639715072421144E-038
  -3.6850000000000001E-002    -1.5428481333174209E-038
  -3.6799999999999999E-002    -2.3760350498985612E-038
  -3.6749999999999998E-002    -2.7621254431616629E-038
  -3.6700000000000003E-002    -1.6971623102467786E-038
  -3.6650000000000002E-002     2.5508786718062959E-038
  -3.6600000000000001E-002     1.4783741017155149E-037
  -3.6549999999999999E-002     3.8006729359375889E-037
  -3.6499999999999998E-002     7.3822422077539538E-037
  -3.6450000000000003E-002     1.1681998245466437E-036
  -3.6400000000000002E-002     1.4954619644556573E-036
  -3.6350000000000000E-002     1.3679934998918464E-036
  -3.6299999999999999E-002     2.4113785849055324E-037
  -3.6249999999999998E-002    -2.5449011720586132E-036
  -3.6200000000000003E-002    -7.5223977959964610E-036
  -3.6150000000000002E-002    -1.4636454083100204E-035
  -3.6100000000000000E-002    -2.2594168317809113E-035
  -3.6049999999999999E-002    -2.8148108496250304E-035
  -3.6000000000000004E-002    -2.5629485162371779E-035
  -3.5950000000000003E-002    -7.2306048203149159E-036
  -3.5900000000000001E-002     3.5342946794686087E-035
  -3.5850000000000000E-002     1.0730241183712839E-034
  -3.5799999999999998E-002     2.0514928800221000E-034
  -3.5750000000000004E-002     3.0970978495429150E-034
  -3.5700000000000003E-002     3.7984554391994260E-034
  -3.5650000000000001E-002     3.5037357362611398E-034
  -3.5600000000000000E-002     1.3894736236592574E-034
  -3.5549999999999998E-002    -3.3325896307258037E-034
  -3.5500000000000004E-002    -1.1042625328008059E-033
  -3.5450000000000002E-002    -2.1196209563975885E-033
  -3.5400000000000001E-002    -3.1768600905864382E-033
  -3.5349999999999999E-002    -3.8866236538517055E-033
  -3.5299999999999998E-002    -3.6803171190650608E-033
  -3.5250000000000004E-002    -1.8970862283419780E-033
  -3.5200000000000002E-002     2.0260977534544043E-033
  -3.5150000000000001E-002     8.2636116978301043E-033
  -3.5099999999999999E-002     1.6255868195048393E-032
  -3.5049999999999998E-002     2.4410128936197608E-032
  -3.5000000000000003E-002     2.9995578405158392E-032
  -3.4950000000000002E-002     2.9395556139008726E-032
  -3.4900000000000000E-002     1.8834481326334536E-032
  -3.4849999999999999E-002    -4.4253361101560144E-033
  -3.4799999999999998E-002    -4.0610824343447421E-032
  -3.4750000000000003E-002    -8.6090956847506230E-032
  -3.4700000000000002E-002    -1.3269761206282040E-031
  -3.4650000000000000E-002    -1.6823009405366544E-031
  -3.4599999999999999E-002    -1.7839133625959920E-031
  -3.4549999999999997E-002    -1.4990795237724853E-031
  -3.4500000000000003E-002    -7.4003801671905487E-032
  -3.4450000000000001E-002     5.1004730894749421E-032
  -3.4400000000000000E-002     2.1912336349990438E-031
  -3.4349999999999999E-002     4.1841577224683743E-031
  -3.4299999999999997E-002     6.3390691669116185E-031
  -3.4250000000000003E-002     8.4890732019189665E-031
  -3.4200000000000001E-002     1.0412297590450360E-030
  -3.4150000000000000E-002     1.1718892089381993E-030
  -3.4099999999999998E-002     1.1675940739853748E-030
  -3.4049999999999997E-002     9.0431773389711459E-031
  -3.4000000000000002E-002     2.0560103112089000E-031
  -3.3950000000000001E-002    -1.1273645519541718E-030
  -3.3900000000000000E-002    -3.2403165636757915E-030
  -3.3849999999999998E-002    -6.1047869741247417E-030
  -3.3799999999999997E-002    -9.3732769637240979E-030
  -3.3750000000000002E-002    -1.2259128743226937E-029
  -3.3700000000000001E-002    -1.3509661497025337E-029
  -3.3649999999999999E-002    -1.1542814382822533E-029
  -3.3599999999999998E-002    -4.7906164487827786E-030
  -3.3550000000000003E-002     7.7643627403584461E-030
  -3.3500000000000002E-002     2.5950027627606801E-029
  -3.3450000000000001E-002     4.7826358051471177E-029
  -3.3399999999999999E-002     6.9369899078258236E-029
  -3.3349999999999998E-002     8.4605130555077945E-029
  -3.3300000000000003E-002     8.6285530385152643E-029
  -3.3250000000000002E-002     6.7105339236888798E-029
  -3.3200000000000000E-002     2.1305957063208968E-029
  -3.3149999999999999E-002    -5.3522946440038263E-029
  -3.3099999999999997E-002    -1.5463192868913684E-028
  -3.3050000000000003E-002    -2.7241111001087823E-028
  -3.3000000000000002E-002    -3.8890069735271921E-028
  -3.2950000000000000E-002    -4.7675890437373180E-028
  -3.2899999999999999E-002    -4.9932759458662477E-028
  -3.2850000000000004E-002    -4.1303285077720869E-028
  -3.2800000000000003E-002    -1.7388801539280835E-028
  -3.2750000000000001E-002     2.5013392986791926E-028
  -3.2700000000000000E-002     8.6019035924050806E-028
  -3.2649999999999998E-002     1.6030320428320834E-027
  -3.2600000000000004E-002     2.3486822539684331E-027
  -3.2550000000000003E-002     2.8795247001223562E-027
  -3.2500000000000001E-002     2.9039288562205022E-027
  -3.2450000000000000E-002     2.1067224920773938E-027
  -3.2399999999999998E-002     2.4204474447401188E-028
  -3.2350000000000004E-002    -2.7393774271827297E-027
  -3.2300000000000002E-002    -6.5550817386915023E-027
  -3.2250000000000001E-002    -1.0493301807276633E-026
  -3.2199999999999999E-002    -1.3410137544702615E-026
  -3.2149999999999998E-002    -1.3874648286471622E-026
  -3.2100000000000004E-002    -1.0488853370579280E-026
  -3.2050000000000002E-002    -2.3601672493288746E-027
  -3.2000000000000001E-002     1.0361312206058731E-026
  -3.1949999999999999E-002     2.6032253259600334E-026
  -3.1899999999999998E-002     4.1342862371495603E-026
  -3.1850000000000003E-002     5.1600965767954628E-026
  -3.1800000000000002E-002     5.1576509350556514E-026
  -3.1750000000000000E-002     3.6866958941254442E-026
  -3.1699999999999999E-002     5.5596988781069123E-027
  -3.1649999999999998E-002    -4.0211410615434133E-026
  -3.1600000000000003E-002    -9.3330249554616179E-026
  -3.1550000000000002E-002    -1.4188443689537215E-025
  -3.1500000000000000E-002    -1.7079897733984109E-025
  -3.1449999999999999E-002    -1.6491492120782909E-025
  -3.1399999999999997E-002    -1.1308857148310029E-025
  -3.1350000000000003E-002    -1.2478097251833436E-026
  -3.1300000000000001E-002     1.2808536013635865E-025
  -3.1250000000000000E-002     2.8676248301569210E-025
  -3.1199999999999999E-002     4.3024280149375952E-025
  -3.1150000000000001E-002     5.1843270085075494E-025
  -3.1100000000000003E-002     5.1186771312703109E-025
  -3.1050000000000001E-002     3.8074272352845620E-025
  -3.1000000000000000E-002     1.1398595852562471E-025
  -3.0949999999999998E-002    -2.7334208313390233E-025
  -3.0900000000000000E-002    -7.3586133474642853E-025
  -3.0850000000000002E-002    -1.1980430232733459E-024
  -3.0800000000000001E-002    -1.5594726280278616E-024
  -3.0750000000000000E-002    -1.7056498927159831E-024
  -3.0699999999999998E-002    -1.5246147358373161E-024
  -3.0650000000000000E-002    -9.2943477137376337E-025
  -3.0600000000000002E-002     1.1414851942551877E-025
  -3.0550000000000001E-002     1.5573024181378675E-024
  -3.0499999999999999E-002     3.2400765491459467E-024
  -3.0449999999999998E-002     4.8744702282220316E-024
  -3.0400000000000000E-002     6.0504381194316129E-024
  -3.0350000000000002E-002     6.2776297273258492E-024
  -3.0300000000000001E-002     5.0723262779223024E-024
  -3.0249999999999999E-002     2.0898420196689008E-024
  -3.0200000000000001E-002    -2.7124527921431753E-024
  -3.0150000000000000E-002    -8.9151081793844615E-024
  -3.0100000000000002E-002    -1.5530654042024579E-023
  -3.0050000000000000E-002    -2.1011957197305403E-023
  -2.9999999999999999E-002    -2.3428409295848486E-023
  -2.9950000000000001E-002    -2.0835650958594057E-023
  -2.9899999999999999E-002    -1.1815347203518443E-023
  -2.9850000000000002E-002     3.9021613275941297E-024
  -2.9800000000000000E-002     2.4882676803774727E-023
  -2.9749999999999999E-002     4.7692756393328422E-023
  -2.9700000000000001E-002     6.7055257540952992E-023
  -2.9650000000000003E-002     7.6586518375285934E-023
  -2.9600000000000001E-002     7.0122856798166144E-023
  -2.9550000000000000E-002     4.3474210404125553E-023
  -2.9499999999999998E-002    -3.7383773720230642E-024
  -2.9450000000000000E-002    -6.6646579761979536E-023
  -2.9400000000000003E-002    -1.3463272867982912E-022
  -2.9350000000000001E-002    -1.9220397757702041E-022
  -2.9300000000000000E-002    -2.2144156149414528E-022
  -2.9249999999999998E-002    -2.0585236781072349E-022
  -2.9200000000000000E-002    -1.3502055827707686E-022
  -2.9150000000000002E-002    -9.0720213589762879E-024
  -2.9100000000000001E-002     1.5825451751557698E-022
  -2.9049999999999999E-002     3.3909253520373400E-022
  -2.8999999999999998E-002     4.9429076480339248E-022
  -2.8950000000000000E-002     5.7976442726963373E-022
  -2.8900000000000002E-002     5.5566858792903181E-022
  -2.8850000000000001E-002     3.9686103188846205E-022
  -2.8799999999999999E-002     1.0248146096744594E-022
  -2.8749999999999998E-002    -2.9777254271451131E-022
  -2.8700000000000000E-002    -7.4281380208850893E-022
  -2.8650000000000002E-002    -1.1461034421220356E-021
  -2.8600000000000000E-002    -1.4084421986128985E-021
  -2.8549999999999999E-002    -1.4362503319511005E-021
  -2.8500000000000001E-002    -1.1626076586600806E-021
  -2.8450000000000000E-002    -5.6732598428525768E-022
  -2.8400000000000002E-002     3.0807853275823109E-022
  -2.8350000000000000E-002     1.3543507441797943E-021
  -2.8299999999999999E-002     2.4002519320937870E-021
  -2.8250000000000001E-002     3.2313989687492338E-021
  -2.8200000000000003E-002     3.6215339572694130E-021
  -2.8150000000000001E-002     3.3734314937654440E-021
  -2.8100000000000000E-002     2.3645310489064391E-021
  -2.8049999999999999E-002     5.9045837210509086E-022
  -2.8000000000000001E-002    -1.8018657549213542E-021
  -2.7950000000000003E-002    -4.5005116142008031E-021
  -2.7900000000000001E-002    -7.0426509005647594E-021
  -2.7850000000000000E-002    -8.8626353015249494E-021
  -2.7799999999999998E-002    -9.3757368821081859E-021
  -2.7750000000000000E-002    -8.0925574200153520E-021
  -2.7700000000000002E-002    -4.7506642826946390E-021
  -2.7650000000000001E-002     5.5892974360413706E-022
  -2.7600000000000000E-002     7.3000976386693101E-021
  -2.7549999999999998E-002     1.4467448325661202E-020
  -2.7500000000000000E-002     2.0658524236139378E-020
  -2.7450000000000002E-002     2.4258542673780106E-020
  -2.7400000000000001E-002     2.3732519891153512E-020
  -2.7349999999999999E-002     1.7991752337030906E-020
  -2.7299999999999998E-002     6.7724877637976853E-021
  -2.7250000000000000E-002    -9.0587391446061500E-021
  -2.7200000000000002E-002    -2.7367929509470385E-020
  -2.7150000000000001E-002    -4.4867842488886881E-020
  -2.7099999999999999E-002    -5.7530813481868937E-020
  -2.7049999999999998E-002    -6.1288703613643000E-020
  -2.7000000000000000E-002    -5.2936063483696276E-020
  -2.6950000000000002E-002    -3.1080411585484872E-020
  -2.6900000000000000E-002     3.0696965998885559E-021
  -2.6849999999999999E-002     4.5303780116843645E-020
  -2.6800000000000001E-002     8.8586504196721477E-020
  -2.6749999999999999E-002     1.2391406099417880E-019
  -2.6700000000000002E-002     1.4181715484646562E-019
  -2.6650000000000000E-002     1.3432022323122628E-019
  -2.6599999999999999E-002     9.7019275275733385E-020
  -2.6550000000000001E-002     3.0840148702208582E-020
  -2.6500000000000003E-002    -5.6980619633111401E-020
  -2.6450000000000001E-002    -1.5306932756092310E-019
  -2.6400000000000000E-002    -2.3943815698968484E-019
  -2.6349999999999998E-002    -2.9629389361254007E-019
  -2.6300000000000000E-002    -3.0577790284023000E-019
  -2.6250000000000002E-002    -2.5602056453251905E-019
  -2.6200000000000001E-002    -1.4472156406747741E-019
  -2.6150000000000000E-002     1.8562991553020402E-020
  -2.6099999999999998E-002     2.1210936276001557E-019
  -2.6050000000000000E-002     4.0407697273148745E-019
  -2.6000000000000002E-002     5.5689349390964396E-019
  -2.5950000000000001E-002     6.3348480409297985E-019
  -2.5899999999999999E-002     6.0443990401360712E-019
  -2.5849999999999998E-002     4.5490208851418397E-019
  -2.5800000000000000E-002     1.8987304271126612E-019
  -2.5750000000000002E-002    -1.6326584981759804E-019
  -2.5700000000000001E-002    -5.5586966794423747E-019
  -2.5649999999999999E-002    -9.2312221826671697E-019
  -2.5599999999999998E-002    -1.1928173104367132E-018
  -2.5550000000000000E-002    -1.2968972380029306E-018
  -2.5500000000000002E-002    -1.1842446539736159E-018
  -2.5450000000000000E-002    -8.3280590266752741E-019
  -2.5399999999999999E-002    -2.5892584285506280E-019
  -2.5349999999999998E-002     4.7814534529382693E-019
  -2.5300000000000000E-002     1.2782314531804534E-018
  -2.5250000000000002E-002     2.0096506902074190E-018
  -2.5200000000000000E-002     2.5260372749479725E-018
  -2.5149999999999999E-002     2.6892976535627042E-018
  -2.5100000000000001E-002     2.3960979902513541E-018
  -2.5049999999999999E-002     1.6040222817497248E-018
  -2.5000000000000001E-002     3.5262935953340018E-019
  -2.4950000000000000E-002    -1.2256799436267489E-018
  -2.4899999999999999E-002    -2.9094849031741218E-018
  -2.4850000000000001E-002    -4.4097349163163937E-018
  -2.4800000000000003E-002    -5.4089151874283708E-018
  -2.4750000000000001E-002    -5.6147294687425454E-018
  -2.4700000000000000E-002    -4.8212971988753523E-018
  -2.4649999999999998E-002    -2.9675706399489721E-018
  -2.4600000000000000E-002    -1.8068086544226645E-019
  -2.4550000000000002E-002     3.2079474381626882E-018
  -2.4500000000000001E-002     6.6831441974708168E-018
  -2.4450000000000000E-002     9.6072216359254027E-018
  -2.4399999999999998E-002     1.1318363614108751E-017
  -2.4350000000000000E-002     1.1254178183504739E-017
  -2.4299999999999999E-002     9.0806617733174953E-018
  -2.4250000000000001E-002     4.8016154591870023E-018
  -2.4199999999999999E-002    -1.1773543234763767E-018
  -2.4150000000000001E-002    -8.0517743384532396E-018
  -2.4100000000000000E-002    -1.4699990865144894E-017
  -2.4049999999999998E-002    -1.9841449395481211E-017
  -2.4000000000000000E-002    -2.2253515816452403E-017
  -2.3949999999999999E-002    -2.1013900411979886E-017
  -2.3900000000000001E-002    -1.5725351744461966E-017
  -2.3850000000000000E-002    -6.6760588693311162E-018
  -2.3800000000000002E-002     5.1050223948231114E-018
  -2.3750000000000000E-002     1.7923993616748459E-017
  -2.3699999999999999E-002     2.9633195879831449E-017
  -2.3650000000000001E-002     3.7956588804730365E-017
  -2.3599999999999999E-002     4.0883855047070382E-017
  -2.3550000000000001E-002     3.7069439421514173E-017
  -2.3500000000000000E-002     2.6164623253962847E-017
  -2.3449999999999999E-002     9.0150579410336022E-018
  -2.3400000000000001E-002    -1.2326693570520677E-017
  -2.3349999999999999E-002    -3.4796485632468058E-017
  -2.3300000000000001E-002    -5.4710826036392569E-017
  -2.3250000000000000E-002    -6.8310734668181066E-017
  -2.3199999999999998E-002    -7.2382682417289674E-017
  -2.3150000000000000E-002    -6.4863142973234116E-017
  -2.3099999999999999E-002    -4.5327739465389570E-017
  -2.3050000000000001E-002    -1.5275349455990017E-017
  -2.3000000000000000E-002     2.1859310444836865E-017
  -2.2950000000000002E-002     6.0997144350181944E-017
  -2.2900000000000000E-002     9.6001458309381017E-017
  -2.2849999999999999E-002     1.2050814501320716E-016
  -2.2800000000000001E-002     1.2890654303017763E-016
  -2.2749999999999999E-002     1.1734501143027403E-016
  -2.2700000000000001E-002     8.4613542154500259E-017
  -2.2650000000000000E-002     3.2750792673964766E-017
  -2.2599999999999999E-002    -3.2762873546310427E-017
  -2.2550000000000001E-002    -1.0332764902888984E-016
  -2.2499999999999999E-002    -1.6810335852942256E-016
  -2.2450000000000001E-002    -2.1540777676862254E-016
  -2.2400000000000000E-002    -2.3450436345283666E-016
  -2.2349999999999998E-002    -2.1755763506823096E-016
  -2.2300000000000000E-002    -1.6145883609219195E-016
  -2.2249999999999999E-002    -6.9182874849867120E-017
  -2.2200000000000001E-002     4.9651372028890144E-017
  -2.2150000000000000E-002     1.7927186033491727E-016
  -2.2100000000000002E-002     2.9941088577567796E-016
  -2.2050000000000000E-002     3.8805420292368141E-016
  -2.1999999999999999E-002     4.2498830516436029E-016
  -2.1950000000000001E-002     3.9564734682743476E-016
  -2.1899999999999999E-002     2.9460943343560557E-016
  -2.1850000000000001E-002     1.2804000845567107E-016
  -2.1800000000000000E-002    -8.5546283949929039E-017
  -2.1749999999999999E-002    -3.1662357339523565E-016
  -2.1700000000000001E-002    -5.2818222587592041E-016
  -2.1649999999999999E-002    -6.8113757187076905E-016
  -2.1600000000000001E-002    -7.4090858637870315E-016
  -2.1550000000000000E-002    -6.8413219630848845E-016
  -2.1499999999999998E-002    -5.0430662321215722E-016
  -2.1450000000000000E-002    -2.1519570924194851E-016
  -2.1399999999999999E-002     1.4891022447522845E-016
  -2.1350000000000001E-002     5.3651290355993914E-016
  -2.1299999999999999E-002     8.8563584006376628E-016
  -2.1250000000000002E-002     1.1331605924020416E-015
  -2.1200000000000000E-002     1.2254127155306035E-015
  -2.1149999999999999E-002     1.1282816261869931E-015
  -2.1100000000000001E-002     8.3508684021834024E-016
  -2.1049999999999999E-002     3.7063349017830922E-016
  -2.1000000000000001E-002    -2.0956647738094626E-016
  -2.0950000000000000E-002    -8.2519544357967676E-016
  -2.0899999999999998E-002    -1.3816052497224662E-015
  -2.0850000000000000E-002    -1.7835335254470192E-015
  -2.0799999999999999E-002    -1.9501248229682838E-015
  -2.0750000000000001E-002    -1.8289964356537801E-015
  -2.0700000000000000E-002    -1.4071189003753338E-015
  -2.0649999999999998E-002    -7.1662718310161736E-016
  -2.0600000000000000E-002     1.6566408978890261E-016
  -2.0549999999999999E-002     1.1254404066669754E-015
  -2.0500000000000001E-002     2.0242434269932437E-015
  -2.0449999999999999E-002     2.7176081111995186E-015
  -2.0400000000000001E-002     3.0758549302717677E-015
  -2.0350000000000000E-002     3.0048943722616380E-015
  -2.0299999999999999E-002     2.4641715376240347E-015
  -2.0250000000000001E-002     1.4789558441437816E-015
  -2.0199999999999999E-002     1.4460928106164933E-016
  -2.0150000000000001E-002    -1.3787876817108576E-015
  -2.0100000000000000E-002    -2.8819966878778231E-015
  -2.0049999999999998E-002    -4.1315946232816137E-015
  -2.0000000000000000E-002    -4.9021162047669089E-015
  -1.9949999999999999E-002    -5.0116875745820296E-015
  -1.9900000000000001E-002    -4.3562787439045200E-015
  -1.9850000000000000E-002    -2.9370312935866651E-015
  -1.9799999999999998E-002    -8.7518415236950327E-016
  -1.9750000000000000E-002     1.5898740149526104E-015
  -1.9699999999999999E-002     4.1219048848822942E-015
  -1.9650000000000001E-002     6.3281448931857819E-015
  -1.9599999999999999E-002     7.8149928353194475E-015
  -1.9550000000000001E-002     8.2520955885334186E-015
  -1.9500000000000000E-002     7.4352346241627219E-015
  -1.9449999999999999E-002     5.3370358620922141E-015
  -1.9400000000000001E-002     2.1349820822762426E-015
  -1.9349999999999999E-002    -1.7913627854247849E-015
  -1.9300000000000001E-002    -5.8976791299979681E-015
  -1.9250000000000000E-002    -9.5448658958176811E-015
  -1.9199999999999998E-002    -1.2093685422948085E-014
  -1.9150000000000000E-002    -1.3010672350361371E-014
  -1.9099999999999999E-002    -1.1968281221564212E-014
  -1.9050000000000001E-002    -8.9213348152495752E-015
  -1.9000000000000000E-002    -4.1441131546788962E-015
  -1.8949999999999998E-002     1.7822349219772815E-015
  -1.8900000000000000E-002     8.0345415250523617E-015
  -1.8849999999999999E-002     1.3658447392284696E-014
  -1.8800000000000001E-002     1.7710467061214993E-014
  -1.8749999999999999E-002     1.9410092956249867E-014
  -1.8700000000000001E-002     1.8277566804505483E-014
  -1.8650000000000000E-002     1.4233793116017434E-014
  -1.8599999999999998E-002     7.6438597301632378E-015
  -1.8550000000000001E-002    -7.0619053212433580E-016
  -1.8499999999999999E-002    -9.6993428689378956E-015
  -1.8450000000000001E-002    -1.8033858451746839E-014
  -1.8400000000000000E-002    -2.4406145273972863E-014
  -1.8349999999999998E-002    -2.7704527121384732E-014
  -1.8300000000000000E-002    -2.7185842774505605E-014
  -1.8249999999999999E-002    -2.2608686771316160E-014
  -1.8200000000000001E-002    -1.4302690158243817E-014
  -1.8149999999999999E-002    -3.1614964827361400E-015
  -1.8100000000000002E-002     9.4429771524725496E-015
  -1.8050000000000000E-002     2.1817400417053106E-014
  -1.7999999999999999E-002     3.2158289379448757E-014
  -1.7950000000000001E-002     3.8793674233739473E-014
  -1.7899999999999999E-002     4.0426295619796593E-014
  -1.7850000000000001E-002     3.6347446444709320E-014
  -1.7800000000000000E-002     2.6591415596091082E-014
  -1.7749999999999998E-002     1.2004741330197480E-014
  -1.7700000000000000E-002    -5.7882889391009733E-015
  -1.7649999999999999E-002    -2.4531683442479589E-014
  -1.7600000000000001E-002    -4.1589790113966359E-014
  -1.7550000000000000E-002    -5.4284539284584557E-014
  -1.7499999999999998E-002    -6.0281695339692241E-014
  -1.7450000000000000E-002    -5.7976543804632564E-014
  -1.7399999999999999E-002    -4.6821308449277226E-014
  -1.7350000000000001E-002    -2.7535419421587620E-014
  -1.7299999999999999E-002    -2.1487946422855650E-015
  -1.7250000000000001E-002     2.6153076348577271E-014
  -1.7200000000000000E-002     5.3385674956627660E-014
  -1.7149999999999999E-002     7.5293794098937911E-014
  -1.7100000000000001E-002     8.7988371980668871E-014
  -1.7049999999999999E-002     8.8600686765778821E-014
  -1.7000000000000001E-002     7.5847393967775943E-014
  -1.6950000000000000E-002     5.0401312115993510E-014
  -1.6899999999999998E-002     1.4983419036882699E-014
  -1.6850000000000000E-002    -2.5869910488577958E-014
  -1.6799999999999999E-002    -6.6359078951453313E-014
  -1.6750000000000001E-002    -1.0023142554611011E-013
  -1.6700000000000000E-002    -1.2173740212937616E-013
  -1.6649999999999998E-002    -1.2658540981827167E-013
  -1.6600000000000000E-002    -1.1273592703655926E-013
  -1.6549999999999999E-002    -8.0891315745983645E-014
  -1.6500000000000001E-002    -3.4579050632916076E-014
  -1.6449999999999999E-002     2.0210623084948131E-014
  -1.6400000000000001E-002     7.5799564556995745E-014
  -1.6350000000000000E-002     1.2390540449997186E-013
  -1.6299999999999999E-002     1.5687515724058689E-013
  -1.6250000000000001E-002     1.6887989900531761E-013
  -1.6199999999999999E-002     1.5688271831291198E-013
  -1.6150000000000001E-002     1.2122373809732727E-013
  -1.6100000000000000E-002     6.5723591982160087E-014
  -1.6049999999999998E-002    -2.7207367107230462E-015
  -1.6000000000000000E-002    -7.4997721343836646E-014
  -1.5949999999999999E-002    -1.4098415665825579E-013
  -1.5900000000000001E-002    -1.9092476927853111E-013
  -1.5850000000000000E-002    -2.1680182733301727E-013
  -1.5799999999999998E-002    -2.1351156885770702E-013
  -1.5750000000000000E-002    -1.7969174574676219E-013
  -1.5699999999999999E-002    -1.1808917505597662E-013
  -1.5650000000000001E-002    -3.5411919178293494E-014
  -1.5599999999999999E-002     5.8331378469267182E-014
  -1.5550000000000001E-002     1.5094558089358694E-013
  -1.5500000000000000E-002     2.2950715205088181E-013
  -1.5449999999999998E-002     2.8201516864005726E-013
  -1.5400000000000000E-002     2.9905276873572993E-013
  -1.5349999999999999E-002     2.7525913272053173E-013
  -1.5300000000000001E-002     2.1041084156539050E-013
  -1.5250000000000000E-002     1.0993207309793060E-013
  -1.5199999999999998E-002    -1.5301887063262031E-014
  -1.5150000000000000E-002    -1.4993048199421097E-013
  -1.5099999999999999E-002    -2.7580973960172464E-013
  -1.5050000000000001E-002    -3.7430547579814908E-013
  -1.4999999999999999E-002    -4.2892088758556363E-013
  -1.4949999999999998E-002    -4.2791004014641984E-013
  -1.4900000000000000E-002    -3.6647593365975715E-013
  -1.4849999999999999E-002    -2.4815950518698617E-013
  -1.4800000000000001E-002    -8.5102350770848703E-014
  -1.4749999999999999E-002     1.0299171667201560E-013
  -1.4700000000000001E-002     2.9117360333446948E-013
  -1.4650000000000000E-002     4.5260438194359616E-013
  -1.4599999999999998E-002     5.6250479407968864E-013
  -1.4550000000000000E-002     6.0210596446196501E-013
  -1.4499999999999999E-002     5.6194976716606879E-013
  -1.4450000000000001E-002     4.4394004127794696E-013
  -1.4400000000000000E-002     2.6171025549155994E-013
  -1.4349999999999998E-002     3.9129949365270022E-014
  -1.4300000000000000E-002    -1.9292085650392116E-013
  -1.4249999999999999E-002    -4.0107393392260458E-013
  -1.4200000000000001E-002    -5.5461093239060303E-013
  -1.4149999999999999E-002    -6.3039804707217030E-013
  -1.4099999999999998E-002    -6.1679656037431374E-013
  -1.4050000000000000E-002    -5.1587214064653045E-013
  -1.3999999999999999E-002    -3.4349013561876608E-013
  -1.3950000000000001E-002    -1.2722372985004596E-013
  -1.3899999999999999E-002     9.7639818165105933E-014
  -1.3850000000000001E-002     2.9340016646327009E-013
  -1.3800000000000000E-002     4.2574515365726337E-013
  -1.3749999999999998E-002     4.6917061799373121E-013
  -1.3700000000000000E-002     4.1120159842140397E-013
  -1.3649999999999999E-002     2.5479138986715601E-013
  -1.3600000000000001E-002     1.8552834698339799E-014
  -1.3550000000000000E-002    -2.6520742709251251E-013
  -1.3499999999999998E-002    -5.5438010789658164E-013
  -1.3450000000000000E-002    -8.0235662909883715E-013
  -1.3399999999999999E-002    -9.6407437470355718E-013
  -1.3350000000000001E-002    -1.0020721043036198E-012
  -1.3299999999999999E-002    -8.9184911570547025E-013
  -1.3249999999999998E-002    -6.2591665533735141E-013
  -1.3200000000000000E-002    -2.1607193857564844E-013
  -1.3149999999999998E-002     3.0640393164132715E-013
  -1.3100000000000001E-002     8.9273763698931487E-013
  -1.3049999999999999E-002     1.4807607797848148E-012
  -1.3000000000000001E-002     2.0008276484872485E-012
  -1.2950000000000000E-002     2.3830601737829187E-012
  -1.2899999999999998E-002     2.5652398471876526E-012
  -1.2850000000000000E-002     2.5004991720974495E-012
  -1.2799999999999999E-002     2.1638856278100447E-012