  -4.0000000000000001E-002     0.0000000000000000     
  -3.9949999999999999E-002     0.0000000000000000     
  -3.9899999999999998E-002     4.1631428984257602E-013
  -3.9850000000000003E-002     1.8956521889584228E-012
  -3.9800000000000002E-002     4.7850532745265590E-012
  -3.9750000000000001E-002     8.3445554416857281E-012
  -3.9699999999999999E-002     1.0262689799940022E-011
  -3.9649999999999998E-002     7.1800560561631932E-012
  -3.9600000000000003E-002    -3.6509493855988538E-012
  -3.9550000000000002E-002    -2.2426498547109072E-011
  -3.9500000000000000E-002    -4.5951699216904863E-011
  -3.9449999999999999E-002    -6.8711937933176972E-011
  -3.9399999999999998E-002    -8.5292648182436210E-011
  -3.9350000000000003E-002    -9.2493434672874645E-011
  -3.9300000000000002E-002    -8.9650841560523739E-011
  -3.9250000000000000E-002    -7.7083841305274037E-011
  -3.9199999999999999E-002    -5.4114709519389762E-011
  -3.9150000000000004E-002    -1.8529701523350532E-011
  -3.9100000000000003E-002     3.1741486108893924E-011
  -3.9050000000000001E-002     9.5689528543806571E-011
  -3.9000000000000000E-002     1.6704712370207700E-010
  -3.8949999999999999E-002     2.3449910386946528E-010
  -3.8900000000000004E-002     2.8447284968925144E-010
  -3.8850000000000003E-002     3.0529038395296755E-010
  -3.8800000000000001E-002     2.9092874111325800E-010
  -3.8750000000000000E-002     2.4301402346700242E-010
  -3.8699999999999998E-002     1.7041228637250696E-010
  -3.8650000000000004E-002     8.6417797575074314E-011
  -3.8600000000000002E-002     4.1032696385695881E-012
  -3.8550000000000001E-002    -6.8860580494418861E-011
  -3.8500000000000000E-002    -1.3380699125123140E-010
  -3.8449999999999998E-002    -2.0081950721605171E-010
  -3.8400000000000004E-002    -2.8353968603655381E-010
  -3.8350000000000002E-002    -3.9042059002798210E-010
  -3.8300000000000001E-002    -5.1631384622973252E-010
  -3.8249999999999999E-002    -6.3909148202777505E-010
  -3.8199999999999998E-002    -7.2418078726459083E-010
  -3.8150000000000003E-002    -7.3611717714705406E-010
  -3.8100000000000002E-002    -6.5253594086856054E-010
  -3.8050000000000000E-002    -4.7452193330397645E-010
  -3.7999999999999999E-002    -2.2872215394525078E-010
  -3.7949999999999998E-002     3.9804084306081086E-011
  -3.7900000000000003E-002     2.8124882250260036E-010
  -3.7850000000000002E-002     4.5616196056198656E-010
  -3.7800000000000000E-002     5.4669441329202147E-010
  -3.7749999999999999E-002     5.6020911829542465E-010
  -3.7699999999999997E-002     5.2408222714005045E-010
  -3.7650000000000003E-002     4.7345584214678672E-010
  -3.7600000000000001E-002     4.3626704885508822E-010
  -3.7550000000000000E-002     4.2119321458544119E-010
  -3.7499999999999999E-002     4.1339093903192665E-010
  -3.7449999999999997E-002     3.7994897504401904E-010
  -3.7400000000000003E-002     2.8287092372980085E-010
  -3.7350000000000001E-002     9.4133219488208194E-011
  -3.7300000000000000E-002    -1.9332210589780145E-010
  -3.7249999999999998E-002    -5.6254636060775235E-010
  -3.7200000000000004E-002    -9.7758027040000925E-010
  -3.7150000000000002E-002    -1.3934030415455060E-009
  -3.7100000000000001E-002    -1.7667259530513118E-009
  -3.7050000000000000E-002    -2.0645663303250936E-009
  -3.6999999999999998E-002    -2.2693503583243221E-009
  -3.6950000000000004E-002    -2.3805510791241426E-009
  -3.6900000000000002E-002    -2.4132294073796200E-009
  -3.6850000000000001E-002    -2.3938760838766563E-009
  -3.6799999999999999E-002    -2.3543187155494113E-009
  -3.6749999999999998E-002    -2.3250938499864833E-009
  -3.6700000000000003E-002    -2.3299634766297939E-009
  -3.6650000000000002E-002    -2.3826792369964363E-009
  -3.6600000000000001E-002    -2.4860023622056127E-009
  -3.6549999999999999E-002    -2.6322901036793211E-009
  -3.6499999999999998E-002    -2.8051861275167614E-009
  -3.6450000000000003E-002    -2.9827013290711444E-009
  -3.6400000000000002E-002    -3.1421343783485747E-009
  -3.6350000000000000E-002    -3.2662092464363378E-009
  -3.6299999999999999E-002    -3.3481299282109026E-009
  -3.6249999999999998E-002    -3.3925438008950246E-009
  -3.6200000000000003E-002    -3.4107888561304485E-009
  -3.6150000000000002E-002    -3.4118986720616946E-009
  -3.6100000000000000E-002    -3.3936693893544115E-009
  -3.6049999999999999E-002    -3.3386202664897114E-009
  -3.6000000000000004E-002    -3.2173667235994838E-009
  -3.5950000000000003E-002    -2.9981366724595529E-009
  -3.5900000000000001E-002    -2.6582241696880947E-009
  -3.5850000000000000E-002    -2.1926137241156098E-009
  -3.5799999999999998E-002    -1.6166726601395638E-009
  -3.5750000000000004E-002    -9.6236690481017613E-010
  -3.5700000000000003E-002    -2.6953093780520988E-010
  -3.5650000000000001E-002     4.2511674218249292E-010
  -3.5600000000000000E-002     1.0980218776314130E-009
  -3.5549999999999998E-002     1.7446938806319482E-009
  -3.5500000000000004E-002     2.3790112041735030E-009
  -3.5450000000000002E-002     3.0254749609740909E-009
  -3.5400000000000001E-002     3.7068487542102280E-009
  -3.5349999999999999E-002     4.4320780833544366E-009
  -3.5299999999999998E-002     5.1897874209868044E-009
  -3.5250000000000004E-002     5.9503774515321113E-009
  -3.5200000000000002E-002     6.6758540532026137E-009
  -3.5150000000000001E-002     7.3331800849646802E-009
  -3.5099999999999999E-002     7.9058640760041401E-009
  -3.5049999999999998E-002     8.3999499113877108E-009
  -3.5000000000000003E-002     8.8431692879936516E-009
  -3.4950000000000002E-002     9.2782382223620258E-009
  -3.4900000000000000E-002     9.7523060696457391E-009
  -3.4849999999999999E-002     1.0304794744355914E-008
  -3.4799999999999998E-002     1.0956131333209279E-008
  -3.4750000000000003E-002     1.1700176677774478E-008
  -3.4700000000000002E-002     1.2503029251471385E-008
  -3.4650000000000000E-002     1.3309504830620045E-008
  -3.4599999999999999E-002     1.4056170681591039E-008
  -3.4549999999999997E-002     1.4687423412887014E-008
  -3.4500000000000003E-002     1.5170049531904952E-008
  -3.4450000000000001E-002     1.5502351290369560E-008
  -3.4400000000000000E-002     1.5715755710398603E-008
  -3.4349999999999999E-002     1.5868542598895149E-008
  -3.4299999999999997E-002     1.6032688551824398E-008
  -3.4250000000000003E-002     1.6275988852533420E-008
  -3.4200000000000001E-002     1.6643181268272176E-008
  -3.4150000000000000E-002     1.7141484336074043E-008
  -3.4099999999999998E-002     1.7736307111746214E-008
  -3.4049999999999997E-002     1.8360685338527842E-008
  -3.4000000000000002E-002     1.8937137666454020E-008
  -3.3950000000000001E-002     1.9405177385440348E-008
  -3.3900000000000000E-002     1.9744547035695107E-008
  -3.3849999999999998E-002     1.9985363492913125E-008
  -3.3799999999999997E-002     2.0201287887649142E-008
  -3.3750000000000002E-002     2.0488243589604334E-008
  -3.3700000000000001E-002     2.0936035394011005E-008
  -3.3649999999999999E-002     2.1601841726032838E-008
  -3.3599999999999998E-002     2.2493277064974846E-008
  -3.3550000000000003E-002     2.3565545441630834E-008
  -3.3500000000000002E-002     2.4733464814467187E-008
  -3.3450000000000001E-002     2.5895349348670330E-008
  -3.3399999999999999E-002     2.6962195548449346E-008
  -3.3349999999999998E-002     2.7883494010776646E-008
  -3.3300000000000003E-002     2.8661398544625154E-008
  -3.3250000000000002E-002     2.9348434158778985E-008
  -3.3200000000000000E-002     3.0029739677227635E-008
  -3.3149999999999999E-002     3.0796285898275127E-008
  -3.3099999999999997E-002     3.1718245779796083E-008
  -3.3050000000000003E-002     3.2826674268753220E-008
  -3.3000000000000002E-002     3.4107807157368191E-008
  -3.2950000000000000E-002     3.5509862889473216E-008
  -3.2899999999999999E-002     3.6959053087940166E-008
  -3.2850000000000004E-002     3.8380009889860888E-008
  -3.2800000000000003E-002     3.9715596097947786E-008
  -3.2750000000000001E-002     4.0941350949205980E-008
  -3.2700000000000000E-002     4.2070957024579966E-008
  -3.2649999999999998E-002     4.3151064021066193E-008
  -3.2600000000000004E-002     4.4247067612558932E-008
  -3.2550000000000003E-002     4.5424200075776316E-008
  -3.2500000000000001E-002     4.6729899818530222E-008
  -3.2450000000000000E-002     4.8182422236152570E-008
  -3.2399999999999998E-002     4.9768138756519626E-008
  -3.2350000000000004E-002     5.1447160707658171E-008
  -3.2300000000000002E-002     5.3165114458483254E-008
  -3.2250000000000001E-002     5.4868145850333526E-008
  -3.2199999999999999E-002     5.6518061693250569E-008
  -3.2149999999999998E-002     5.8104152580231357E-008
  -3.2100000000000004E-002     5.9647971048856615E-008
  -3.2050000000000002E-002     6.1198723500924133E-008
  -3.2000000000000001E-002     6.2819467204687287E-008
  -3.1949999999999999E-002     6.4568284965114062E-008
  -3.1899999999999998E-002     6.6480986512896158E-008
  -3.1850000000000003E-002     6.8561646518747582E-008
  -3.1800000000000002E-002     7.0784137722548712E-008
  -3.1750000000000000E-002     7.3103072434004554E-008
  -3.1699999999999999E-002     7.5469350650595179E-008
  -3.1649999999999998E-002     7.7844523325261496E-008
  -3.1600000000000003E-002     8.0209929803470965E-008
  -3.1550000000000002E-002     8.2569048712209328E-008
  -3.1500000000000000E-002     8.4943930490896072E-008
  -3.1449999999999999E-002     8.7367531521474125E-008
  -3.1399999999999997E-002     8.9874512929997924E-008
  -3.1350000000000003E-002     9.2493065192767630E-008
  -3.1300000000000001E-002     9.5239927121622745E-008
  -3.1250000000000000E-002     9.8119810772569269E-008
  -3.1199999999999999E-002     1.0112854146241573E-007
  -3.1150000000000001E-002     1.0425774271804325E-007
  -3.1100000000000003E-002     1.0749850972630229E-007
  -3.1050000000000001E-002     1.1084263744604283E-007
  -3.1000000000000000E-002     1.1428186279705813E-007
  -3.0949999999999998E-002     1.1780694625431670E-007
  -3.0900000000000000E-002     1.2140820846622232E-007
  -3.0850000000000002E-002     1.2507780713228915E-007
  -3.0800000000000001E-002     1.2881252512895018E-007
  -3.0750000000000000E-002     1.3261562553439112E-007
  -3.0699999999999998E-002     1.3649684937525499E-007
  -3.0650000000000000E-002     1.4047076292760627E-007
  -3.0600000000000002E-002     1.4455409119466053E-007
  -3.0550000000000001E-002     1.4876257339661667E-007
  -3.0499999999999999E-002     1.5310741290916420E-007
  -3.0449999999999998E-002     1.5759186548796712E-007
  -3.0400000000000000E-002     1.6220940344887217E-007
  -3.0350000000000002E-002     1.6694494339781908E-007
  -3.0300000000000001E-002     1.7177989164798782E-007
  -3.0249999999999999E-002     1.7669979357766650E-007
  -3.0200000000000001E-002     1.8170162168742531E-007
  -3.0150000000000000E-002     1.8679745783093000E-007
  -3.0100000000000002E-002     1.9201309734944979E-007
  -3.0050000000000000E-002     1.9738221406559560E-007
  -2.9999999999999999E-002     2.0293886785306547E-007
  -2.9950000000000001E-002     2.0871058156802968E-007
  -2.9899999999999999E-002     2.1471363033964892E-007
  -2.9850000000000002E-002     2.2095062144400345E-007
  -2.9800000000000000E-002     2.2741007510277120E-007
  -2.9749999999999999E-002     2.3406838563742649E-007
  -2.9700000000000001E-002     2.4089444810322523E-007
  -2.9650000000000003E-002     2.4785693291864438E-007
  -2.9600000000000001E-002     2.5493264515704852E-007
  -2.9550000000000000E-002     2.6211354013596121E-007
  -2.9499999999999998E-002     2.6940987507907481E-007
  -2.9450000000000000E-002     2.7684822302179718E-007
  -2.9400000000000003E-002     2.8446479320382155E-007
  -2.9350000000000001E-002     2.9229648787075856E-007
  -2.9300000000000000E-002     3.0037231098502769E-007
  -2.9249999999999998E-002     3.0870764628293976E-007
  -2.9200000000000000E-002     3.1730325054821947E-007
  -2.9150000000000002E-002     3.2614930248340631E-007
  -2.9100000000000001E-002     3.3523255074584073E-007
  -2.9049999999999999E-002     3.4454467675157462E-007
  -2.8999999999999998E-002     3.5408772109375644E-007
  -2.8950000000000000E-002     3.6387491589529898E-007
  -2.8900000000000002E-002     3.7392653817240525E-007
  -2.8850000000000001E-002     3.8426279029870001E-007
  -2.8799999999999999E-002     3.9489759093419625E-007
  -2.8749999999999998E-002     4.0583542724117449E-007
  -2.8700000000000000E-002     4.1707229933523827E-007
  -2.8650000000000002E-002     4.2859925120655306E-007
  -2.8600000000000000E-002     4.4040623643913641E-007
  -2.8549999999999999E-002     4.5248547864621335E-007
  -2.8500000000000001E-002     4.6483317875767759E-007
  -2.8450000000000000E-002     4.7745099132336221E-007
  -2.8400000000000002E-002     4.9034664846699469E-007
  -2.8350000000000000E-002     5.0353341486375000E-007
  -2.8299999999999999E-002     5.1702853841112571E-007
  -2.8250000000000001E-002     5.3084999372456558E-007
  -2.8200000000000003E-002     5.4501376663981114E-007
  -2.8150000000000001E-002     5.5953287186317191E-007
  -2.8100000000000000E-002     5.7441851724581319E-007
  -2.8049999999999999E-002     5.8968301545719911E-007
  -2.8000000000000001E-002     6.0534197054635038E-007
  -2.7950000000000003E-002     6.2141355521102146E-007
  -2.7900000000000001E-002     6.3791572166681020E-007
  -2.7850000000000000E-002     6.5486218727581957E-007
  -2.7799999999999998E-002     6.7225919060419272E-007
  -2.7750000000000000E-002     6.9010504810846952E-007
  -2.7700000000000002E-002     7.0839211545808680E-007
  -2.7650000000000001E-002     7.2711068925574287E-007
  -2.7600000000000000E-002     7.4625321630512781E-007
  -2.7549999999999998E-002     7.6581797292500637E-007
  -2.7500000000000000E-002     7.8581088944006947E-007
  -2.7450000000000002E-002     8.0624581017503444E-007
  -2.7400000000000001E-002     8.2714308144226426E-007
  -2.7349999999999999E-002     8.4852664756791865E-007
  -2.7299999999999998E-002     8.7042083565844831E-007
  -2.7250000000000000E-002     8.9284759115045582E-007
  -2.7200000000000002E-002     9.1582455649852115E-007
  -2.7150000000000001E-002     9.3936407973311495E-007
  -2.7099999999999999E-002     9.6347308656276716E-007
  -2.7049999999999998E-002     9.8815483157716536E-007
  -2.7000000000000000E-002     1.0134116146604001E-006
  -2.6950000000000002E-002     1.0392487395082120E-006
  -2.6900000000000000E-002     1.0656787180847066E-006
  -2.6849999999999999E-002     1.0927223060333462E-006
  -2.6800000000000001E-002     1.1204068225069808E-006
  -2.6749999999999999E-002     1.1487600400863616E-006
  -2.6700000000000002E-002     1.1778032220853343E-006
  -2.6650000000000000E-002     1.2075468756404765E-006
  -2.6599999999999999E-002     1.2379906262459988E-006
  -2.6550000000000001E-002     1.2691286790255734E-006
  -2.6500000000000003E-002     1.3009569431138638E-006
  -2.6450000000000001E-002     1.3334792413775448E-006
  -2.6400000000000000E-002     1.3667101069244374E-006
  -2.6349999999999998E-002     1.4006728766695548E-006
  -2.6300000000000000E-002     1.4353967145262008E-006
  -2.6250000000000002E-002     1.4709119585829807E-006
  -2.6200000000000001E-002     1.5072467823234961E-006
  -2.6150000000000000E-002     1.5444242068581620E-006
  -2.6099999999999998E-002     1.5824603439172858E-006
  -2.6050000000000000E-002     1.6213640854909440E-006
  -2.6000000000000002E-002     1.6611394026359401E-006
  -2.5950000000000001E-002     1.7017884645597800E-006
  -2.5899999999999999E-002     1.7433175278805031E-006
  -2.5849999999999998E-002     1.7857402469056389E-006
  -2.5800000000000000E-002     1.8290787538839156E-006
  -2.5750000000000002E-002     1.8733621908646720E-006
  -2.5700000000000001E-002     1.9186222246461708E-006
  -2.5649999999999999E-002     1.9648885205038020E-006
  -2.5599999999999998E-002     2.0121853469790718E-006
  -2.5550000000000000E-002     2.0605298951985696E-006
  -2.5500000000000002E-002     2.1099338073303007E-006
  -2.5450000000000000E-002     2.1604056441871801E-006
  -2.5399999999999999E-002     2.2119553377470198E-006
  -2.5349999999999998E-002     2.2645975468331104E-006
  -2.5300000000000000E-002     2.3183540037412925E-006
  -2.5250000000000002E-002     2.3732524939925275E-006
  -2.5200000000000000E-002     2.4293245456035679E-006
  -2.5149999999999999E-002     2.4866014841455960E-006
  -2.5100000000000001E-002     2.5451116826993860E-006
  -2.5049999999999999E-002     2.6048781679380089E-006
  -2.5000000000000001E-002     2.6659197039187103E-006
  -2.4950000000000000E-002     2.7282501922535470E-006
  -2.4899999999999999E-002     2.7918800254202302E-006
  -2.4850000000000001E-002     2.8568185202060672E-006
  -2.4800000000000003E-002     2.9230777844835159E-006
  -2.4750000000000001E-002     2.9906765332424584E-006
  -2.4700000000000000E-002     3.0596433288015620E-006
  -2.4649999999999998E-002     3.1300176872173918E-006
  -2.4600000000000000E-002     3.2018454680840280E-006
  -2.4550000000000002E-002     3.2751716406229792E-006
  -2.4500000000000001E-002     3.3500338823577232E-006
  -2.4450000000000000E-002     3.4264584600424582E-006
  -2.4399999999999998E-002     3.5044630015554258E-006
  -2.4350000000000000E-002     3.5840621600199519E-006
  -2.4299999999999999E-002     3.6652723318777091E-006
  -2.4250000000000001E-002     3.7481148276161702E-006
  -2.4199999999999999E-002     3.8326158587153092E-006
  -2.4150000000000001E-002     3.9188044448022402E-006
  -2.4100000000000000E-002     4.0067099209144768E-006
  -2.4049999999999998E-002     4.0963601881980857E-006
  -2.4000000000000000E-002     4.1877839101674595E-006
  -2.3949999999999999E-002     4.2810103712704981E-006
  -2.3900000000000001E-002     4.3760700233939005E-006
  -2.3850000000000000E-002     4.4729937925490456E-006
  -2.3800000000000002E-002     4.5718134981766382E-006
  -2.3750000000000000E-002     4.6725621028906398E-006
  -2.3699999999999999E-002     4.7752729216115071E-006
  -2.3650000000000001E-002     4.8799805995458859E-006
  -2.3599999999999999E-002     4.9867192732574497E-006
  -2.3550000000000001E-002     5.0955231268314594E-006
  -2.3500000000000000E-002     5.2064252476883291E-006
  -2.3449999999999999E-002     5.3194585325224783E-006
  -2.3400000000000001E-002     5.4346553293227177E-006
  -2.3349999999999999E-002     5.5520500926893200E-006
  -2.3300000000000001E-002     5.6716788667444984E-006
  -2.3250000000000000E-002     5.7935806890003503E-006
  -2.3199999999999998E-002     5.9177972260248759E-006
  -2.3150000000000000E-002     6.0443705173080140E-006
  -2.3099999999999999E-002     6.1733405350799963E-006
  -2.3050000000000001E-002     6.3047415423393943E-006
  -2.3000000000000000E-002     6.4385993044437484E-006
  -2.2950000000000002E-002     6.5749317376006664E-006
  -2.2900000000000000E-002     6.7137536214917697E-006
  -2.2849999999999999E-002     6.8550849354306315E-006
  -2.2800000000000001E-002     6.9989553370987322E-006
  -2.2749999999999999E-002     7.1454057306579621E-006
  -2.2700000000000001E-002     7.2944868775479811E-006
  -2.2650000000000000E-002     7.4462539179768812E-006
  -2.2599999999999999E-002     7.6007617573460784E-006
  -2.2550000000000001E-002     7.7580634933544705E-006
  -2.2499999999999999E-002     7.9182115131357307E-006
  -2.2450000000000001E-002     8.0812548434883761E-006
  -2.2400000000000000E-002     8.2472372720207372E-006
  -2.2349999999999998E-002     8.4161942964546056E-006
  -2.2300000000000000E-002     8.5881525325091519E-006
  -2.2249999999999999E-002     8.7631296414274004E-006
  -2.2200000000000001E-002     8.9411448933903542E-006
  -2.2150000000000000E-002     9.1222276070413381E-006
  -2.2100000000000002E-002     9.3064214174743169E-006
  -2.2050000000000000E-002     9.4937856047107609E-006
  -2.1999999999999999E-002     9.6843881357256682E-006
  -2.1950000000000001E-002     9.8782960378495290E-006
  -2.1899999999999999E-002     1.0075566788391009E-005
  -2.1850000000000001E-002     1.0276247784246344E-005
  -2.1800000000000000E-002     1.0480374683616142E-005
  -2.1749999999999999E-002     1.0687978474275089E-005
  -2.1700000000000001E-002     1.0899089393443852E-005
  -2.1649999999999999E-002     1.1113741638959775E-005
  -2.1600000000000001E-002     1.1331975815627718E-005
  -2.1550000000000000E-002     1.1553835574509631E-005
  -2.1499999999999998E-002     1.1779368942855533E-005
  -2.1450000000000000E-002     1.2008624799219341E-005
  -2.1399999999999999E-002     1.2241651639058909E-005
  -2.1350000000000001E-002     1.2478501525500476E-005
  -2.1299999999999999E-002     1.2719230437725923E-005
  -2.1250000000000002E-002     1.2963893583296763E-005
  -2.1200000000000000E-002     1.3212546883163322E-005
  -2.1149999999999999E-002     1.3465239700654986E-005
  -2.1100000000000001E-002     1.3722015191514782E-005
  -2.1049999999999999E-002     1.3982910983018990E-005
  -2.1000000000000001E-002     1.4247966029131123E-005
  -2.0950000000000000E-002     1.4517218575568157E-005
  -2.0899999999999998E-002     1.4790714313929057E-005
  -2.0850000000000000E-002     1.5068498063248625E-005
  -2.0799999999999999E-002     1.5350615727387608E-005
  -2.0750000000000001E-002     1.5637109426011668E-005
  -2.0700000000000000E-002     1.5928023783723503E-005
  -2.0649999999999998E-002     1.6223406801682947E-005
  -2.0600000000000000E-002     1.6523313844333715E-005
  -2.0549999999999999E-002     1.6827808502522845E-005
  -2.0500000000000001E-002     1.7136952757745738E-005
  -2.0449999999999999E-002     1.7450804625804550E-005
  -2.0400000000000001E-002     1.7769407743349845E-005
  -2.0350000000000000E-002     1.8092800212053994E-005
  -2.0299999999999999E-002     1.8421014698251424E-005
  -2.0250000000000001E-002     1.8754089555180820E-005
  -2.0199999999999999E-002     1.9092069754388320E-005
  -2.0150000000000001E-002     1.9435005162756534E-005
  -2.0100000000000000E-002     1.9782948618603934E-005
  -2.0049999999999998E-002     2.0135950829177135E-005
  -2.0000000000000000E-002     2.0494063264749953E-005
  -1.9949999999999999E-002     2.0857340897593859E-005
  -1.9900000000000001E-002     2.1225841219504765E-005
  -1.9850000000000000E-002     2.1599631068715426E-005
  -1.9799999999999998E-002     2.1978772443159622E-005
  -1.9750000000000000E-002     2.2363324652526158E-005
  -1.9699999999999999E-002     2.2753337704449380E-005
  -1.9650000000000001E-002     2.3148845265669364E-005
  -1.9599999999999999E-002     2.3549869837463293E-005
  -1.9550000000000001E-002     2.3956434388384630E-005
  -1.9500000000000000E-002     2.4368566236119710E-005
  -1.9449999999999999E-002     2.4786306930889507E-005
  -1.9400000000000001E-002     2.5209710326781663E-005
  -1.9349999999999999E-002     2.5638839938675125E-005
  -1.9300000000000001E-002     2.6073763212028928E-005
  -1.9250000000000000E-002     2.6514534649875761E-005
  -1.9199999999999998E-002     2.6961201821685701E-005
  -1.9150000000000000E-002     2.7413806534092256E-005
  -1.9099999999999999E-002     2.7872390590306104E-005
  -1.9050000000000001E-002     2.8336995208223924E-005
  -1.9000000000000000E-002     2.8807662400075387E-005
  -1.8949999999999998E-002     2.9284429364328284E-005
  -1.8900000000000000E-002     2.9767329921589670E-005
  -1.8849999999999999E-002     3.0256393822054323E-005
  -1.8800000000000001E-002     3.0751648373914052E-005
  -1.8749999999999999E-002     3.1253130608593948E-005
  -1.8700000000000001E-002     3.1760886348991396E-005
  -1.8650000000000000E-002     3.2274966562244694E-005
  -1.8599999999999998E-002     3.2795423556197765E-005
  -1.8550000000000001E-002     3.3322302871343901E-005
  -1.8499999999999999E-002     3.3855646909839262E-005
  -1.8450000000000001E-002     3.4395481316407817E-005
  -1.8400000000000000E-002     3.4941838425474674E-005
  -1.8349999999999998E-002     3.5494743475326194E-005
  -1.8300000000000000E-002     3.6054229261423360E-005
  -1.8249999999999999E-002     3.6620323111753592E-005
  -1.8200000000000001E-002     3.7193051752621565E-005
  -1.8149999999999999E-002     3.7772447954940797E-005
  -1.8100000000000002E-002     3.8358535985494880E-005
  -1.8050000000000000E-002     3.8951349943656437E-005
  -1.7999999999999999E-002     3.9550930086302171E-005
  -1.7950000000000001E-002     4.0157319183576273E-005
  -1.7899999999999999E-002     4.0770550892266332E-005
  -1.7850000000000001E-002     4.1390664150042168E-005
  -1.7800000000000000E-002     4.2017679225472878E-005
  -1.7749999999999998E-002     4.2651614648774310E-005
  -1.7700000000000000E-002     4.3292479867423201E-005
  -1.7649999999999999E-002     4.3940286057795204E-005
  -1.7600000000000001E-002     4.4595046917108588E-005
  -1.7550000000000000E-002     4.5256785258860535E-005
  -1.7499999999999998E-002     4.5925519711252188E-005
  -1.7450000000000000E-002     4.6601272986360117E-005
  -1.7399999999999999E-002     4.7284050451510662E-005
  -1.7350000000000001E-002     4.7973865461674030E-005
  -1.7299999999999999E-002     4.8670725552769883E-005
  -1.7250000000000001E-002     4.9374643036428228E-005
  -1.7200000000000000E-002     5.0085638415256057E-005
  -1.7149999999999999E-002     5.0803732296692409E-005
  -1.7100000000000001E-002     5.1528942761005634E-005
  -1.7049999999999999E-002     5.2261267923623317E-005
  -1.7000000000000001E-002     5.3000701374832305E-005
  -1.6950000000000000E-002     5.3747222054500247E-005
  -1.6899999999999998E-002     5.4500818136296255E-005
  -1.6850000000000000E-002     5.5261482631694509E-005
  -1.6799999999999999E-002     5.6029216415158446E-005
  -1.6750000000000001E-002     5.6804024431563266E-005
  -1.6700000000000000E-002     5.7585912158137162E-005
  -1.6649999999999998E-002     5.8374886557517890E-005
  -1.6600000000000000E-002     5.9170932062553404E-005
  -1.6549999999999999E-002     5.9974030938013496E-005
  -1.6500000000000001E-002     6.0784166138442067E-005
  -1.6449999999999999E-002     6.1601318681678426E-005
  -1.6400000000000001E-002     6.2425466095622018E-005
  -1.6350000000000000E-002     6.3256589186900161E-005
  -1.6299999999999999E-002     6.4094659639557847E-005
  -1.6250000000000001E-002     6.4939649747100086E-005
  -1.6199999999999999E-002     6.5791538550102985E-005
  -1.6150000000000001E-002     6.6650299632569143E-005
  -1.6100000000000000E-002     6.7515911209537383E-005
  -1.6049999999999998E-002     6.8388346304646319E-005
  -1.6000000000000000E-002     6.9267574870094330E-005
  -1.5949999999999999E-002     7.0153549227645803E-005
  -1.5900000000000001E-002     7.1046220421228508E-005
  -1.5850000000000000E-002     7.1945537292433855E-005
  -1.5799999999999998E-002     7.2851449787200890E-005
  -1.5750000000000000E-002     7.3763908238087079E-005
  -1.5699999999999999E-002     7.4682869291589247E-005
  -1.5650000000000001E-002     7.5608290451624312E-005
  -1.5599999999999999E-002     7.6540117766697404E-005
  -1.5550000000000001E-002     7.7478291234888953E-005
  -1.5500000000000000E-002     7.8422753337656703E-005
  -1.5449999999999998E-002     7.9373451391314017E-005
  -1.5400000000000000E-002     8.0330313101987789E-005
  -1.5349999999999999E-002     8.1293282886749869E-005
  -1.5300000000000001E-002     8.2262295016002532E-005
  -1.5250000000000000E-002     8.3237264478952549E-005
  -1.5199999999999998E-002     8.4218103716524937E-005
  -1.5150000000000000E-002     8.5204729800679761E-005
  -1.5099999999999999E-002     8.6197058513398162E-005
  -1.5050000000000001E-002     8.7195011708994662E-005
  -1.4999999999999999E-002     8.8198509761930718E-005
  -1.4949999999999998E-002     8.9207482398247136E-005
  -1.4900000000000000E-002     9.0221840739071260E-005
  -1.4849999999999999E-002     9.1241485304901777E-005
  -1.4800000000000001E-002     9.2266309634441216E-005
  -1.4749999999999999E-002     9.3296184820322183E-005
  -1.4700000000000001E-002     9.4330992099471883E-005
  -1.4650000000000000E-002     9.5370619386945789E-005
  -1.4599999999999998E-002     9.6414965159044106E-005
  -1.4550000000000000E-002     9.7463932042792878E-005
  -1.4499999999999999E-002     9.8517421322676731E-005
  -1.4450000000000001E-002     9.9575332055468823E-005
  -1.4400000000000000E-002     1.0063754835098671E-004
  -1.4349999999999998E-002     1.0170394333681383E-004
  -1.4300000000000000E-002     1.0277437737111013E-004
  -1.4249999999999999E-002     1.0384872082878379E-004
  -1.4200000000000001E-002     1.0492681076103928E-004
  -1.4149999999999999E-002     1.0600851251805291E-004
  -1.4099999999999998E-002     1.0709366701120443E-004
  -1.4050000000000000E-002     1.0818212738367353E-004
  -1.3999999999999999E-002     1.0927375086228609E-004
  -1.3950000000000001E-002     1.1036839466166545E-004
  -1.3899999999999999E-002     1.1146589453430009E-004
  -1.3850000000000001E-002     1.1256610588860892E-004
  -1.3800000000000000E-002     1.1366885076015683E-004
  -1.3749999999999998E-002     1.1477397812879794E-004
  -1.3700000000000000E-002     1.1588132197673252E-004
  -1.3649999999999999E-002     1.1699070448061894E-004
  -1.3600000000000001E-002     1.1810196287016518E-004
  -1.3550000000000000E-002     1.1921492902342508E-004
  -1.3499999999999998E-002     1.2032943353187982E-004
  -1.3450000000000000E-002     1.2144528769662062E-004
  -1.3399999999999999E-002     1.2256226675496046E-004
  -1.3350000000000001E-002     1.2368014862929413E-004
  -1.3299999999999999E-002     1.2479873577962993E-004
  -1.3249999999999998E-002     1.2591783747737873E-004
  -1.3200000000000000E-002     1.2703723974937913E-004
  -1.3149999999999998E-002     1.2815675433404009E-004
  -1.3100000000000001E-002     1.2927621745869347E-004
  -1.3049999999999999E-002     1.3039543594420199E-004
  -1.3000000000000001E-002     1.3151419076827919E-004
  -1.2950000000000000E-002     1.3263224471360044E-004
  -1.2899999999999998E-002     1.3374933526430380E-004
  -1.2850000000000000E-002     1.3486521732054163E-004
  -1.2799999999999999E-002     1.3597965660939700E-004