  -4.0000000000000001E-002     0.0000000000000000     
  -3.9949999999999999E-002     0.0000000000000000     
  -3.9899999999999998E-002     0.0000000000000000     
  -3.9850000000000003E-002     0.0000000000000000     
  -3.9800000000000002E-002     0.0000000000000000     
  -3.9750000000000001E-002     5.4985353515770711E-019
  -3.9699999999999999E-002     3.5562167543235366E-018
  -3.9649999999999998E-002     1.1040272394916991E-017
  -3.9600000000000003E-002     2.0318005323063832E-017
  -3.9550000000000002E-002     1.7806428749041696E-017
  -3.9500000000000000E-002    -2.4358491931409481E-017
  -3.9449999999999999E-002    -1.4287254770658911E-016
  -3.9399999999999998E-002    -3.5686329109437228E-016
  -3.9350000000000003E-002    -6.1634879717954790E-016
  -3.9300000000000002E-002    -7.7353969099046062E-016
  -3.9250000000000000E-002    -6.8154462227561570E-016
  -3.9199999999999999E-002    -4.4170059301754191E-016
  -3.9150000000000004E-002    -5.2930306908107603E-016
  -3.9100000000000003E-002    -1.3126138180773751E-015
  -3.9050000000000001E-002    -1.8823680395100135E-015
  -3.9000000000000000E-002     7.8423312946694929E-016
  -3.8949999999999999E-002     1.0517658187444327E-014
  -3.8900000000000004E-002     2.7815579247827005E-014
  -3.8850000000000003E-002     4.5370024459741675E-014
  -3.8800000000000001E-002     4.8413081418641761E-014
  -3.8750000000000000E-002     2.3253952911716475E-014
  -3.8699999999999998E-002    -2.9657663329822133E-014
  -3.8650000000000004E-002    -8.8963451622126227E-014
  -3.8600000000000002E-002    -1.2188648503789652E-013
  -3.8550000000000001E-002    -1.0803954090067050E-013
  -3.8500000000000000E-002    -6.0490103663666979E-014
  -3.8449999999999998E-002    -2.3090475544631594E-014
  -3.8400000000000004E-002    -3.8272041409385099E-014
  -3.8350000000000002E-002    -1.0499884420571987E-013
  -3.8300000000000001E-002    -1.6114613806650087E-013
  -3.8249999999999999E-002    -1.1245502577054315E-013
  -3.8199999999999998E-002     1.0297688536927544E-013
  -3.8150000000000003E-002     4.5521465004329238E-013
  -3.8100000000000002E-002     8.1067255979505102E-013
  -3.8050000000000000E-002     9.8288683740803175E-013
  -3.7999999999999999E-002     8.2335769197240070E-013
  -3.7949999999999998E-002     3.0746275524698207E-013
  -3.7900000000000003E-002    -4.2717349357700362E-013
  -3.7850000000000002E-002    -1.1125984710485163E-012
  -3.7800000000000000E-002    -1.4497262698882043E-012
  -3.7749999999999999E-002    -1.2452628492876825E-012
  -3.7699999999999997E-002    -5.3213866185217079E-013
  -3.7650000000000003E-002     3.9232111020051497E-013
  -3.7600000000000001E-002     1.0561211746325355E-012
  -3.7550000000000000E-002     1.0176050626821776E-012
  -3.7499999999999999E-002     1.0123588939951570E-013
  -3.7449999999999997E-002    -1.4581886007159279E-012
  -3.7400000000000003E-002    -3.0534883132918013E-012
  -3.7350000000000001E-002    -3.9251029510124949E-012
  -3.7300000000000000E-002    -3.4680609068556590E-012
  -3.7249999999999998E-002    -1.4900381442523060E-012
  -3.7200000000000004E-002     1.6837443041749370E-012
  -3.7150000000000002E-002     5.2894413372077828E-012
  -3.7100000000000001E-002     8.3493527616413039E-012
  -3.7050000000000000E-002     9.9662295095517035E-012
  -3.6999999999999998E-002     9.5978963545831251E-012
  -3.6950000000000004E-002     7.2244008962877268E-012
  -3.6900000000000002E-002     3.3412863364414541E-012
  -3.6850000000000001E-002    -1.2315033743656531E-012
  -3.6799999999999999E-002    -5.6515520104932227E-012
  -3.6749999999999998E-002    -9.3247634288516784E-012
  -3.6700000000000003E-002    -1.2006116943451581E-011
  -3.6650000000000002E-002    -1.3684689422730380E-011
  -3.6600000000000001E-002    -1.4343362427250132E-011
  -3.6549999999999999E-002    -1.3773767606139575E-011
  -3.6499999999999998E-002    -1.1603202612746489E-011
  -3.6450000000000003E-002    -7.5570620971441877E-012
  -3.6400000000000002E-002    -1.8162179951226000E-012
  -3.6350000000000000E-002     4.7640916674957213E-012
  -3.6299999999999999E-002     1.0766280268232954E-011
  -3.6249999999999998E-002     1.4683568767402344E-011
  -3.6200000000000003E-002     1.5581180210904718E-011
  -3.6150000000000002E-002     1.3633388020267182E-011
  -3.6100000000000000E-002     1.0229364154907833E-011
  -3.6049999999999999E-002     7.5058649042547045E-012
  -3.6000000000000004E-002     7.4283448615211636E-012
  -3.5950000000000003E-002     1.0785972452535498E-011
  -3.5900000000000001E-002     1.6564808209559596E-011
  -3.5850000000000000E-002     2.2048114417336944E-011
  -3.5799999999999998E-002     2.3695411832475712E-011
  -3.5750000000000004E-002     1.8502651317743932E-011
  -3.5700000000000003E-002     5.3134108219897356E-012
  -3.5650000000000001E-002    -1.4446788753595039E-011
  -3.5600000000000000E-002    -3.6905332110382043E-011
  -3.5549999999999998E-002    -5.6689693832582235E-011
  -3.5500000000000004E-002    -6.8335419018534150E-011
  -3.5450000000000002E-002    -6.7681003897654252E-011
  -3.5400000000000001E-002    -5.2838577290464053E-011
  -3.5349999999999999E-002    -2.4506035763309364E-011
  -3.5299999999999998E-002     1.4409139879675044E-011
  -3.5250000000000004E-002     5.9699665332038342E-011
  -3.5200000000000002E-002     1.0700061189170950E-010
  -3.5150000000000001E-002     1.5278699217005584E-010
  -3.5099999999999999E-002     1.9490080188025067E-010
  -3.5049999999999998E-002     2.3248549747954684E-010
  -3.5000000000000003E-002     2.6549116472938254E-010
  -3.4950000000000002E-002     2.9411413980929823E-010
  -3.4900000000000000E-002     3.1850797958804484E-010
  -3.4849999999999999E-002     3.3885653194500867E-010
  -3.4799999999999998E-002     3.5561173816195455E-010
  -3.4750000000000003E-002     3.6958746615703991E-010
  -3.4700000000000002E-002     3.8174008787139168E-010
  -3.4650000000000000E-002     3.9272773654553692E-010
  -3.4599999999999999E-002     4.0251795974017893E-010
  -3.4549999999999997E-002     4.1029364042134514E-010
  -3.4500000000000003E-002     4.1475145851181924E-010
  -3.4450000000000001E-002     4.1472558719309817E-010
  -3.4400000000000000E-002     4.0996111108712748E-010
  -3.4349999999999999E-002     4.0177874589169173E-010
  -3.4299999999999997E-002     3.9330553269135775E-010
  -3.4250000000000003E-002     3.8898279203286786E-010
  -3.4200000000000001E-002     3.9331804770502497E-010
  -3.4150000000000000E-002     4.0927082449669816E-010
  -3.4099999999999998E-002     4.3699231454936165E-010
  -3.4049999999999997E-002     4.7357902136525872E-010
  -3.4000000000000002E-002     5.1401212328643986E-010
  -3.3950000000000001E-002     5.5284416183381542E-010
  -3.3900000000000000E-002     5.8588539100033337E-010
  -3.3849999999999998E-002     6.1129824697369873E-010
  -3.3799999999999997E-002     6.2992278571627858E-010
  -3.3750000000000002E-002     6.4495918943952798E-010
  -3.3700000000000001E-002     6.6118654014096622E-010
  -3.3649999999999999E-002     6.8385118351749452E-010
  -3.3599999999999998E-002     7.1743398488055630E-010
  -3.3550000000000003E-002     7.6467225813160697E-010
  -3.3500000000000002E-002     8.2620323709279211E-010
  -3.3450000000000001E-002     9.0086435951244435E-010
  -3.3399999999999999E-002     9.8623667669547879E-010
  -3.3349999999999998E-002     1.0789069342758754E-009
  -3.3300000000000003E-002     1.1743315238627070E-009
  -3.3250000000000002E-002     1.2667715309430218E-009
  -3.3200000000000000E-002     1.3499272263664019E-009
  -3.3149999999999999E-002     1.4183812347114724E-009
  -3.3099999999999997E-002     1.4691809336253828E-009
  -3.3050000000000003E-002     1.5025776778978433E-009
  -3.3000000000000002E-002     1.5214361689919313E-009
  -3.2950000000000000E-002     1.5297163913238348E-009
  -3.2899999999999999E-002     1.5309562482963852E-009
  -3.2850000000000004E-002     1.5274737482378781E-009
  -3.2800000000000003E-002     1.5203774807121035E-009
  -3.2750000000000001E-002     1.5100751855749610E-009
  -3.2700000000000000E-002     1.4970294407246788E-009
  -3.2649999999999998E-002     1.4827140206117915E-009
  -3.2600000000000004E-002     1.4706188821828970E-009
  -3.2550000000000003E-002     1.4668080910373910E-009
  -3.2500000000000001E-002     1.4794385836062042E-009
  -3.2450000000000000E-002     1.5171878654390951E-009
  -3.2399999999999998E-002     1.5873507991188700E-009
  -3.2350000000000004E-002     1.6947038196687340E-009
  -3.2300000000000002E-002     1.8416419143253627E-009
  -3.2250000000000001E-002     2.0290803813905409E-009
  -3.2199999999999999E-002     2.2571293540875054E-009
  -3.2149999999999998E-002     2.5250429532212736E-009
  -3.2100000000000004E-002     2.8308937726473969E-009
  -3.2050000000000002E-002     3.1717771172174074E-009
  -3.2000000000000001E-002     3.5447634476558247E-009
  -3.1949999999999999E-002     3.9479144906144366E-009
  -3.1899999999999998E-002     4.3804861415247393E-009
  -3.1850000000000003E-002     4.8422149416018862E-009
  -3.1800000000000002E-002     5.3324774516344437E-009
  -3.1750000000000000E-002     5.8501127308361623E-009
  -3.1699999999999999E-002     6.3937767783582371E-009
  -3.1649999999999998E-002     6.9618295135974894E-009
  -3.1600000000000003E-002     7.5510633820797752E-009
  -3.1550000000000002E-002     8.1548397553539665E-009
  -3.1500000000000000E-002     8.7622028624510620E-009
  -3.1449999999999999E-002     9.3590990206109236E-009
  -3.1399999999999997E-002     9.9312796764688701E-009
  -3.1350000000000003E-002     1.0467154207820041E-008
  -3.1300000000000001E-002     1.0959100235825672E-008
  -3.1250000000000000E-002     1.1403141155589745E-008
  -3.1199999999999999E-002     1.1798034225120246E-008
  -3.1150000000000001E-002     1.2144691649341140E-008
  -3.1100000000000003E-002     1.2445790201922002E-008
  -3.1050000000000001E-002     1.2704832772328729E-008
  -3.1000000000000000E-002     1.2924540197683145E-008
  -3.0949999999999998E-002     1.3105601661230060E-008
  -3.0900000000000000E-002     1.3246984747857209E-008
  -3.0850000000000002E-002     1.3347828921723591E-008
  -3.0800000000000001E-002     1.3409468596406317E-008
  -3.0750000000000000E-002     1.3435972208243162E-008
  -3.0699999999999998E-002     1.3432984993560829E-008
  -3.0650000000000000E-002     1.3406262706773425E-008
  -3.0600000000000002E-002     1.3361357998391658E-008
  -3.0550000000000001E-002     1.3304452538962465E-008
  -3.0499999999999999E-002     1.3242881245189731E-008
  -3.0449999999999998E-002     1.3184097456279415E-008
  -3.0400000000000000E-002     1.3133645231883461E-008
  -3.0350000000000002E-002     1.3094040872362977E-008
  -3.0300000000000001E-002     1.3065812857653224E-008
  -3.0249999999999999E-002     1.3049841218205905E-008
  -3.0200000000000001E-002     1.3048701027806818E-008
  -3.0150000000000000E-002     1.3065610449393930E-008
  -3.0100000000000002E-002     1.3102001411752113E-008
  -3.0050000000000000E-002     1.3156167975296497E-008
  -2.9999999999999999E-002     1.3224428160536643E-008
  -2.9950000000000001E-002     1.3303720760534553E-008
  -2.9899999999999999E-002     1.3393196746394313E-008
  -2.9850000000000002E-002     1.3493528026410802E-008
  -2.9800000000000000E-002     1.3605141990737247E-008
  -2.9749999999999999E-002     1.3727604226576868E-008
  -2.9700000000000001E-002     1.3860893835243410E-008
  -2.9650000000000003E-002     1.4006924490470102E-008
  -2.9600000000000001E-002     1.4169031147932353E-008
  -2.9550000000000000E-002     1.4349264326023405E-008
  -2.9499999999999998E-002     1.4545888138562592E-008
  -2.9450000000000000E-002     1.4753749182758527E-008
  -2.9400000000000003E-002     1.4967622122654140E-008
  -2.9350000000000001E-002     1.5185778753873904E-008
  -2.9300000000000000E-002     1.5410874124141103E-008
  -2.9249999999999998E-002     1.5647808770659547E-008
  -2.9200000000000000E-002     1.5901113421860178E-008
  -2.9150000000000002E-002     1.6174306076952048E-008
  -2.9100000000000001E-002     1.6471077896338345E-008
  -2.9049999999999999E-002     1.6795899077523646E-008
  -2.8999999999999998E-002     1.7152345662030811E-008
  -2.8950000000000000E-002     1.7540420477128652E-008
  -2.8900000000000002E-002     1.7955907767108171E-008
  -2.8850000000000001E-002     1.8393118450604060E-008
  -2.8799999999999999E-002     1.8848872119616445E-008
  -2.8749999999999998E-002     1.9323788456538179E-008
  -2.8700000000000000E-002     1.9819373373391906E-008
  -2.8650000000000002E-002     2.0333524264976787E-008
  -2.8600000000000000E-002     2.0858786489526509E-008
  -2.8549999999999999E-002     2.1385106105938381E-008
  -2.8500000000000001E-002     2.1904359400377285E-008
  -2.8450000000000000E-002     2.2412407327085667E-008
  -2.8400000000000002E-002     2.2907391097156767E-008
  -2.8350000000000000E-002     2.3387099892270533E-008
  -2.8299999999999999E-002     2.3849199643547749E-008
  -2.8250000000000001E-002     2.4294484971835061E-008
  -2.8200000000000003E-002     2.4729321468566291E-008
  -2.8150000000000001E-002     2.5163453847363956E-008
  -2.8100000000000000E-002     2.5603965947059621E-008
  -2.8049999999999999E-002     2.6050559702346648E-008
  -2.8000000000000001E-002     2.6496749492537005E-008
  -2.7950000000000003E-002     2.6936124088903159E-008
  -2.7900000000000001E-002     2.7368031242526593E-008
  -2.7850000000000000E-002     2.7797754670147649E-008
  -2.7799999999999998E-002     2.8231777235167603E-008
  -2.7750000000000000E-002     2.8673362575931123E-008
  -2.7700000000000002E-002     2.9122695433562613E-008
  -2.7650000000000001E-002     2.9580427302760285E-008
  -2.7600000000000000E-002     3.0049872285998789E-008
  -2.7549999999999998E-002     3.0534961740187463E-008
  -2.7500000000000000E-002     3.1036597931515467E-008
  -2.7450000000000002E-002     3.1552514702667546E-008
  -2.7400000000000001E-002     3.2082299643334700E-008
  -2.7349999999999999E-002     3.2633068671781976E-008
  -2.7299999999999998E-002     3.3219493609041957E-008
  -2.7250000000000000E-002     3.3856829336818971E-008
  -2.7200000000000002E-002     3.4552473133460641E-008
  -2.7150000000000001E-002     3.5303234956593030E-008
  -2.7099999999999999E-002     3.6099859667541667E-008
  -2.7049999999999998E-002     3.6933222852373320E-008
  -2.7000000000000000E-002     3.7795783994082827E-008
  -2.6950000000000002E-002     3.8677795811649213E-008
  -2.6900000000000000E-002     3.9564370845127522E-008
  -2.6849999999999999E-002     4.0438937534597319E-008
  -2.6800000000000001E-002     4.1291392651885915E-008
  -2.6749999999999999E-002     4.2123077442100589E-008
  -2.6700000000000002E-002     4.2942817969394064E-008
  -2.6650000000000000E-002     4.3757042479827369E-008
  -2.6599999999999999E-002     4.4563279042830353E-008
  -2.6550000000000001E-002     4.5353464680298871E-008
  -2.6500000000000003E-002     4.6123669336825961E-008
  -2.6450000000000001E-002     4.6880540492567884E-008
  -2.6400000000000000E-002     4.7638172564225833E-008
  -2.6349999999999998E-002     4.8409223418489183E-008
  -2.6300000000000000E-002     4.9199421416888105E-008
  -2.6250000000000002E-002     5.0010264890196331E-008
  -2.6200000000000001E-002     5.0845252741642610E-008
  -2.6150000000000000E-002     5.1710969660120647E-008
  -2.6099999999999998E-002     5.2610535780009640E-008
  -2.6050000000000000E-002     5.3536358306361413E-008
  -2.6000000000000002E-002     5.4471472752468750E-008
  -2.5950000000000001E-002     5.5400429810585584E-008
  -2.5899999999999999E-002     5.6320372893591784E-008
  -2.5849999999999998E-002     5.7241828629038042E-008
  -2.5800000000000000E-002     5.8178671039390022E-008
  -2.5750000000000002E-002     5.9137138196841563E-008
  -2.5700000000000001E-002     6.0114285286858408E-008
  -2.5649999999999999E-002     6.1105699683927130E-008
  -2.5599999999999998E-002     6.2112634909188798E-008
  -2.5550000000000000E-002     6.3140042409970235E-008
  -2.5500000000000002E-002     6.4187744459664124E-008
  -2.5450000000000000E-002     6.5245746252934314E-008
  -2.5399999999999999E-002     6.6300554903573246E-008
  -2.5349999999999998E-002     6.7347037156061707E-008
  -2.5300000000000000E-002     6.8393289014212801E-008
  -2.5250000000000002E-002     6.9452097259715403E-008
  -2.5200000000000000E-002     7.0526577803935760E-008
  -2.5149999999999999E-002     7.1604313944648737E-008
  -2.5100000000000001E-002     7.2665963358423469E-008
  -2.5049999999999999E-002     7.3699794210834626E-008
  -2.5000000000000001E-002     7.4707663682942857E-008
  -2.4950000000000000E-002     7.5697293954297411E-008
  -2.4899999999999999E-002     7.6670439476651263E-008
  -2.4850000000000001E-002     7.7620503962532839E-008
  -2.4800000000000003E-002     7.8542469382977579E-008
  -2.4750000000000001E-002     7.9443543136578494E-008
  -2.4700000000000000E-002     8.0341605041077858E-008
  -2.4649999999999998E-002     8.1251308409361504E-008
  -2.4600000000000000E-002     8.2171724177659504E-008
  -2.4550000000000002E-002     8.3088959148217498E-008
  -2.4500000000000001E-002     8.3991830502900687E-008
  -2.4450000000000000E-002     8.4885192140697338E-008
  -2.4399999999999998E-002     8.5787214286752477E-008
  -2.4350000000000000E-002     8.6713933120906542E-008
  -2.4299999999999999E-002     8.7667005799693313E-008
  -2.4250000000000001E-002     8.8636713302189968E-008
  -2.4199999999999999E-002     8.9615403156958360E-008
  -2.4150000000000001E-002     9.0605254522771693E-008
  -2.4100000000000000E-002     9.1610952658564315E-008
  -2.4049999999999998E-002     9.2625349343618231E-008
  -2.4000000000000000E-002     9.3624796479632401E-008
  -2.3949999999999999E-002     9.4581450778443167E-008
  -2.3900000000000001E-002     9.5481148875178291E-008
  -2.3850000000000000E-002     9.6329106703523347E-008
  -2.3800000000000002E-002     9.7137621580006546E-008
  -2.3750000000000000E-002     9.7909088443679929E-008
  -2.3699999999999999E-002     9.8632186330710335E-008
  -2.3650000000000001E-002     9.9294929450917868E-008
  -2.3599999999999999E-002     9.9899514859356349E-008
  -2.3550000000000001E-002     1.0046182954628242E-007
  -2.3500000000000000E-002     1.0099510096452485E-007
  -2.3449999999999999E-002     1.0149493682424480E-007
  -2.3400000000000001E-002     1.0194239472120230E-007
  -2.3349999999999999E-002     1.0232280445291920E-007
  -2.3300000000000001E-002     1.0264073997914004E-007
  -2.3250000000000000E-002     1.0291486596990857E-007
  -2.3199999999999998E-002     1.0315721146609219E-007
  -2.3150000000000000E-002     1.0335818484735299E-007
  -2.3099999999999999E-002     1.0349277688090251E-007
  -2.3050000000000001E-002     1.0354133592834487E-007
  -2.3000000000000000E-002     1.0350342839624211E-007
  -2.2950000000000002E-002     1.0339091863318932E-007
  -2.2900000000000000E-002     1.0320912969198558E-007
  -2.2849999999999999E-002     1.0294721658130500E-007
  -2.2800000000000001E-002     1.0258915295666808E-007
  -2.2749999999999999E-002     1.0213296378105413E-007
  -2.2700000000000001E-002     1.0159639858206892E-007
  -2.2650000000000000E-002     1.0100106574962785E-007
  -2.2599999999999999E-002     1.0035017318897431E-007
  -2.2550000000000001E-002     9.9622779338428451E-008
  -2.2499999999999999E-002     9.8790737893638712E-008
  -2.2450000000000001E-002     9.7840997349511878E-008
  -2.2400000000000000E-002     9.6780445036814087E-008
  -2.2349999999999998E-002     9.5619362319084809E-008
  -2.2300000000000000E-002     9.4351948493459247E-008
  -2.2249999999999999E-002     9.2955663683412583E-008
  -2.2200000000000001E-002     9.1409441880091604E-008
  -2.2150000000000000E-002     8.9710537186258816E-008
  -2.2100000000000002E-002     8.7870333934497261E-008
  -2.2050000000000000E-002     8.5892733997813492E-008
  -2.1999999999999999E-002     8.3758525408137055E-008
  -2.1950000000000001E-002     8.1433896661632026E-008
  -2.1899999999999999E-002     7.8896496556887257E-008
  -2.1850000000000001E-002     7.6152800567991624E-008
  -2.1800000000000000E-002     7.3228829343586278E-008
  -2.1749999999999999E-002     7.0143587184993088E-008
  -2.1700000000000001E-002     6.6891866128000341E-008
  -2.1649999999999999E-002     6.3453088130272086E-008
  -2.1600000000000001E-002     5.9814832101209567E-008
  -2.1550000000000000E-002     5.5984527447168531E-008
  -2.1499999999999998E-002     5.1975661339071527E-008
  -2.1450000000000000E-002     4.7783292206692740E-008
  -2.1399999999999999E-002     4.3376338603789608E-008
  -2.1350000000000001E-002     3.8716468254291829E-008
  -2.1299999999999999E-002     3.3785629181517982E-008
  -2.1250000000000002E-002     2.8593563847828497E-008
  -2.1200000000000000E-002     2.3157164762374717E-008
  -2.1149999999999999E-002     1.7472601428600599E-008
  -2.1100000000000001E-002     1.1508843365386919E-008
  -2.1049999999999999E-002     5.2289601138496857E-009
  -2.1000000000000001E-002    -1.3836564268125209E-009
  -2.0950000000000000E-002    -8.3216875966597650E-009
  -2.0899999999999998E-002    -1.5575997026136468E-008
  -2.0850000000000000E-002    -2.3158905505939134E-008
  -2.0799999999999999E-002    -3.1102931853149318E-008
  -2.0750000000000001E-002    -3.9435889293382359E-008
  -2.0700000000000000E-002    -4.8159133005879607E-008
  -2.0649999999999998E-002    -5.7253908023584019E-008
  -2.0600000000000000E-002    -6.6710446401549994E-008
  -2.0549999999999999E-002    -7.6550272582462379E-008
  -2.0500000000000001E-002    -8.6817978482740915E-008
  -2.0449999999999999E-002    -9.7550373720470713E-008
  -2.0400000000000001E-002    -1.0875450615781220E-007
  -2.0350000000000000E-002    -1.2041703455658453E-007
  -2.0299999999999999E-002    -1.3253402042753885E-007
  -2.0250000000000001E-002    -1.4512933708571638E-007
  -2.0199999999999999E-002    -1.5824132641915660E-007
  -2.0150000000000001E-002    -1.7189273164986916E-007
  -2.0100000000000000E-002    -1.8607649884291993E-007
  -2.0049999999999998E-002    -2.0077455513124847E-007
  -2.0000000000000000E-002    -2.1599084851504823E-007
  -1.9949999999999999E-002    -2.3176310711839943E-007
  -1.9900000000000001E-002    -2.4813959133915405E-007
  -1.9850000000000000E-002    -2.6514356576438923E-007
  -1.9799999999999998E-002    -2.8276245505488745E-007
  -1.9750000000000000E-002    -3.0097414858846956E-007
  -1.9699999999999999E-002    -3.1978342400572933E-007
  -1.9650000000000001E-002    -3.3923183157597565E-007
  -1.9599999999999999E-002    -3.5937074487379905E-007
  -1.9550000000000001E-002    -3.8022628258887543E-007
  -1.9500000000000000E-002    -4.0179404243930210E-007
  -1.9449999999999999E-002    -4.2406847458514760E-007
  -1.9400000000000001E-002    -4.4707607981327018E-007
  -1.9349999999999999E-002    -4.7087536492730087E-007
  -1.9300000000000001E-002    -4.9552194501186126E-007
  -1.9250000000000000E-002    -5.2103512694083392E-007
  -1.9199999999999998E-002    -5.4740163014831846E-007
  -1.9150000000000000E-002    -5.7461245743009247E-007
  -1.9099999999999999E-002    -6.0269510981101902E-007
  -1.9050000000000001E-002    -6.3170619442306579E-007
  -1.9000000000000000E-002    -6.6169284881691844E-007
  -1.8949999999999998E-002    -6.9266325054582882E-007
  -1.8900000000000000E-002    -7.2459993896477180E-007
  -1.8849999999999999E-002    -7.5750217281588796E-007
  -1.8800000000000001E-002    -7.9141365914087953E-007
  -1.8749999999999999E-002    -8.2640457309383559E-007
  -1.8700000000000001E-002    -8.6252665710792537E-007
  -1.8650000000000000E-002    -8.9978794810201703E-007
  -1.8599999999999998E-002    -9.3817517808809156E-007
  -1.8550000000000001E-002    -9.7770011531640923E-007
  -1.8499999999999999E-002    -1.0184208746162641E-006
  -1.8450000000000001E-002    -1.0604136006654653E-006
  -1.8400000000000000E-002    -1.1037249858208736E-006
  -1.8349999999999998E-002    -1.1483537969532646E-006
  -1.8300000000000000E-002    -1.1942847524944094E-006
  -1.8249999999999999E-002    -1.2415371850461209E-006
  -1.8200000000000001E-002    -1.2901775392176344E-006
  -1.8149999999999999E-002    -1.3402804006018677E-006
  -1.8100000000000002E-002    -1.3918795914194714E-006
  -1.8050000000000000E-002    -1.4449619239452686E-006
  -1.7999999999999999E-002    -1.4995125602169671E-006
  -1.7950000000000001E-002    -1.5555657078101743E-006
  -1.7899999999999999E-002    -1.6132056498443901E-006
  -1.7850000000000001E-002    -1.6725165636914994E-006
  -1.7800000000000000E-002    -1.7335341474764798E-006
  -1.7749999999999998E-002    -1.7962471894111818E-006
  -1.7700000000000000E-002    -1.8606499547003241E-006
  -1.7649999999999999E-002    -1.9267882938956545E-006
  -1.7600000000000001E-002    -1.9947500483982635E-006
  -1.7550000000000000E-002    -2.0646103611576111E-006
  -1.7499999999999998E-002    -2.1363905787255810E-006
  -1.7450000000000000E-002    -2.2100757351080102E-006
  -1.7399999999999999E-002    -2.2856733363244007E-006
  -1.7350000000000001E-002    -2.3632516208133140E-006
  -1.7299999999999999E-002    -2.4429142396361370E-006
  -1.7250000000000001E-002    -2.5247367639080750E-006
  -1.7200000000000000E-002    -2.6087324500253888E-006
  -1.7149999999999999E-002    -2.6948843718857000E-006
  -1.7100000000000001E-002    -2.7832097659534716E-006
  -1.7049999999999999E-002    -2.8737887843076105E-006
  -1.7000000000000001E-002    -2.9667278561069118E-006
  -1.6950000000000000E-002    -3.0620946181547847E-006
  -1.6899999999999998E-002    -3.1598974408176164E-006
  -1.6850000000000000E-002    -3.2601304685817790E-006
  -1.6799999999999999E-002    -3.3628364729162393E-006
  -1.6750000000000001E-002    -3.4681219432821250E-006
  -1.6700000000000000E-002    -3.5761036242018140E-006
  -1.6649999999999998E-002    -3.6868455015896114E-006
  -1.6600000000000000E-002    -3.8003496999510942E-006
  -1.6549999999999999E-002    -3.9166141421771033E-006
  -1.6500000000000001E-002    -4.0356961064963395E-006
  -1.6449999999999999E-002    -4.1577128091031477E-006
  -1.6400000000000001E-002    -4.2827753452907065E-006
  -1.6350000000000000E-002    -4.4109337246029845E-006
  -1.6299999999999999E-002    -4.5421820195782249E-006
  -1.6250000000000001E-002    -4.6765236511140551E-006
  -1.6199999999999999E-002    -4.8140317842968961E-006
  -1.6150000000000001E-002    -4.9548299639285767E-006
  -1.6100000000000000E-002    -5.0990239979875696E-006
  -1.6049999999999998E-002    -5.2466505761845316E-006
  -1.6000000000000000E-002    -5.3976989054174294E-006
  -1.5949999999999999E-002    -5.5521851970488183E-006
  -1.5900000000000001E-002    -5.7102027420991350E-006
  -1.5850000000000000E-002    -5.8718925042900592E-006
  -1.5799999999999998E-002    -6.0373629967671476E-006
  -1.5750000000000000E-002    -6.2066502139135876E-006
  -1.5699999999999999E-002    -6.3797545752045970E-006
  -1.5650000000000001E-002    -6.5567168311562674E-006
  -1.5599999999999999E-002    -6.7376517706146580E-006
  -1.5550000000000001E-002    -6.9226990524717340E-006
  -1.5500000000000000E-002    -7.1119489107954260E-006
  -1.5449999999999998E-002    -7.3054181386540466E-006
  -1.5400000000000000E-002    -7.5031092189895610E-006
  -1.5349999999999999E-002    -7.7050818468188307E-006
  -1.5300000000000001E-002    -7.9114686684433614E-006
  -1.5250000000000000E-002    -8.1224129496123064E-006
  -1.5199999999999998E-002    -8.3379981534955329E-006
  -1.5150000000000000E-002    -8.5582410665951238E-006
  -1.5099999999999999E-002    -8.7831569391559936E-006
  -1.5050000000000001E-002    -9.0128272567293488E-006
  -1.4999999999999999E-002    -9.2474024197717522E-006
  -1.4949999999999998E-002    -9.4870220183725268E-006
  -1.4900000000000000E-002    -9.7317607665244336E-006
  -1.4849999999999999E-002    -9.9816358290811192E-006
  -1.4800000000000001E-002    -1.0236683098535305E-005
  -1.4749999999999999E-002    -1.0497008079563090E-005
  -1.4700000000000001E-002    -1.0762767181110384E-005
  -1.4650000000000000E-002    -1.1034095141123092E-005
  -1.4599999999999998E-002    -1.1311048296351045E-005
  -1.4550000000000000E-002    -1.1593641104280826E-005
  -1.4499999999999999E-002    -1.1881916327012457E-005
  -1.4450000000000001E-002    -1.2175990302406753E-005
  -1.4400000000000000E-002    -1.2476018610504150E-005
  -1.4349999999999998E-002    -1.2782124026363385E-005
  -1.4300000000000000E-002    -1.3094359429086687E-005
  -1.4249999999999999E-002    -1.3412745908031989E-005
  -1.4200000000000001E-002    -1.3737352890031823E-005
  -1.4149999999999999E-002    -1.4068323994260443E-005
  -1.4099999999999998E-002    -1.4405821539086971E-005
  -1.4050000000000000E-002    -1.4749964875549353E-005
  -1.3999999999999999E-002    -1.5100807348071498E-005
  -1.3950000000000001E-002    -1.5458385164450583E-005
  -1.3899999999999999E-002    -1.5822782883698104E-005
  -1.3850000000000001E-002    -1.6194143359777572E-005
  -1.3800000000000000E-002    -1.6572623689640877E-005
  -1.3749999999999998E-002    -1.6958335898851423E-005
  -1.3700000000000000E-002    -1.7351343708300055E-005
  -1.3649999999999999E-002    -1.7751701231187754E-005
  -1.3600000000000001E-002    -1.8159514888278318E-005
  -1.3550000000000000E-002    -1.8574926040858286E-005
  -1.3499999999999998E-002    -1.8998081176287687E-005
  -1.3450000000000000E-002    -1.9429076257086440E-005
  -1.3399999999999999E-002    -1.9867961480936024E-005
  -1.3350000000000001E-002    -2.0314795476580754E-005
  -1.3299999999999999E-002    -2.0769687902592176E-005
  -1.3249999999999998E-002    -2.1232796194860106E-005
  -1.3200000000000000E-002    -2.1704266318045962E-005
  -1.3149999999999998E-002    -2.2184205583126982E-005
  -1.3100000000000001E-002    -2.2672685306622281E-005
  -1.3049999999999999E-002    -2.3169773412623090E-005
  -1.3000000000000001E-002    -2.3675580657169349E-005
  -1.2950000000000000E-002    -2.4190251003797825E-005
  -1.2899999999999998E-002    -2.4713924525955022E-005
  -1.2850000000000000E-002    -2.5246706183854928E-005
  -1.2799999999999999E-002    -2.5788672141853654E-005