  -4.0000000000000001E-002     0.0000000000000000     
  -3.9949999999999999E-002     0.0000000000000000     
  -3.9899999999999998E-002     0.0000000000000000     
  -3.9850000000000003E-002     0.0000000000000000     
  -3.9800000000000002E-002     0.0000000000000000     
  -3.9750000000000001E-002     0.0000000000000000     
  -3.9699999999999999E-002     0.0000000000000000     
  -3.9649999999999998E-002     0.0000000000000000     
  -3.9600000000000003E-002     0.0000000000000000     
  -3.9550000000000002E-002     0.0000000000000000     
  -3.9500000000000000E-002     0.0000000000000000     
  -3.9449999999999999E-002     0.0000000000000000     
  -3.9399999999999998E-002     0.0000000000000000     
  -3.9350000000000003E-002     0.0000000000000000     
  -3.9300000000000002E-002     0.0000000000000000     
  -3.9250000000000000E-002     0.0000000000000000     
  -3.9199999999999999E-002     0.0000000000000000     
  -3.9150000000000004E-002     0.0000000000000000     
  -3.9100000000000003E-002     0.0000000000000000     
  -3.9050000000000001E-002     0.0000000000000000     
  -3.9000000000000000E-002     0.0000000000000000     
  -3.8949999999999999E-002     0.0000000000000000     
  -3.8900000000000004E-002     0.0000000000000000     
  -3.8850000000000003E-002     0.0000000000000000     
  -3.8800000000000001E-002     0.0000000000000000     
  -3.8750000000000000E-002     0.0000000000000000     
  -3.8699999999999998E-002     0.0000000000000000     
  -3.8650000000000004E-002     0.0000000000000000     
  -3.8600000000000002E-002     0.0000000000000000     
  -3.8550000000000001E-002     0.0000000000000000     
  -3.8500000000000000E-002     0.0000000000000000     
  -3.8449999999999998E-002     0.0000000000000000     
  -3.8400000000000004E-002     0.0000000000000000     
  -3.8350000000000002E-002     0.0000000000000000     
  -3.8300000000000001E-002     0.0000000000000000     
  -3.8249999999999999E-002    -9.0574973172404104E-040
  -3.8199999999999998E-002    -4.4061471174537071E-039
  -3.8150000000000003E-002    -1.5523813005649987E-038
  -3.8100000000000002E-002    -4.1246342409884012E-038
  -3.8050000000000000E-002    -6.6920649849120221E-038
  -3.7999999999999999E-002     3.8485834125734673E-038
  -3.7949999999999998E-002     5.4344208467562246E-037
  -3.7900000000000003E-002     1.8120137983519727E-036
  -3.7850000000000002E-002     3.6524666208615657E-036
  -3.7800000000000000E-002     3.8024294313796838E-036
  -3.7749999999999999E-002    -3.8770194277502555E-036
  -3.7699999999999997E-002    -2.8602289707636768E-035
  -3.7650000000000003E-002    -7.3468287031814067E-035
  -3.7600000000000001E-002    -1.1346088483227347E-034
  -3.7550000000000000E-002    -6.8575214458797258E-035
  -3.7499999999999999E-002     1.9409349587800249E-034
  -3.7449999999999997E-002     7.7126851446549218E-034
  -3.7400000000000003E-002     1.5088658338157803E-033
  -3.7350000000000001E-002     1.7354116063347668E-033
  -3.7300000000000000E-002     2.1614277092169396E-034
  -3.7249999999999998E-002    -4.2518184388102173E-033
  -3.7200000000000004E-002    -1.1359416831666944E-032
  -3.7150000000000002E-002    -1.7405825588961971E-032
  -3.7100000000000001E-002    -1.4614649431949459E-032
  -3.7050000000000000E-002     6.1063100001838426E-033
  -3.6999999999999998E-002     4.7785321897277662E-032
  -3.6950000000000004E-002     9.7676959345471382E-032
  -3.6900000000000002E-002     1.2212870272997911E-031
  -3.6850000000000001E-002     7.5136632844773122E-032
  -3.6799999999999999E-002    -7.4646732806950933E-032
  -3.6749999999999998E-002    -3.0574436538455145E-031
  -3.6700000000000003E-002    -5.1676891700300460E-031
  -3.6650000000000002E-002    -5.4053690686249653E-031
  -3.6600000000000001E-002    -2.2039259235082313E-031
  -3.6549999999999999E-002     4.6006200671445309E-031
  -3.6499999999999998E-002     1.2481742285740554E-030
  -3.6450000000000003E-002     1.5965753381862185E-030
  -3.6400000000000002E-002     8.6677323392473762E-031
  -3.6350000000000000E-002    -1.1613686503445951E-030
  -3.6299999999999999E-002    -3.5878363332568118E-030
  -3.6249999999999998E-002    -3.9644171535417361E-030
  -3.6200000000000003E-002     1.0341443301667470E-030
  -3.6150000000000002E-002     1.3079102403673427E-029
  -3.6100000000000000E-002     2.8083268954606499E-029
  -3.6049999999999999E-002     3.2963605475103539E-029
  -3.6000000000000004E-002     7.8937837468294644E-030
  -3.5950000000000003E-002    -6.1620259957791114E-029
  -3.5900000000000001E-002    -1.6390563390623203E-028
  -3.5850000000000000E-002    -2.4291558029142661E-028
  -3.5799999999999998E-002    -2.0341025848399709E-028
  -3.5750000000000004E-002     4.2218889968134852E-029
  -3.5700000000000003E-002     4.9060439382946408E-028
  -3.5650000000000001E-002     9.7241962619175770E-028
  -3.5600000000000000E-002     1.1611316321251476E-027
  -3.5549999999999998E-002     7.2339823234368045E-028
  -3.5500000000000004E-002    -4.1914585469953297E-028
  -3.5450000000000002E-002    -1.8755953795580444E-027
  -3.5400000000000001E-002    -2.8506850214567328E-027
  -3.5349999999999999E-002    -2.6195811157299579E-027
  -3.5299999999999998E-002    -1.2308851978710908E-027
  -3.5250000000000004E-002     1.2093214553560080E-028
  -3.5200000000000002E-002    -2.7748025142604665E-028
  -3.5150000000000001E-002    -2.8549616416491599E-027
  -3.5099999999999999E-002    -4.7012954951403439E-027
  -3.5049999999999998E-002     6.8965687598012885E-028
  -3.5000000000000003E-002     1.9781650589995089E-026
  -3.4950000000000002E-002     5.1354606119666767E-026
  -3.4900000000000000E-002     7.8604242146447151E-026
  -3.4849999999999999E-002     6.8403260958699140E-026
  -3.4799999999999998E-002    -1.4843707270676273E-026
  -3.4750000000000003E-002    -1.7991423418990142E-025
  -3.4700000000000002E-002    -3.7585345238774685E-025
  -3.4650000000000000E-002    -4.7980796976082507E-025
  -3.4599999999999999E-002    -3.3204535123589236E-025
  -3.4549999999999997E-002     1.7303334986349376E-025
  -3.4500000000000003E-002     9.6803048881304061E-025
  -3.4450000000000001E-002     1.7344310745486359E-024
  -3.4400000000000000E-002     1.9491349378284788E-024
  -3.4349999999999999E-002     1.1026081265619918E-024
  -3.4299999999999997E-002    -9.5763410963428800E-025
  -3.4250000000000003E-002    -3.7185856613907681E-024
  -3.4200000000000001E-002    -5.9531377490953982E-024
  -3.4150000000000000E-002    -6.0985317306189400E-024
  -3.4099999999999998E-002    -3.0278801404114347E-024
  -3.4049999999999997E-002     3.0937159706967300E-024
  -3.4000000000000002E-002     1.0367798281616579E-023
  -3.3950000000000001E-002     1.5572465247088442E-023
  -3.3900000000000000E-002     1.5477908738064653E-023
  -3.3849999999999998E-002     8.5554160303778107E-024
  -3.3799999999999997E-002    -3.8569223421622496E-024
  -3.3750000000000002E-002    -1.7790867755411015E-023
  -3.3700000000000001E-002    -2.8427815905732391E-023
  -3.3649999999999999E-002    -3.2491686619802203E-023
  -3.3599999999999998E-002    -2.9588182288234662E-023
  -3.3550000000000003E-002    -2.1154981226133540E-023
  -3.3500000000000002E-002    -7.3091793201867523E-024
  -3.3450000000000001E-002     1.5930953440291256E-023
  -3.3399999999999999E-002     5.5384939864631500E-023
  -3.3349999999999998E-002     1.1316878920423676E-022
  -3.3300000000000003E-002     1.7504908503260181E-022
  -3.3250000000000002E-002     2.0244467277686076E-022
  -3.3200000000000000E-002     1.3872548061809454E-022
  -3.3149999999999999E-002    -6.3336401374799703E-023
  -3.3099999999999997E-002    -3.9783237283839147E-022
  -3.3050000000000003E-002    -7.6625798614477717E-022
  -3.3000000000000002E-002    -9.7345887626046401E-022
  -3.2950000000000000E-002    -7.8514784285874956E-022
  -3.2899999999999999E-002    -4.7493342986928455E-023
  -3.2850000000000004E-002     1.1708644642621207E-021
  -3.2800000000000003E-002     2.4897335881488026E-021
  -3.2750000000000001E-002     3.2628462544770855E-021
  -3.2700000000000000E-002     2.7986003217197658E-021
  -3.2649999999999998E-002     7.1273519876184283E-022
  -3.2600000000000004E-002    -2.7253433546413975E-021
  -3.2550000000000003E-002    -6.4450237286095668E-021
  -3.2500000000000001E-002    -8.7843808672816826E-021
  -3.2450000000000000E-002    -8.0817570978976835E-021
  -3.2399999999999998E-002    -3.4794536009801958E-021
  -3.2350000000000004E-002     4.3949813661219777E-021
  -3.2300000000000002E-002     1.3241752234584312E-020
  -3.2250000000000001E-002     1.9622391325648619E-020
  -3.2199999999999999E-002     2.0143158242583721E-020
  -3.2149999999999998E-002     1.2891141861495310E-020
  -3.2100000000000004E-002    -1.4652048002431077E-021
  -3.2050000000000002E-002    -1.9432734070082870E-020
  -3.2000000000000001E-002    -3.5502788728726010E-020
  -3.1949999999999999E-002    -4.3763800603521880E-020
  -3.1899999999999998E-002    -3.9731252860007726E-020
  -3.1850000000000003E-002    -2.1765823890348319E-020
  -3.1800000000000002E-002     8.2746293811366379E-021
  -3.1750000000000000E-002     4.5091297105148512E-020
  -3.1699999999999999E-002     8.0399059896191679E-020
  -3.1649999999999998E-002     1.0360233498169157E-019
  -3.1600000000000003E-002     1.0298817130520017E-019
  -3.1550000000000002E-002     6.8175456056597811E-020
  -3.1500000000000000E-002    -5.5644989933454422E-021
  -3.1449999999999999E-002    -1.1153857137259761E-019
  -3.1399999999999997E-002    -2.2658274361008469E-019
  -3.1350000000000003E-002    -3.1046490430781583E-019
  -3.1300000000000001E-002    -3.1355752985565194E-019
  -3.1250000000000000E-002    -1.9420830424049842E-019
  -3.1199999999999999E-002     5.7539578644061465E-020
  -3.1150000000000001E-002     3.9873798645818286E-019
  -3.1100000000000003E-002     7.2706234255550243E-019
  -3.1050000000000001E-002     8.9957942266806427E-019
  -3.1000000000000000E-002     7.7912380528052679E-019
  -3.0949999999999998E-002     2.9780564246350980E-019
  -3.0900000000000000E-002    -4.8550390043538668E-019
  -3.0850000000000002E-002    -1.3627971489951945E-018
  -3.0800000000000001E-002    -2.0125792645921820E-018
  -3.0750000000000000E-002    -2.0972322512648953E-018
  -3.0699999999999998E-002    -1.3987405994357488E-018
  -3.0650000000000000E-002     5.4804814309306363E-020
  -3.0600000000000002E-002     1.9288005940895254E-018
  -3.0550000000000001E-002     3.6309118894974722E-018
  -3.0499999999999999E-002     4.4760213702131906E-018
  -3.0449999999999998E-002     3.9271611691399216E-018
  -3.0400000000000000E-002     1.8325890828335025E-018
  -3.0350000000000002E-002    -1.4343431520137837E-018
  -3.0300000000000001E-002    -5.0032659515274339E-018
  -3.0249999999999999E-002    -7.7192074386067582E-018
  -3.0200000000000001E-002    -8.4885011914330517E-018
  -3.0150000000000000E-002    -6.6533220501717122E-018
  -3.0100000000000002E-002    -2.2716020843409960E-018
  -3.0050000000000000E-002     3.7954503792361789E-018
  -2.9999999999999999E-002     1.0026748550961087E-017
  -2.9950000000000001E-002     1.4585015459405910E-017
  -2.9899999999999999E-002     1.5777093971290103E-017
  -2.9850000000000002E-002     1.2525617383839043E-017
  -2.9800000000000000E-002     4.7542521382793631E-018
  -2.9749999999999999E-002    -6.3912550203787667E-018
  -2.9700000000000001E-002    -1.8549059560364817E-017
  -2.9650000000000003E-002    -2.8431124716480773E-017
  -2.9600000000000001E-002    -3.2439618196744568E-017
  -2.9550000000000000E-002    -2.7599455380930276E-017
  -2.9499999999999998E-002    -1.2683983606612415E-017
  -2.9450000000000000E-002     1.0747149799272269E-017
  -2.9400000000000003E-002     3.7819735991102983E-017
  -2.9350000000000001E-002     6.0774901194498414E-017
  -2.9300000000000000E-002     7.0630698313390287E-017
  -2.9249999999999998E-002     5.9951967260904366E-017
  -2.9200000000000000E-002     2.6075514719285415E-017
  -2.9150000000000002E-002    -2.6324037283691692E-017
  -2.9100000000000001E-002    -8.4589960662158804E-017
  -2.9049999999999999E-002    -1.3026779869758103E-016
  -2.8999999999999998E-002    -1.4415542021579230E-016
  -2.8950000000000000E-002    -1.1309341176266668E-016
  -2.8900000000000002E-002    -3.6340895521077413E-017
  -2.8850000000000001E-002     7.1031307454075135E-017
  -2.8799999999999999E-002     1.7976015859561160E-016
  -2.8749999999999998E-002     2.5356157427639390E-016
  -2.8700000000000000E-002     2.6036119237050310E-016
  -2.8650000000000002E-002     1.8424730359930082E-016
  -2.8600000000000000E-002     3.3929776328131478E-017
  -2.8549999999999999E-002    -1.5590554208548142E-016
  -2.8500000000000001E-002    -3.3189365993138980E-016
  -2.8450000000000000E-002    -4.3657580993421221E-016
  -2.8400000000000002E-002    -4.2618878464287453E-016
  -2.8350000000000000E-002    -2.8608753473208719E-016
  -2.8299999999999999E-002    -3.8622015205968581E-017
  -2.8250000000000001E-002     2.5950756081780302E-016
  -2.8200000000000003E-002     5.3014865735345981E-016
  -2.8150000000000001E-002     6.9346149719282324E-016
  -2.8100000000000000E-002     6.8925126399351020E-016
  -2.8049999999999999E-002     4.9439284552482878E-016
  -2.8000000000000001E-002     1.3223094059375402E-016
  -2.7950000000000003E-002    -3.2803491599109391E-016
  -2.7900000000000001E-002    -7.8196529852777436E-016
  -2.7850000000000000E-002    -1.1091084017161226E-015
  -2.7799999999999998E-002    -1.1985867048076807E-015
  -2.7750000000000000E-002    -9.7784806594351754E-016
  -2.7700000000000002E-002    -4.3981834685251719E-016
  -2.7650000000000001E-002     3.3836874178816569E-016
  -2.7600000000000000E-002     1.1933663559397702E-015
  -2.7549999999999998E-002     1.8977730018908605E-015
  -2.7500000000000000E-002     2.2091913274665177E-015
  -2.7450000000000002E-002     1.9402733872843547E-015
  -2.7400000000000001E-002     1.0333177725225614E-015
  -2.7349999999999999E-002    -3.8531239309450284E-016
  -2.7299999999999998E-002    -1.9969816274637101E-015
  -2.7250000000000000E-002    -3.3458699238744952E-015
  -2.7200000000000002E-002    -3.9555954243933406E-015
  -2.7150000000000001E-002    -3.4817975246325316E-015
  -2.7099999999999999E-002    -1.8549078946512734E-015
  -2.7049999999999998E-002     6.4001120153269097E-016
  -2.7000000000000000E-002     3.3879247506931894E-015
  -2.6950000000000002E-002     5.5846427473025993E-015
  -2.6900000000000000E-002     6.4654675486209893E-015
  -2.6849999999999999E-002     5.5570765032251314E-015
  -2.6800000000000001E-002     2.8701621216806308E-015
  -2.6749999999999999E-002    -1.0397957682133263E-015
  -2.6700000000000002E-002    -5.1789882883535484E-015
  -2.6650000000000000E-002    -8.3707395984089457E-015
  -2.6599999999999999E-002    -9.5902945355854214E-015
  -2.6550000000000001E-002    -8.2788066887531051E-015
  -2.6500000000000003E-002    -4.5389503026278425E-015
  -2.6450000000000001E-002     8.5021512829859893E-016
  -2.6400000000000000E-002     6.6061124289592155E-015
  -2.6349999999999998E-002     1.1254545938246824E-014
  -2.6300000000000000E-002     1.3495104483123640E-014
  -2.6250000000000002E-002     1.2526936697414553E-014
  -2.6200000000000001E-002     8.2615962832817788E-015
  -2.6150000000000000E-002     1.3846271994428586E-015
  -2.6099999999999998E-002    -6.7380426922721486E-015
  -2.6050000000000000E-002    -1.4289878790920342E-014
  -2.6000000000000002E-002    -1.9340064054928508E-014
  -2.5950000000000001E-002    -2.0249951886939191E-014
  -2.5899999999999999E-002    -1.6098885938804532E-014
  -2.5849999999999998E-002    -7.0526665880466953E-015
  -2.5800000000000000E-002     5.4310730757398840E-015
  -2.5750000000000002E-002     1.8676442804590854E-014
  -2.5700000000000001E-002     2.9224795756217515E-014
  -2.5649999999999999E-002     3.3626927013433161E-014
  -2.5599999999999998E-002     2.9456205907610879E-014
  -2.5550000000000000E-002     1.6275846224635853E-014
  -2.5500000000000002E-002    -3.7795192722623557E-015
  -2.5450000000000000E-002    -2.6110019702758825E-014
  -2.5399999999999999E-002    -4.4579133747854208E-014
  -2.5349999999999998E-002    -5.3134968034215446E-014
  -2.5300000000000000E-002    -4.7715970331991598E-014
  -2.5250000000000002E-002    -2.7847838831015764E-014
  -2.5200000000000000E-002     2.6610882658980427E-015
  -2.5149999999999999E-002     3.6299703705574918E-014
  -2.5100000000000001E-002     6.3693693592176679E-014
  -2.5049999999999999E-002     7.6252945793620018E-014
  -2.5000000000000001E-002     6.8848825558367242E-014
  -2.4950000000000000E-002     4.1660307786324885E-014
  -2.4899999999999999E-002     5.3846178082758387E-016
  -2.4850000000000001E-002    -4.4312226713175425E-014
  -2.4800000000000003E-002    -8.1000454626401555E-014
  -2.4750000000000001E-002    -9.9190889886074080E-014
  -2.4700000000000000E-002    -9.2970192755899517E-014
  -2.4649999999999998E-002    -6.2517372186444777E-014
  -2.4600000000000000E-002    -1.4149890797323328E-014
  -2.4550000000000002E-002     4.1187843956422020E-014
  -2.4500000000000001E-002     9.0506283814107437E-014
  -2.4450000000000000E-002     1.2172186200979504E-013
  -2.4399999999999998E-002     1.2630388649707178E-013
  -2.4350000000000000E-002     1.0114330049102103E-013
  -2.4299999999999999E-002     4.9413820887900064E-014
  -2.4250000000000001E-002    -1.9628523675349458E-014
  -2.4199999999999999E-002    -9.1893944332900738E-014
  -2.4150000000000001E-002    -1.5072840876171953E-013
  -2.4100000000000000E-002    -1.8010614323312998E-013
  -2.4049999999999998E-002    -1.6843020892650497E-013
  -2.4000000000000000E-002    -1.1226928800959221E-013
  -2.3949999999999999E-002    -1.9000560573997682E-014
  -2.3900000000000001E-002     9.2806640320906808E-014
  -2.3850000000000000E-002     1.9613632815060480E-013
  -2.3800000000000002E-002     2.6147795460721228E-013
  -2.3750000000000000E-002     2.6493642622523002E-013
  -2.3699999999999999E-002     1.9636953154482449E-013
  -2.3650000000000001E-002     6.4855996329456362E-014
  -2.3599999999999999E-002    -1.0087981763795817E-013
  -2.3550000000000001E-002    -2.5817386722487738E-013
  -2.3500000000000000E-002    -3.6139840096381793E-013
  -2.3449999999999999E-002    -3.7537764460740968E-013
  -2.3400000000000001E-002    -2.8716730049253802E-013
  -2.3349999999999999E-002    -1.1217428751333351E-013
  -2.3300000000000001E-002     1.0792062089573757E-013
  -2.3250000000000000E-002     3.1545439123993916E-013
  -2.3199999999999998E-002     4.5258319367775519E-013
  -2.3150000000000000E-002     4.7793630516012065E-013
  -2.3099999999999999E-002     3.7901628077674486E-013
  -2.3050000000000001E-002     1.7650067099370963E-013
  -2.3000000000000000E-002    -8.0854807776351341E-014
  -2.2950000000000002E-002    -3.2908121322021172E-013
  -2.2900000000000000E-002    -5.0571054567437893E-013
  -2.2849999999999999E-002    -5.6552662842626468E-013
  -2.2800000000000001E-002    -4.9123902731166757E-013
  -2.2749999999999999E-002    -2.9684310429466938E-013
  -2.2700000000000001E-002    -2.3681362287569613E-014
  -2.2650000000000000E-002     2.6899180978391432E-013
  -2.2599999999999999E-002     5.1632247908099327E-013
  -2.2550000000000001E-002     6.6057432936347583E-013
  -2.2499999999999999E-002     6.6244884170578529E-013
  -2.2450000000000001E-002     5.0980265613521721E-013
  -2.2400000000000000E-002     2.2270099462369783E-013
  -2.2349999999999998E-002    -1.4649797390053305E-013
  -2.2300000000000000E-002    -5.1947251412420341E-013
  -2.2249999999999999E-002    -8.0552038639707684E-013
  -2.2200000000000001E-002    -9.2152545247760608E-013
  -2.2150000000000000E-002    -8.1487956158001159E-013
  -2.2100000000000002E-002    -4.8344233285636147E-013
  -2.2050000000000000E-002     1.4514415006103839E-014
  -2.1999999999999999E-002     5.6615010619414575E-013
  -2.1950000000000001E-002     1.0275064866733504E-012
  -2.1899999999999999E-002     1.2606691322146374E-012
  -2.1850000000000001E-002     1.1751442910253337E-012
  -2.1800000000000000E-002     7.6072381866600078E-013
  -2.1749999999999999E-002     9.9951799759429001E-014
  -2.1700000000000001E-002    -6.4645483029097627E-013
  -2.1649999999999999E-002    -1.2795777643450090E-012
  -2.1600000000000001E-002    -1.6173580323452531E-012
  -2.1550000000000000E-002    -1.5485647072620053E-012
  -2.1499999999999998E-002    -1.0687336008515308E-012
  -2.1450000000000000E-002    -2.8609438711075321E-013
  -2.1399999999999999E-002     6.0529727917448318E-013
  -2.1350000000000001E-002     1.3776747039824578E-012
  -2.1299999999999999E-002     1.8314666860111829E-012
  -2.1250000000000002E-002     1.8487550418458044E-012
  -2.1200000000000000E-002     1.4232030522095060E-012
  -2.1149999999999999E-002     6.5914067320191810E-013
  -2.1100000000000001E-002    -2.5803746523219870E-013
  -2.1049999999999999E-002    -1.1101144824195110E-012
  -2.1000000000000001E-002    -1.6989906516149039E-012
  -2.0950000000000000E-002    -1.8911257331472433E-012
  -2.0899999999999998E-002    -1.6445874231544077E-012
  -2.0850000000000000E-002    -1.0154324943792410E-012
  -2.0799999999999999E-002    -1.4490203092445079E-013
  -2.0750000000000001E-002     7.6842934489977137E-013
  -2.0700000000000000E-002     1.5066806934062297E-012
  -2.0649999999999998E-002     1.8760326992868540E-012
  -2.0600000000000000E-002     1.7500815394576532E-012
  -2.0549999999999999E-002     1.1062397246051285E-012
  -2.0500000000000001E-002     4.6410893482809668E-014
  -2.0449999999999999E-002    -1.2071366558271794E-012
  -2.0400000000000001E-002    -2.3466948813784789E-012
  -2.0350000000000000E-002    -3.0437280170162026E-012
  -2.0299999999999999E-002    -3.0322420160379052E-012
  -2.0250000000000001E-002    -2.1907017882835854E-012
  -2.0199999999999999E-002    -5.9763666188322998E-013
  -2.0150000000000001E-002     1.4608015700134900E-012
  -2.0100000000000000E-002     3.5415165396720229E-012
  -2.0049999999999998E-002     5.1462778729890962E-012
  -2.0000000000000000E-002     5.8499934083160665E-012
  -1.9949999999999999E-002     5.4192903351661166E-012
  -1.9900000000000001E-002     3.8847568522681857E-012
  -1.9850000000000000E-002     1.5419907570916545E-012
  -1.9799999999999998E-002    -1.1224283521129226E-012
  -1.9750000000000000E-002    -3.5604514355190295E-012
  -1.9699999999999999E-002    -5.3098978568623386E-012
  -1.9650000000000001E-002    -6.1156328652295663E-012
  -1.9599999999999999E-002    -5.9883025152083223E-012
  -1.9550000000000001E-002    -5.1835819023124108E-012
  -1.9500000000000000E-002    -4.1091015245215180E-012
  -1.9449999999999999E-002    -3.1874717288435054E-012
  -1.9400000000000001E-002    -2.7154307548882484E-012
  -1.9349999999999999E-002    -2.7581247432935398E-012
  -1.9300000000000001E-002    -3.1053193609283584E-012
  -1.9250000000000000E-002    -3.2978622456505401E-012
  -1.9199999999999998E-002    -2.7142539788318099E-012
  -1.9150000000000000E-002    -6.9406751574010348E-013
  -1.9099999999999999E-002     3.3304286143541863E-012
  -1.9050000000000001E-002     9.7210421085617236E-012
  -1.9000000000000000E-002     1.8558719707365642E-011
  -1.8949999999999998E-002     2.9618599304317999E-011
  -1.8900000000000000E-002     4.2398755985411464E-011
  -1.8849999999999999E-002     5.6199374624932715E-011
  -1.8800000000000001E-002     7.0242077559364538E-011
  -1.8749999999999999E-002     8.3811710951643750E-011
  -1.8700000000000001E-002     9.6395553996073481E-011
  -1.8650000000000000E-002     1.0778997748772190E-010
  -1.8599999999999998E-002     1.1814596613340201E-010
  -1.8550000000000001E-002     1.2793396799701926E-010
  -1.8499999999999999E-002     1.3782704608369164E-010
  -1.8450000000000001E-002     1.4852375708436134E-010
  -1.8400000000000000E-002     1.6055294425298727E-010
  -1.8349999999999998E-002     1.7411420564937271E-010
  -1.8300000000000000E-002     1.8900359731585080E-010
  -1.8249999999999999E-002     2.0465370889077323E-010
  -1.8200000000000001E-002     2.2028495167478888E-010
  -1.8149999999999999E-002     2.3513062323485312E-010
  -1.8100000000000002E-002     2.4867296627195284E-010
  -1.8050000000000000E-002     2.6082004603630421E-010
  -1.7999999999999999E-002     2.7196722468269144E-010
  -1.7950000000000001E-002     2.8292026667667363E-010
  -1.7899999999999999E-002     2.9469660050600704E-010
  -1.7850000000000001E-002     3.0825751101719765E-010
  -1.7800000000000000E-002     3.2424618516730488E-010
  -1.7749999999999998E-002     3.4280286792259427E-010
  -1.7700000000000000E-002     3.6350835445718623E-010
  -1.7649999999999999E-002     3.8546988591988080E-010
  -1.7600000000000001E-002     4.0752546373157674E-010
  -1.7550000000000000E-002     4.2851365325881505E-010
  -1.7499999999999998E-002     4.4754116969089297E-010
  -1.7450000000000000E-002     4.6418552198424357E-010
  -1.7399999999999999E-002     4.7858748544933140E-010
  -1.7350000000000001E-002     4.9141785261800387E-010
  -1.7299999999999999E-002     5.0373062324454331E-010
  -1.7250000000000001E-002     5.1673837874499045E-010
  -1.7200000000000000E-002     5.3155870820450358E-010
  -1.7149999999999999E-002     5.4898503422883223E-010
  -1.7100000000000001E-002     5.6932813577238796E-010
  -1.7049999999999999E-002     5.9236090787511293E-010
  -1.7000000000000001E-002     6.1737936846659396E-010
  -1.6950000000000000E-002     6.4336939581444877E-010
  -1.6899999999999998E-002     6.6924714389379621E-010
  -1.6850000000000000E-002     6.9412012319061098E-010
  -1.6799999999999999E-002     7.1750999110496678E-010
  -1.6750000000000001E-002     7.3947972971422363E-010
  -1.6700000000000000E-002     7.6063060219981330E-010
  -1.6649999999999998E-002     7.8196111681108999E-010
  -1.6600000000000000E-002     8.0461788316264496E-010
  -1.6549999999999999E-002     8.2959868685003963E-010
  -1.6500000000000001E-002     8.5748283657798592E-010
  -1.6449999999999999E-002     8.8826537234378517E-010
  -1.6400000000000001E-002     9.2134315372564859E-010
  -1.6350000000000000E-002     9.5566488334789939E-010
  -1.6299999999999999E-002     9.9000973326098856E-010
  -1.6250000000000001E-002     1.0233223080237949E-009
  -1.6199999999999999E-002     1.0550164954629233E-009
  -1.6150000000000001E-002     1.0851626060234221E-009
  -1.6100000000000000E-002     1.1145062231525415E-009
  -1.6049999999999998E-002     1.1443099105162814E-009
  -1.6000000000000000E-002     1.1760544642737766E-009
  -1.5949999999999999E-002     1.2110759684113752E-009
  -1.5900000000000001E-002     1.2502274749808315E-009
  -1.5850000000000000E-002     1.2936535747074356E-009
  -1.5799999999999998E-002     1.3407343224290502E-009
  -1.5750000000000000E-002     1.3902161310054609E-009
  -1.5699999999999999E-002     1.4404959624699745E-009
  -1.5650000000000001E-002     1.4899929330416909E-009
  -1.5599999999999999E-002     1.5375179232286077E-009
  -1.5550000000000001E-002     1.5825540590823916E-009
  -1.5500000000000000E-002     1.6253850239008631E-009
  -1.5449999999999998E-002     1.6670402826196641E-009
  -1.5400000000000000E-002     1.7090734564768218E-009
  -1.5349999999999999E-002     1.7532265002369271E-009
  -1.5300000000000001E-002     1.8010552895427861E-009
  -1.5250000000000000E-002     1.8536098567339063E-009
  -1.5199999999999998E-002     1.9112357596999901E-009
  -1.5150000000000000E-002     1.9735435094743618E-009
  -1.5099999999999999E-002     2.0395456382951295E-009
  -1.5050000000000001E-002     2.1079225765896069E-009
  -1.4999999999999999E-002     2.1773506567270169E-009
  -1.4949999999999998E-002     2.2468143222812552E-009
  -1.4900000000000000E-002     2.3158273191224903E-009
  -1.4849999999999999E-002     2.3845171245128997E-009
  -1.4800000000000001E-002     2.4535557902517566E-009
  -1.4749999999999999E-002     2.5239616330955899E-009
  -1.4700000000000001E-002     2.5968213212062955E-009
  -1.4650000000000000E-002     2.6730056621863535E-009
  -1.4599999999999998E-002     2.7529476958196002E-009
  -1.4550000000000000E-002     2.8365388322364141E-009
  -1.4499999999999999E-002     2.9231665675238007E-009
  -1.4450000000000001E-002     3.0118885902766515E-009
  -1.4400000000000000E-002     3.1017018402718509E-009
  -1.4349999999999998E-002     3.1918410069148564E-009
  -1.4300000000000000E-002     3.2820364008158020E-009
  -1.4249999999999999E-002     3.3726601891515319E-009
  -1.4200000000000001E-002     3.4647162167134370E-009
  -1.4149999999999999E-002     3.5596697844905892E-009
  -1.4099999999999998E-002     3.6591411208518520E-009
  -1.4050000000000000E-002     3.7645419207003575E-009
  -1.3999999999999999E-002     3.8767364024723222E-009
  -1.3950000000000001E-002     3.9958160061985002E-009
  -1.3899999999999999E-002     4.1210481057734954E-009
  -1.3850000000000001E-002     4.2510200136591202E-009
  -1.3800000000000000E-002     4.3839425300504505E-009
  -1.3749999999999998E-002     4.5180499917574832E-009
  -1.3700000000000000E-002     4.6519950177655856E-009
  -1.3649999999999999E-002     4.7851524214344997E-009
  -1.3600000000000001E-002     4.9177492219217893E-009
  -1.3550000000000000E-002     5.0508056289885240E-009
  -1.3499999999999998E-002     5.1858995330819573E-009
  -1.3450000000000000E-002     5.3248271767026144E-009
  -1.3399999999999999E-002     5.4692451957767330E-009
  -1.3350000000000001E-002     5.6203762478989563E-009
  -1.3299999999999999E-002     5.7788364326951202E-009
  -1.3249999999999998E-002     5.9446179455669218E-009
  -1.3200000000000000E-002     6.1172008495231616E-009
  -1.3149999999999998E-002     6.2957547577544338E-009
  -1.3100000000000001E-002     6.4793769964066851E-009
  -1.3049999999999999E-002     6.6673028910518166E-009
  -1.3000000000000001E-002     6.8590595363259256E-009
  -1.2950000000000000E-002     7.0545310998041240E-009
  -1.2899999999999998E-002     7.2539371089532720E-009
  -1.2850000000000000E-002     7.4577370119689215E-009
  -1.2799999999999999E-002     7.6664952897299370E-009