  -4.0000000000000001E-002     0.0000000000000000     
  -3.9949999999999999E-002     0.0000000000000000     
  -3.9899999999999998E-002     0.0000000000000000     
  -3.9850000000000003E-002     0.0000000000000000     
  -3.9800000000000002E-002     0.0000000000000000     
  -3.9750000000000001E-002     0.0000000000000000     
  -3.9699999999999999E-002     0.0000000000000000     
  -3.9649999999999998E-002     0.0000000000000000     
  -3.9600000000000003E-002     0.0000000000000000     
  -3.9550000000000002E-002     0.0000000000000000     
  -3.9500000000000000E-002     0.0000000000000000     
  -3.9449999999999999E-002     1.4385303248169240E-034
  -3.9399999999999998E-002     1.9189412319572081E-032
  -3.9350000000000003E-002     3.2566199969905570E-031
  -3.9300000000000002E-002     2.9037974785554458E-030
  -3.9250000000000000E-002     1.7438306057985013E-029
  -3.9199999999999999E-002     7.8189874497562917E-029
  -3.9150000000000004E-002     2.7554468852308639E-028
  -3.9100000000000003E-002     7.8067091770712136E-028
  -3.9050000000000001E-002     1.7713191352776143E-027
  -3.9000000000000000E-002     3.0527843952175149E-027
  -3.8949999999999999E-002     3.0860876045535455E-027
  -3.8900000000000004E-002    -2.7303977248974578E-027
  -3.8850000000000003E-002    -2.4083657709668035E-026
  -3.8800000000000001E-002    -7.6422401790156142E-026
  -3.8750000000000000E-002    -1.7695028435609374E-025
  -3.8699999999999998E-002    -3.3094024544186459E-025
  -3.8650000000000004E-002    -5.0261102005985815E-025
  -3.8600000000000002E-002    -5.6647121823297770E-025
  -3.8550000000000001E-002    -2.4240804975844709E-025
  -3.8500000000000000E-002     9.6273537391904835E-025
  -3.8449999999999998E-002     3.7445999491628046E-024
  -3.8400000000000004E-002     8.7982399318251197E-024
  -3.8350000000000002E-002     1.6242237300036414E-023
  -3.8300000000000001E-002     2.4511058812420680E-023
  -3.8249999999999999E-002     2.8777654580751672E-023
  -3.8199999999999998E-002     1.9499123531740235E-023
  -3.8150000000000003E-002    -1.7516781061796175E-023
  -3.8100000000000002E-002    -9.7398908252934291E-023
  -3.8050000000000000E-002    -2.2682022855612795E-022
  -3.7999999999999999E-002    -3.8873502967592738E-022
  -3.7949999999999998E-002    -5.2517502314065526E-022
  -3.7900000000000003E-002    -5.2768655246548285E-022
  -3.7850000000000002E-002    -2.4951188937444976E-022
  -3.7800000000000000E-002     4.4730295143227540E-022
  -3.7749999999999999E-002     1.6072018132259498E-021
  -3.7699999999999997E-002     3.0770992181672340E-021
  -3.7650000000000003E-002     4.4271408267050912E-021
  -3.7600000000000001E-002     4.9580807080781441E-021
  -3.7550000000000000E-002     3.8502267410730180E-021
  -3.7499999999999999E-002     4.6557475601051796E-022
  -3.7449999999999997E-002    -5.2613229114671062E-021
  -3.7400000000000003E-002    -1.2491234970935640E-020
  -3.7350000000000001E-002    -1.9399890920704972E-020
  -3.7300000000000000E-002    -2.3504798214963355E-020
  -3.7249999999999998E-002    -2.2414032234717120E-020
  -3.7200000000000004E-002    -1.4798658520016833E-020
  -3.7150000000000002E-002    -1.1915906247270015E-021
  -3.7100000000000001E-002     1.5850834725219639E-020
  -3.7050000000000000E-002     3.2526984012605770E-020
  -3.6999999999999998E-002     4.5412707418006902E-020
  -3.6950000000000004E-002     5.3319214712909701E-020
  -3.6900000000000002E-002     5.8378772834486700E-020
  -3.6850000000000001E-002     6.5336706638826317E-020
  -3.6799999999999999E-002     7.8569467131695175E-020
  -3.6749999999999998E-002     9.7396981528960743E-020
  -3.6700000000000003E-002     1.1148982944515499E-019
  -3.6650000000000002E-002     9.9047133498670880E-020
  -3.6600000000000001E-002     3.0366641849414666E-020
  -3.6549999999999999E-002    -1.2191110887459828E-019
  -3.6499999999999998E-002    -3.6713106358214258E-019
  -3.6450000000000003E-002    -6.7983823148867960E-019
  -3.6400000000000002E-002    -9.8869026642901956E-019
  -3.6350000000000000E-002    -1.1785481446291605E-018
  -3.6299999999999999E-002    -1.1111116008510527E-018
  -3.6249999999999998E-002    -6.6438344816318231E-019
  -3.6200000000000003E-002     2.1588704892526806E-019
  -3.6150000000000002E-002     1.4668204439766329E-018
  -3.6100000000000000E-002     2.8796491217446266E-018
  -3.6049999999999999E-002     4.1094094381176382E-018
  -3.6000000000000004E-002     4.7334142508183794E-018
  -3.5950000000000003E-002     4.3551494653236727E-018
  -3.5900000000000001E-002     2.7334827140644742E-018
  -3.5850000000000000E-002    -9.7559905217264885E-020
  -3.5799999999999998E-002    -3.7596984950550856E-018
  -3.5750000000000004E-002    -7.5470500779577201E-018
  -3.5700000000000003E-002    -1.0543707958514079E-017
  -3.5650000000000001E-002    -1.1827863368498339E-017
  -3.5600000000000000E-002    -1.0717392850303712E-017
  -3.5549999999999998E-002    -6.9910417491350865E-018
  -3.5500000000000004E-002    -1.0176512026202621E-018
  -3.5450000000000002E-002     6.2531480880998510E-018
  -3.5400000000000001E-002     1.3446495782600793E-017
  -3.5349999999999999E-002     1.9027794069872165E-017
  -3.5299999999999998E-002     2.1609098111069663E-017
  -3.5250000000000004E-002     2.0219604257382154E-017
  -3.5200000000000002E-002     1.4485215211341976E-017
  -3.5150000000000001E-002     4.7046202545699145E-018
  -3.5099999999999999E-002    -8.1471794824194205E-018
  -3.5049999999999998E-002    -2.2436659272828817E-017
  -3.5000000000000003E-002    -3.5879012142212170E-017
  -3.4950000000000002E-002    -4.5561624816195161E-017
  -3.4900000000000000E-002    -4.8085042815333454E-017
  -3.4849999999999999E-002    -3.9971851853711453E-017
  -3.4799999999999998E-002    -1.8473175875507886E-017
  -3.4750000000000003E-002     1.7216262528399677E-017
  -3.4700000000000002E-002     6.4531122827065804E-017
  -3.4650000000000000E-002     1.1633392007864839E-016
  -3.4599999999999999E-002     1.6055553629831478E-016
  -3.4549999999999997E-002     1.8130381014926581E-016
  -3.4500000000000003E-002     1.6182520155721467E-016
  -3.4450000000000001E-002     8.9202873575874018E-017
  -3.4400000000000000E-002    -4.0001025019273915E-017
  -3.4349999999999999E-002    -2.1461473730642210E-016
  -3.4299999999999997E-002    -4.0610281689374730E-016
  -3.4250000000000003E-002    -5.6997615298792324E-016
  -3.4200000000000001E-002    -6.5245450013080631E-016
  -3.4150000000000000E-002    -6.0219246273501190E-016
  -3.4099999999999998E-002    -3.8526349948320503E-016
  -3.4049999999999997E-002    -6.3532012921383958E-020
  -3.4000000000000002E-002     5.1214930420338575E-016
  -3.3950000000000001E-002     1.0652873430457857E-015
  -3.3900000000000000E-002     1.5379189083523438E-015
  -3.3849999999999998E-002     1.7946096459053538E-015
  -3.3799999999999997E-002     1.7163631408715394E-015
  -3.3750000000000002E-002     1.2343101424407602E-015
  -3.3700000000000001E-002     3.5865188800124979E-016
  -3.3649999999999999E-002    -8.0556925844623859E-016
  -3.3599999999999998E-002    -2.0625832555501428E-015
  -3.3550000000000003E-002    -3.1528330985531619E-015
  -3.3500000000000002E-002    -3.8005063319815513E-015
  -3.3450000000000001E-002    -3.7739544214105217E-015
  -3.3399999999999999E-002    -2.9468726179353325E-015
  -3.3349999999999998E-002    -1.3460083234338451E-015
  -3.3300000000000003E-002     8.2781987629677386E-016
  -3.3250000000000002E-002     3.2143025928142744E-015
  -3.3200000000000000E-002     5.3458011272936746E-015
  -3.3149999999999999E-002     6.7308461590538584E-015
  -3.3099999999999997E-002     6.9550010502504651E-015
  -3.3050000000000003E-002     5.7796918559651819E-015
  -3.3000000000000002E-002     3.2178975362564023E-015
  -3.2950000000000000E-002    -4.3176051814197347E-016
  -3.2899999999999999E-002    -4.6042413684900435E-015
  -3.2850000000000004E-002    -8.5427057104230893E-015
  -3.2800000000000003E-002    -1.1419944507291508E-014
  -3.2750000000000001E-002    -1.2488401103690701E-014
  -3.2700000000000000E-002    -1.1233823271226478E-014
  -3.2649999999999998E-002    -7.5050531550083140E-015
  -3.2600000000000004E-002    -1.5945083338087501E-015
  -3.2550000000000003E-002     5.7497825774975049E-015
  -3.2500000000000001E-002     1.3390222805621149E-014
  -3.2450000000000000E-002     1.9942078342401939E-014
  -3.2399999999999998E-002     2.3978882641145377E-014
  -3.2350000000000004E-002     2.4276547386778851E-014
  -3.2300000000000002E-002     2.0063076388429727E-014
  -3.2250000000000001E-002     1.1234822207945044E-014
  -3.2199999999999999E-002    -1.5016187447444639E-015
  -3.2149999999999998E-002    -1.6599524324247186E-014
  -3.2100000000000004E-002    -3.1782179654062194E-014
  -3.2050000000000002E-002    -4.4304318196039499E-014
  -3.2000000000000001E-002    -5.1352619924584581E-014
  -3.1949999999999999E-002    -5.0544773029533889E-014
  -3.1899999999999998E-002    -4.0457523664970221E-014
  -3.1850000000000003E-002    -2.1090362418235409E-014
  -3.1800000000000002E-002     5.8398090204142876E-015
  -3.1750000000000000E-002     3.6870246576393493E-014
  -3.1699999999999999E-002     6.7096751654804733E-014
  -3.1649999999999998E-002     9.0824267156654504E-014
  -3.1600000000000003E-002     1.0250747933060715E-013
  -3.1550000000000002E-002     9.7850980841655397E-014
  -3.1500000000000000E-002     7.4876174681010392E-014
  -3.1449999999999999E-002     3.4728490074331487E-014
  -3.1399999999999997E-002    -1.7991968275367897E-014
  -3.1350000000000003E-002    -7.5533479972053106E-014
  -3.1300000000000001E-002    -1.2798067531774349E-013
  -3.1250000000000000E-002    -1.6484155124764718E-013
  -3.1199999999999999E-002    -1.7700555989781736E-013
  -3.1150000000000001E-002    -1.5872870893489400E-013
  -3.1100000000000003E-002    -1.0924189404835949E-013
  -3.1050000000000001E-002    -3.3598423682242040E-014
  -3.1000000000000000E-002     5.7518299239130424E-014
  -3.0949999999999998E-002     1.4912604227910124E-013
  -3.0900000000000000E-002     2.2428893127945704E-013
  -3.0850000000000002E-002     2.6712714363177059E-013
  -3.0800000000000001E-002     2.6596540609682770E-013
  -3.0750000000000000E-002     2.1601128460266232E-013
  -3.0699999999999998E-002     1.2098887058259282E-013
  -3.0650000000000000E-002    -6.6888863436303911E-015
  -3.0600000000000002E-002    -1.4737032825543584E-013
  -3.0550000000000001E-002    -2.7709224558945053E-013
  -3.0499999999999999E-002    -3.7154127952022214E-013
  -3.0449999999999998E-002    -4.1038125522999809E-013
  -3.0400000000000000E-002    -3.8117478849278568E-013
  -3.0350000000000002E-002    -2.8216828997385166E-013
  -3.0300000000000001E-002    -1.2339186977793835E-013
  -3.0249999999999999E-002     7.4187708112587585E-014
  -3.0200000000000001E-002     2.8138776152498821E-013
  -3.0150000000000000E-002     4.6501111608252912E-013
  -3.0100000000000002E-002     5.9289095293979107E-013
  -3.0050000000000000E-002     6.3901139168556229E-013
  -2.9999999999999999E-002     5.8793437942721766E-013
  -2.9950000000000001E-002     4.3787599449332079E-013
  -2.9899999999999999E-002     2.0197180483833599E-013
  -2.9850000000000002E-002    -9.2489425887436574E-014
  -2.9800000000000000E-002    -4.0684054188673187E-013
  -2.9749999999999999E-002    -6.9557086734701639E-013
  -2.9700000000000001E-002    -9.1217867664307988E-013
  -2.9650000000000003E-002    -1.0157363046160703E-012
  -2.9600000000000001E-002    -9.7742591519914494E-013
  -2.9550000000000000E-002    -7.8620679237991194E-013
  -2.9499999999999998E-002    -4.5272757955079921E-013
  -2.9450000000000000E-002    -1.0646124989266387E-014
  -2.9400000000000003E-002     4.8530115091614677E-013
  -2.9350000000000001E-002     9.6479579039576109E-013
  -2.9300000000000000E-002     1.3508057470841612E-012
  -2.9249999999999998E-002     1.5710119893022356E-012
  -2.9200000000000000E-002     1.5703317695162353E-012
  -2.9150000000000002E-002     1.3225517337099659E-012
  -2.9100000000000001E-002     8.3882788962511622E-013
  -2.9049999999999999E-002     1.7095487063468940E-013
  -2.8999999999999998E-002    -5.9208220319999313E-013
  -2.8950000000000000E-002    -1.3347158584634794E-012
  -2.8900000000000002E-002    -1.9316688772683390E-012
  -2.8850000000000001E-002    -2.2688170801308353E-012
  -2.8799999999999999E-002    -2.2646274712953379E-012
  -2.8749999999999998E-002    -1.8881653973796310E-012
  -2.8700000000000000E-002    -1.1698249330359813E-012
  -2.8650000000000002E-002    -2.0191068852619337E-013
  -2.8600000000000000E-002     8.7210381647282092E-013
  -2.8549999999999999E-002     1.8786975996467344E-012
  -2.8500000000000001E-002     2.6427177053686350E-012
  -2.8450000000000000E-002     3.0183096186593008E-012
  -2.8400000000000002E-002     2.9167140114200308E-012
  -2.8350000000000000E-002     2.3255167609148890E-012
  -2.8299999999999999E-002     1.3152646624497610E-012
  -2.8250000000000001E-002     3.1586658421537483E-014
  -2.8200000000000003E-002    -1.3263511097486795E-012
  -2.8150000000000001E-002    -2.5376154018127393E-012
  -2.8100000000000000E-002    -3.3960621738742355E-012
  -2.8049999999999999E-002    -3.7452805447544466E-012
  -2.8000000000000001E-002    -3.5057950774299725E-012
  -2.7950000000000003E-002    -2.6898310818742678E-012
  -2.7900000000000001E-002    -1.4012345822752367E-012
  -2.7850000000000000E-002     1.7921714965191780E-013
  -2.7799999999999998E-002     1.8204059504380244E-012
  -2.7750000000000000E-002     3.2748349363714858E-012
  -2.7700000000000002E-002     4.3145576197696368E-012
  -2.7650000000000001E-002     4.7637844102299779E-012
  -2.7600000000000000E-002     4.5238570873040778E-012
  -2.7549999999999998E-002     3.5877659991386048E-012
  -2.7500000000000000E-002     2.0430135908540819E-012
  -2.7450000000000002E-002     6.3090312559635426E-014
  -2.7400000000000001E-002    -2.1111037153465069E-012
  -2.7349999999999999E-002    -4.1978810186561076E-012
  -2.7299999999999998E-002    -5.9070102840079751E-012
  -2.7250000000000000E-002    -6.9748725810302044E-012
  -2.7200000000000002E-002    -7.1994210603474117E-012
  -2.7150000000000001E-002    -6.4713671551206871E-012
  -2.7099999999999999E-002    -4.7975621466943129E-012
  -2.7049999999999998E-002    -2.3123726363065457E-012
  -2.7000000000000000E-002     7.2666302410622437E-013
  -2.6950000000000002E-002     3.9612192367379452E-012
  -2.6900000000000000E-002     6.9725555370801059E-012
  -2.6849999999999999E-002     9.3366509627210983E-012
  -2.6800000000000001E-002     1.0687479095680338E-011
  -2.6749999999999999E-002     1.0778886510485698E-011
  -2.6700000000000002E-002     9.5340109398333059E-012
  -2.6650000000000000E-002     7.0716048961959598E-012
  -2.6599999999999999E-002     3.7014501237106720E-012
  -2.6550000000000001E-002    -1.1403642158288755E-013
  -2.6500000000000003E-002    -3.8286230351196537E-012
  -2.6450000000000001E-002    -6.9016758818065419E-012
  -2.6400000000000000E-002    -8.8931340624768167E-012
  -2.6349999999999998E-002    -9.5463900413643609E-012
  -2.6300000000000000E-002    -8.8421568247756973E-012
  -2.6250000000000002E-002    -7.0107752151342954E-012
  -2.6200000000000001E-002    -4.4976770392960234E-012
  -2.6150000000000000E-002    -1.8856071899247367E-012
  -2.6099999999999998E-002     2.1406824590749758E-013
  -2.6050000000000000E-002     1.2820098372563097E-012
  -2.6000000000000002E-002     1.0014287253712165E-012
  -2.5950000000000001E-002    -6.6239419206287241E-013
  -2.5899999999999999E-002    -3.4290573670919571E-012
  -2.5849999999999998E-002    -6.7233516765881551E-012
  -2.5800000000000000E-002    -9.7459684979070790E-012
  -2.5750000000000002E-002    -1.1582224361989298E-011
  -2.5700000000000001E-002    -1.1329776189565021E-011
  -2.5649999999999999E-002    -8.2233397620693364E-012
  -2.5599999999999998E-002    -1.7358538759802449E-012
  -2.5550000000000000E-002     8.3591576312843544E-012
  -2.5500000000000002E-002     2.1971600630232472E-011
  -2.5450000000000000E-002     3.8724107928275495E-011
  -2.5399999999999999E-002     5.8017943767234296E-011
  -2.5349999999999998E-002     7.9121968309727162E-011
  -2.5300000000000000E-002     1.0126879804629155E-010
  -2.5250000000000002E-002     1.2374400465732811E-010
  -2.5200000000000000E-002     1.4595745400933905E-010
  -2.5149999999999999E-002     1.6749088736172351E-010
  -2.5100000000000001E-002     1.8812026837785563E-010
  -2.5049999999999999E-002     2.0781508169640600E-010
  -2.5000000000000001E-002     2.2671849361777327E-010
  -2.4950000000000000E-002     2.4511215451035703E-010
  -2.4899999999999999E-002     2.6336980052052091E-010
  -2.4850000000000001E-002     2.8190184667827727E-010
  -2.4800000000000003E-002     3.0109454269586113E-010
  -2.4750000000000001E-002     3.2124715288644357E-010
  -2.4700000000000000E-002     3.4251414108547668E-010
  -2.4649999999999998E-002     3.6485999777616889E-010
  -2.4600000000000000E-002     3.8803721652334671E-010
  -2.4550000000000002E-002     4.1159580517614453E-010
  -2.4500000000000001E-002     4.3493006636780089E-010
  -2.4450000000000000E-002     4.5736243066190892E-010
  -2.4399999999999998E-002     4.7825551967992190E-010
  -2.4350000000000000E-002     4.9713655490744124E-010
  -2.4299999999999999E-002     5.1381253440460297E-010
  -2.4250000000000001E-002     5.2845126661571568E-010
  -2.4199999999999999E-002     5.4160799059569628E-010
  -2.4150000000000001E-002     5.5418424804623574E-010
  -2.4100000000000000E-002     5.6731900160384629E-010
  -2.4049999999999998E-002     5.8222424896923141E-010
  -2.4000000000000000E-002     5.9999244141103015E-010
  -2.3949999999999999E-002     6.2140806771218977E-010
  -2.3900000000000001E-002     6.4680100446634682E-010
  -2.3850000000000000E-002     6.7597097122083263E-010
  -2.3800000000000002E-002     7.0820137711759511E-010
  -2.3750000000000000E-002     7.4236479638972161E-010
  -2.3699999999999999E-002     7.7710258164680395E-010
  -2.3650000000000001E-002     8.1104864116776225E-010
  -2.3599999999999999E-002     8.4305659169558262E-010
  -2.3550000000000001E-002     8.7238880897043496E-010
  -2.3500000000000000E-002     8.9883387527762816E-010
  -2.3449999999999999E-002     9.2273273117305309E-010
  -2.3400000000000001E-002     9.4490938898264619E-010
  -2.3349999999999999E-002     9.6652416046323977E-010
  -2.3300000000000001E-002     9.8887670735231731E-010
  -2.3250000000000000E-002     1.0131980451419587E-009
  -2.3199999999999998E-002     1.0404668417330772E-009
  -2.3150000000000000E-002     1.0712820931878007E-009
  -2.3099999999999999E-002     1.1058087280639038E-009
  -2.3050000000000001E-002     1.1437983531587248E-009
  -2.3000000000000000E-002     1.1846749300720653E-009
  -2.2950000000000002E-002     1.2276619090974908E-009
  -2.2900000000000000E-002     1.2719266924701595E-009
  -2.2849999999999999E-002     1.3167132169034626E-009
  -2.2800000000000001E-002     1.3614464276479360E-009
  -2.2749999999999999E-002     1.4057945281803194E-009
  -2.2700000000000001E-002     1.4496888305539688E-009
  -2.2650000000000000E-002     1.4933056440001827E-009
  -2.2599999999999999E-002     1.5370220414177600E-009
  -2.2550000000000001E-002     1.5813547973394290E-009
  -2.2499999999999999E-002     1.6268945220465754E-009
  -2.2450000000000001E-002     1.6742398480052657E-009
  -2.2400000000000000E-002     1.7239370435151911E-009
  -2.2349999999999998E-002     1.7764238630190560E-009
  -2.2300000000000000E-002     1.8319815470668037E-009
  -2.2249999999999999E-002     1.8906978005771816E-009
  -2.2200000000000001E-002     1.9524421381785098E-009
  -2.2150000000000000E-002     2.0168663057082720E-009
  -2.2100000000000002E-002     2.0834325805521402E-009
  -2.2050000000000000E-002     2.1514754400862775E-009
  -2.1999999999999999E-002     2.2202949674458015E-009
  -2.1950000000000001E-002     2.2892726181698401E-009
  -2.1899999999999999E-002     2.3579924367392232E-009
  -2.1850000000000001E-002     2.4263458429655303E-009
  -2.1800000000000000E-002     2.4945986230718098E-009
  -2.1749999999999999E-002     2.5633976322732074E-009
  -2.1700000000000001E-002     2.6337101116732547E-009
  -2.1649999999999999E-002     2.7066968054491954E-009
  -2.1600000000000001E-002     2.7835376174600483E-009
  -2.1550000000000000E-002     2.8652403618360844E-009
  -2.1499999999999998E-002     2.9524642512855971E-009
  -2.1450000000000000E-002     3.0453971509058440E-009
  -2.1399999999999999E-002     3.1437134187250302E-009
  -2.1350000000000001E-002     3.2466241943049667E-009
  -2.1299999999999999E-002     3.3530129447964246E-009
  -2.1250000000000002E-002     3.4616369542012312E-009
  -2.1200000000000000E-002     3.5713556184248884E-009
  -2.1149999999999999E-002     3.6813433836115671E-009
  -2.1100000000000001E-002     3.7912497027526346E-009
  -2.1049999999999999E-002     3.9012746089279352E-009
  -2.1000000000000001E-002     4.0121480015446943E-009
  -2.0950000000000000E-002     4.1250208804698924E-009
  -2.0899999999999998E-002     4.2412880833317372E-009
  -2.0850000000000000E-002     4.3623790863944999E-009
  -2.0799999999999999E-002     4.4895521520964706E-009
  -2.0750000000000001E-002     4.6237256530362607E-009
  -2.0700000000000000E-002     4.7653722384522397E-009
  -2.0649999999999998E-002     4.9144858287004702E-009
  -2.0600000000000000E-002     5.0706194033714565E-009
  -2.0549999999999999E-002     5.2329785176119005E-009
  -2.0500000000000001E-002     5.4005507519283248E-009
  -2.0449999999999999E-002     5.5722522679889453E-009
  -2.0400000000000001E-002     5.7470707665024322E-009
  -2.0350000000000000E-002     5.9241855507732545E-009
  -2.0299999999999999E-002     6.1030535890101833E-009
  -2.0250000000000001E-002     6.2834574683585856E-009
  -2.0199999999999999E-002     6.4655129315765826E-009
  -2.0150000000000001E-002     6.6496382059547662E-009
  -2.0100000000000000E-002     6.8364903768764257E-009
  -2.0049999999999998E-002     7.0268735822785471E-009
  -2.0000000000000000E-002     7.2216392123156813E-009
  -1.9949999999999999E-002     7.4215855047045670E-009
  -1.9900000000000001E-002     7.6273724181434381E-009
  -1.9850000000000000E-002     7.8394689940328503E-009
  -1.9799999999999998E-002     8.0581389241086402E-009
  -1.9750000000000000E-002     8.2834645116028819E-009
  -1.9699999999999999E-002     8.5154147210365913E-009
  -1.9650000000000001E-002     8.7539265286772020E-009
  -1.9599999999999999E-002     8.9990031293209316E-009
  -1.9550000000000001E-002     9.2507935362734878E-009
  -1.9500000000000000E-002     9.5096448591810370E-009
  -1.9449999999999999E-002     9.7761182517997761E-009
  -1.9400000000000001E-002     1.0050962509478112E-008
  -1.9349999999999999E-002     1.0335051571059206E-008
  -1.9300000000000001E-002     1.0629298649416009E-008
  -1.9250000000000000E-002     1.0934563694178256E-008
  -1.9199999999999998E-002     1.1251573262664646E-008
  -1.9150000000000000E-002     1.1580851829702695E-008
  -1.9099999999999999E-002     1.1922690931378034E-008
  -1.9050000000000001E-002     1.2277129166734144E-008
  -1.9000000000000000E-002     1.2643977982911762E-008
  -1.8949999999999998E-002     1.3022846214590795E-008
  -1.8900000000000000E-002     1.3413189077911616E-008
  -1.8849999999999999E-002     1.3814363485242882E-008
  -1.8800000000000001E-002     1.4225685962685214E-008
  -1.8749999999999999E-002     1.4646504426829788E-008
  -1.8700000000000001E-002     1.5076264349655247E-008
  -1.8650000000000000E-002     1.5514570992831027E-008
  -1.8599999999999998E-002     1.5961236171139661E-008
  -1.8550000000000001E-002     1.6416304057588907E-008
  -1.8499999999999999E-002     1.6880035648919158E-008
  -1.8450000000000001E-002     1.7352872614438225E-008
  -1.8400000000000000E-002     1.7835360519604834E-008
  -1.8349999999999998E-002     1.8328044871995681E-008
  -1.8300000000000000E-002     1.8831371068565075E-008
  -1.8249999999999999E-002     1.9345613568680053E-008
  -1.8200000000000001E-002     1.9870809628948647E-008
  -1.8149999999999999E-002     2.0406772757262694E-008
  -1.8100000000000002E-002     2.0953152140195941E-008
  -1.8050000000000000E-002     2.1509517427131524E-008
  -1.7999999999999999E-002     2.2075500626016460E-008
  -1.7950000000000001E-002     2.2650920136152019E-008
  -1.7899999999999999E-002     2.3235907478179100E-008
  -1.7850000000000001E-002     2.3830991092643743E-008
  -1.7800000000000000E-002     2.4437139909109130E-008
  -1.7749999999999998E-002     2.5055746271112570E-008
  -1.7700000000000000E-002     2.5688563966023013E-008
  -1.7649999999999999E-002     2.6337622021964086E-008
  -1.7600000000000001E-002     2.7005105570122809E-008
  -1.7550000000000000E-002     2.7693235969212309E-008
  -1.7499999999999998E-002     2.8404172391803675E-008
  -1.7450000000000000E-002     2.9139924501442152E-008
  -1.7399999999999999E-002     2.9902318833905539E-008
  -1.7350000000000001E-002     3.0692959089301260E-008
  -1.7299999999999999E-002     3.1513227479030393E-008
  -1.7250000000000001E-002     3.2364280621325978E-008
  -1.7200000000000000E-002     3.3247075685474727E-008
  -1.7149999999999999E-002     3.4162370688631292E-008
  -1.7100000000000001E-002     3.5110736206061395E-008
  -1.7049999999999999E-002     3.6092551595163998E-008
  -1.7000000000000001E-002     3.7107982757516154E-008
  -1.6950000000000000E-002     3.8156993979196031E-008
  -1.6899999999999998E-002     3.9239312492556718E-008
  -1.6850000000000000E-002     4.0354418297192110E-008
  -1.6799999999999999E-002     4.1501518074963338E-008
  -1.6750000000000001E-002     4.2679553160334326E-008
  -1.6700000000000000E-002     4.3887217302025421E-008
  -1.6649999999999998E-002     4.5122997330344797E-008
  -1.6600000000000000E-002     4.6385216447930310E-008
  -1.6549999999999999E-002     4.7672108489212455E-008
  -1.6500000000000001E-002     4.8981888246437948E-008
  -1.6449999999999999E-002     5.0312835986858544E-008
  -1.6400000000000001E-002     5.1663379778382941E-008
  -1.6350000000000000E-002     5.3032182983885327E-008
  -1.6299999999999999E-002     5.4418196484093002E-008
  -1.6250000000000001E-002     5.5820735406222204E-008
  -1.6199999999999999E-002     5.7239478244243950E-008
  -1.6150000000000001E-002     5.8674493466682703E-008
  -1.6100000000000000E-002     6.0126214558382728E-008
  -1.6049999999999998E-002     6.1595442989448916E-008
  -1.6000000000000000E-002     6.3083304400199881E-008
  -1.5949999999999999E-002     6.4591275272118457E-008
  -1.5900000000000001E-002     6.6121172203062758E-008
  -1.5850000000000000E-002     6.7675176567771828E-008
  -1.5799999999999998E-002     6.9255867830683083E-008
  -1.5750000000000000E-002     7.0866300587205641E-008
  -1.5699999999999999E-002     7.2510040059235309E-008
  -1.5650000000000001E-002     7.4191142732364583E-008
  -1.5599999999999999E-002     7.5914197413926658E-008
  -1.5550000000000001E-002     7.7684274239834001E-008
  -1.5500000000000000E-002     7.9506816598082863E-008
  -1.5449999999999998E-002     8.1387533584730654E-008
  -1.5400000000000000E-002     8.3332282282363103E-008
  -1.5349999999999999E-002     8.5346922769812353E-008
  -1.5300000000000001E-002     8.7437171270199542E-008
  -1.5250000000000000E-002     8.9608526901378442E-008
  -1.5199999999999998E-002     9.1866132175338321E-008
  -1.5150000000000000E-002     9.4214765109346257E-008
  -1.5099999999999999E-002     9.6658756142629582E-008
  -1.5050000000000001E-002     9.9201960261468064E-008
  -1.4999999999999999E-002     1.0184768942924065E-007
  -1.4949999999999998E-002     1.0459865393056438E-007
  -1.4900000000000000E-002     1.0745687732024845E-007
  -1.4849999999999999E-002     1.1042357596450980E-007
  -1.4800000000000001E-002     1.1349915184361117E-007
  -1.4749999999999999E-002     1.1668322118785973E-007
  -1.4700000000000001E-002     1.1997452055631286E-007
  -1.4650000000000000E-002     1.2337099889587492E-007
  -1.4599999999999998E-002     1.2686990380459283E-007
  -1.4550000000000000E-002     1.3046778779557553E-007
  -1.4499999999999999E-002     1.3416067223619237E-007
  -1.4450000000000001E-002     1.3794408842835741E-007
  -1.4400000000000000E-002     1.4181318115723168E-007
  -1.4349999999999998E-002     1.4576283415254916E-007
  -1.4300000000000000E-002     1.4978772126452083E-007
  -1.4249999999999999E-002     1.5388242965265659E-007
  -1.4200000000000001E-002     1.5804158196043951E-007
  -1.4149999999999999E-002     1.6226000961739798E-007
  -1.4099999999999998E-002     1.6653286901638583E-007
  -1.4050000000000000E-002     1.7085578919743984E-007
  -1.3999999999999999E-002     1.7522502716824046E-007
  -1.3950000000000001E-002     1.7963751973936642E-007
  -1.3899999999999999E-002     1.8409092141643862E-007
  -1.3850000000000001E-002     1.8858362749447151E-007
  -1.3800000000000000E-002     1.9311476022256640E-007
  -1.3749999999999998E-002     1.9768419339469154E-007
  -1.3700000000000000E-002     2.0229246049008635E-007
  -1.3649999999999999E-002     2.0694083314359324E-007
  -1.3600000000000001E-002     2.1163127146477349E-007
  -1.3550000000000000E-002     2.1636643093568346E-007
  -1.3499999999999998E-002     2.2114971528206379E-007
  -1.3450000000000000E-002     2.2598518602833747E-007
  -1.3399999999999999E-002     2.3087760114032535E-007
  -1.3350000000000001E-002     2.3583222102000366E-007
  -1.3299999999999999E-002     2.4085480879976376E-007
  -1.3249999999999998E-002     2.4595154973023998E-007
  -1.3200000000000000E-002     2.5112896956908043E-007
  -1.3149999999999998E-002     2.5639387613596617E-007
  -1.3100000000000001E-002     2.6175330210986768E-007
  -1.3049999999999999E-002     2.6721453158773551E-007
  -1.3000000000000001E-002     2.7278478385640211E-007
  -1.2950000000000000E-002     2.7847133592472403E-007
  -1.2899999999999998E-002     2.8428124185232553E-007
  -1.2850000000000000E-002     2.9022120802167425E-007
  -1.2799999999999999E-002     2.9629738328634558E-007