  -4.0000000000000001E-002     0.0000000000000000     
  -3.9949999999999999E-002     0.0000000000000000     
  -3.9899999999999998E-002    -3.5185348812612398E-013
  -3.9850000000000003E-002    -2.9785609868443341E-012
  -3.9800000000000002E-002    -1.0330346086241344E-011
  -3.9750000000000001E-002    -2.1397252733118559E-011
  -3.9699999999999999E-002    -2.9898479846677417E-011
  -3.9649999999999998E-002    -2.9367037136519879E-011
  -3.9600000000000003E-002    -2.1298551243502550E-011
  -3.9550000000000002E-002    -1.5977237041130581E-011
  -3.9500000000000000E-002    -2.1508071904625594E-011
  -3.9449999999999999E-002    -3.0933137143599470E-011
  -3.9399999999999998E-002    -2.3356435987127876E-011
  -3.9350000000000003E-002     1.7469020796265586E-011
  -3.9300000000000002E-002     8.3654249288878644E-011
  -3.9250000000000000E-002     1.4422293188236526E-010
  -3.9199999999999999E-002     1.6916344780929955E-010
  -3.9150000000000004E-002     1.5421009719825413E-010
  -3.9100000000000003E-002     1.2094779972971429E-010
  -3.9050000000000001E-002     9.1330457917405113E-011
  -3.9000000000000000E-002     6.3166394165002188E-011
  -3.8949999999999999E-002     1.3327317523322784E-011
  -3.8900000000000004E-002    -7.3719849442341284E-011
  -3.8850000000000003E-002    -1.8253418340075456E-010
  -3.8800000000000001E-002    -2.7492028010563027E-010
  -3.8750000000000000E-002    -3.2294155950171678E-010
  -3.8699999999999998E-002    -3.3265380638882092E-010
  -3.8650000000000004E-002    -3.3315537782891250E-010
  -3.8600000000000002E-002    -3.4179967561525983E-010
  -3.8550000000000001E-002    -3.4177951496076459E-010
  -3.8500000000000000E-002    -2.9557628693242949E-010
  -3.8449999999999998E-002    -1.8055124934084065E-010
  -3.8400000000000004E-002    -1.0805653140275955E-011
  -3.8350000000000002E-002     1.7497847917459865E-010
  -3.8300000000000001E-002     3.4474338020900988E-010
  -3.8249999999999999E-002     4.9130676716012840E-010
  -3.8199999999999998E-002     6.2303461518716125E-010
  -3.8150000000000003E-002     7.4240828316896151E-010
  -3.8100000000000002E-002     8.3737041514772811E-010
  -3.8050000000000000E-002     8.9144917872222136E-010
  -3.7999999999999999E-002     8.9613180165869528E-010
  -3.7949999999999998E-002     8.4932984558898334E-010
  -3.7900000000000003E-002     7.4453744956950968E-010
  -3.7850000000000002E-002     5.6929589276018505E-010
  -3.7800000000000000E-002     3.2059425887579825E-010
  -3.7749999999999999E-002     2.1906642300014058E-011
  -3.7699999999999997E-002    -2.7955484737680206E-010
  -3.7650000000000003E-002    -5.3672402908921391E-010
  -3.7600000000000001E-002    -7.2529207788794387E-010
  -3.7550000000000000E-002    -8.4359242201930370E-010
  -3.7499999999999999E-002    -8.9398219204603567E-010
  -3.7449999999999997E-002    -8.7052598227587938E-010
  -3.7400000000000003E-002    -7.6831972239601414E-010
  -3.7350000000000001E-002    -6.0087468582759244E-010
  -3.7300000000000000E-002    -3.9889307633127048E-010
  -3.7249999999999998E-002    -1.8478453193198038E-010
  -3.7200000000000004E-002     5.0379341065473089E-011
  -3.7150000000000002E-002     3.3684931306982913E-010
  -3.7100000000000001E-002     6.8663365371809544E-010
  -3.7050000000000000E-002     1.0644513153412179E-009
  -3.6999999999999998E-002     1.4048260098518658E-009
  -3.6950000000000004E-002     1.6649308878415483E-009
  -3.6900000000000002E-002     1.8626173997552756E-009
  -3.6850000000000001E-002     2.0601574952568360E-009
  -3.6799999999999999E-002     2.3083001583430483E-009
  -3.6749999999999998E-002     2.6059646699382587E-009
  -3.6700000000000003E-002     2.9138849698161151E-009
  -3.6650000000000002E-002     3.2031418717380405E-009
  -3.6600000000000001E-002     3.4836568147031591E-009
  -3.6549999999999999E-002     3.7825181714805464E-009
  -3.6499999999999998E-002     4.0998843321319556E-009
  -3.6450000000000003E-002     4.3963574675398081E-009
  -3.6400000000000002E-002     4.6299049384331772E-009
  -3.6350000000000000E-002     4.8019022257418747E-009
  -3.6299999999999999E-002     4.9570952475731488E-009
  -3.6249999999999998E-002     5.1305234343975299E-009
  -3.6200000000000003E-002     5.2945341448361414E-009
  -3.6150000000000002E-002     5.3639998131714591E-009
  -3.6100000000000000E-002     5.2595069959396488E-009
  -3.6049999999999999E-002     4.9679056262880562E-009
  -3.6000000000000004E-002     4.5423298715805354E-009
  -3.5950000000000003E-002     4.0471064346518174E-009
  -3.5900000000000001E-002     3.5086682656365950E-009
  -3.5850000000000000E-002     2.9220765729742153E-009
  -3.5799999999999998E-002     2.2980944116301003E-009
  -3.5750000000000004E-002     1.6901000479690369E-009
  -3.5700000000000003E-002     1.1639532053088134E-009
  -3.5650000000000001E-002     7.4038269953812211E-010
  -3.5600000000000000E-002     3.7399205248034625E-010
  -3.5549999999999998E-002    -3.9422511708710371E-012
  -3.5500000000000004E-002    -4.2046109062302717E-010
  -3.5450000000000002E-002    -8.4042726141280376E-010
  -3.5400000000000001E-002    -1.2107366559543236E-009
  -3.5349999999999999E-002    -1.5214834739249753E-009
  -3.5299999999999998E-002    -1.8203728283009842E-009
  -3.5250000000000004E-002    -2.1688061622947640E-009
  -3.5200000000000002E-002    -2.5901687462216792E-009
  -3.5150000000000001E-002    -3.0652769673552512E-009
  -3.5099999999999999E-002    -3.5741090779917244E-009
  -3.5049999999999998E-002    -4.1307411510174637E-009
  -3.5000000000000003E-002    -4.7683438027127757E-009
  -3.4950000000000002E-002    -5.4908911996579288E-009
  -3.4900000000000000E-002    -6.2493683328982189E-009
  -3.4849999999999999E-002    -6.9750392940969634E-009
  -3.4799999999999998E-002    -7.6381891705432044E-009
  -3.4750000000000003E-002    -8.2696854971818201E-009
  -3.4700000000000002E-002    -8.9209991365778694E-009
  -3.4650000000000000E-002    -9.6049731499831118E-009
  -3.4599999999999999E-002    -1.0281054398999868E-008
  -3.4549999999999997E-002    -1.0900301565350187E-008
  -3.4500000000000003E-002    -1.1459938521819952E-008
  -3.4450000000000001E-002    -1.2006679783552205E-008
  -3.4400000000000000E-002    -1.2584867599706471E-008
  -3.4349999999999999E-002    -1.3187400785967185E-008
  -3.4299999999999997E-002    -1.3765834735098680E-008
  -3.4250000000000003E-002    -1.4291300727993116E-008
  -3.4200000000000001E-002    -1.4800407246426866E-008
  -3.4150000000000000E-002    -1.5373409275590735E-008
  -3.4099999999999998E-002    -1.6063275481348940E-008
  -3.4049999999999997E-002    -1.6847494386463345E-008
  -3.4000000000000002E-002    -1.7651977112795011E-008
  -3.3950000000000001E-002    -1.8421571918733873E-008
  -3.3900000000000000E-002    -1.9164104547034609E-008
  -3.3849999999999998E-002    -1.9924679832612279E-008
  -3.3799999999999997E-002    -2.0721918653883666E-008
  -3.3750000000000002E-002    -2.1517650523654716E-008
  -3.3700000000000001E-002    -2.2254177809578039E-008
  -3.3649999999999999E-002    -2.2919671517026814E-008
  -3.3599999999999998E-002    -2.3571086379701061E-008
  -3.3550000000000003E-002    -2.4288495493544083E-008
  -3.3500000000000002E-002    -2.5107061510997690E-008
  -3.3450000000000001E-002    -2.5996279475211208E-008
  -3.3399999999999999E-002    -2.6906616924291644E-008
  -3.3349999999999998E-002    -2.7833724235600852E-008
  -3.3300000000000003E-002    -2.8833300674405443E-008
  -3.3250000000000002E-002    -2.9972209438956418E-008
  -3.3200000000000000E-002    -3.1267374420867740E-008
  -3.3149999999999999E-002    -3.2674861045677196E-008
  -3.3099999999999997E-002    -3.4137810704012132E-008
  -3.3050000000000003E-002    -3.5641059166434136E-008
  -3.3000000000000002E-002    -3.7215315525451182E-008
  -3.2950000000000000E-002    -3.8888310474174136E-008
  -3.2899999999999999E-002    -4.0635998536153022E-008
  -3.2850000000000004E-002    -4.2386439064291439E-008
  -3.2800000000000003E-002    -4.4074156441117168E-008
  -3.2750000000000001E-002    -4.5691150475527814E-008
  -3.2700000000000000E-002    -4.7284932910957393E-008
  -3.2649999999999998E-002    -4.8907921383069917E-008
  -3.2600000000000004E-002    -5.0570564802671228E-008
  -3.2550000000000003E-002    -5.2244366155648133E-008
  -3.2500000000000001E-002    -5.3908346716432345E-008
  -3.2450000000000000E-002    -5.5588313743743637E-008
  -3.2399999999999998E-002    -5.7346798527998198E-008
  -3.2350000000000004E-002    -5.9232669503786426E-008
  -3.2300000000000002E-002    -6.1241075007877161E-008
  -3.2250000000000001E-002    -6.3324667625736381E-008
  -3.2199999999999999E-002    -6.5445603471383131E-008
  -3.2149999999999998E-002    -6.7616680164557478E-008
  -3.2100000000000004E-002    -6.9889908810444283E-008
  -3.2050000000000002E-002    -7.2302923767474790E-008
  -3.2000000000000001E-002    -7.4835708387865329E-008
  -3.1949999999999999E-002    -7.7421418801161530E-008
  -3.1899999999999998E-002    -8.0002515524146945E-008
  -3.1850000000000003E-002    -8.2578789607160936E-008
  -3.1800000000000002E-002    -8.5201212743263574E-008
  -3.1750000000000000E-002    -8.7918734249156670E-008
  -3.1699999999999999E-002    -9.0732092427833150E-008
  -3.1649999999999998E-002    -9.3602403220449191E-008
  -3.1600000000000003E-002    -9.6506355816490972E-008
  -3.1550000000000002E-002    -9.9480763276940866E-008
  -3.1500000000000000E-002    -1.0260621859581863E-007
  -3.1449999999999999E-002    -1.0594035696315627E-007
  -3.1399999999999997E-002    -1.0946513692542852E-007
  -3.1350000000000003E-002    -1.1310346167402094E-007
  -3.1300000000000001E-002    -1.1679283163461765E-007
  -3.1250000000000000E-002    -1.2054449100203000E-007
  -3.1199999999999999E-002    -1.2442737553664992E-007
  -3.1150000000000001E-002    -1.2849139475565930E-007
  -3.1100000000000003E-002    -1.3270840755644995E-007
  -3.1050000000000001E-002    -1.3699498266211711E-007
  -3.1000000000000000E-002    -1.4129704328912389E-007
  -3.0949999999999998E-002    -1.4564908039483094E-007
  -3.0900000000000000E-002    -1.5014218898961802E-007
  -3.0850000000000002E-002    -1.5482914040972087E-007
  -3.0800000000000001E-002    -1.5966565037529875E-007
  -3.0750000000000000E-002    -1.6455497198064467E-007
  -3.0699999999999998E-002    -1.6945640603940087E-007
  -3.0650000000000000E-002    -1.7444551019113859E-007
  -3.0600000000000002E-002    -1.7965688582438703E-007
  -3.0550000000000001E-002    -1.8516139150387255E-007
  -3.0499999999999999E-002    -1.9090412842155420E-007
  -3.0449999999999998E-002    -1.9677151059816551E-007
  -3.0400000000000000E-002    -2.0272238088273460E-007
  -3.0350000000000002E-002    -2.0884456548856416E-007
  -3.0300000000000001E-002    -2.1527156618112599E-007
  -3.0249999999999999E-002    -2.2204153908353245E-007
  -3.0200000000000001E-002    -2.2904877329089785E-007
  -3.0150000000000000E-002    -2.3614672675068045E-007
  -3.0100000000000002E-002    -2.4330094701459185E-007
  -3.0050000000000000E-002    -2.5063001888386112E-007
  -2.9999999999999999E-002    -2.5828475381927800E-007
  -2.9950000000000001E-002    -2.6628638018574208E-007
  -2.9899999999999999E-002    -2.7449644781653299E-007
  -2.9850000000000002E-002    -2.8275642863520947E-007
  -2.9800000000000000E-002    -2.9105545445094768E-007
  -2.9749999999999999E-002    -2.9954802014093397E-007
  -2.9700000000000001E-002    -3.0839806269103091E-007
  -2.9650000000000003E-002    -3.1761155668208358E-007
  -2.9600000000000001E-002    -3.2703833334236186E-007
  -2.9550000000000000E-002    -3.3654604284041849E-007
  -2.9499999999999998E-002    -3.4618231720089873E-007
  -2.9450000000000000E-002    -3.5614734303397552E-007
  -2.9400000000000003E-002    -3.6659754939246966E-007
  -2.9350000000000001E-002    -3.7748567539263197E-007
  -2.9300000000000000E-002    -3.8861193094924340E-007
  -2.9249999999999998E-002    -3.9983877525428915E-007
  -2.9200000000000000E-002    -4.1124398329924612E-007
  -2.9150000000000002E-002    -4.2304636757484926E-007
  -2.9100000000000001E-002    -4.3537909656836300E-007
  -2.9049999999999999E-002    -4.4815094442828626E-007
  -2.8999999999999998E-002    -4.6114794696284245E-007
  -2.8950000000000000E-002    -4.7427055785421037E-007
  -2.8900000000000002E-002    -4.8765207018572679E-007
  -2.8850000000000001E-002    -5.0152727971176152E-007
  -2.8799999999999999E-002    -5.1598811109060667E-007
  -2.8749999999999998E-002    -5.3088918289416886E-007
  -2.8700000000000000E-002    -5.4600970194847264E-007
  -2.8650000000000002E-002    -5.6130340140823005E-007
  -2.8600000000000000E-002    -5.7696735763050994E-007
  -2.8549999999999999E-002    -5.9325138703027110E-007
  -2.8500000000000001E-002    -6.1020780250047008E-007
  -2.8450000000000000E-002    -6.2765000278069634E-007
  -2.8400000000000002E-002    -6.4536715777771852E-007
  -2.8350000000000000E-002    -6.6336576204587654E-007
  -2.8299999999999999E-002    -6.8187608274179042E-007
  -2.8250000000000001E-002    -7.0111336909262777E-007
  -2.8200000000000003E-002    -7.2104870755872171E-007
  -2.8150000000000001E-002    -7.4143885788902972E-007
  -2.8100000000000000E-002    -7.6208867826573339E-007
  -2.8049999999999999E-002    -7.8306667465695980E-007
  -2.8000000000000001E-002    -8.0464077330825507E-007
  -2.7950000000000003E-002    -8.2700116221637929E-007
  -2.7900000000000001E-002    -8.5006662848753457E-007
  -2.7850000000000000E-002    -8.7358380029955414E-007
  -2.7799999999999998E-002    -8.9741615417192569E-007
  -2.7750000000000000E-002    -9.2171066243173262E-007
  -2.7700000000000002E-002    -9.4676293066834878E-007
  -2.7650000000000001E-002    -9.7272218027082567E-007
  -2.7600000000000000E-002    -9.9945268728502185E-007
  -2.7549999999999998E-002    -1.0267012636767512E-006
  -2.7500000000000000E-002    -1.0543915552713576E-006
  -2.7450000000000002E-002    -1.0827284178820958E-006
  -2.7400000000000001E-002    -1.1119997273736305E-006
  -2.7349999999999999E-002    -1.1422874678989218E-006
  -2.7299999999999998E-002    -1.1733976380982200E-006
  -2.7250000000000000E-002    -1.2050830984470615E-006
  -2.7200000000000002E-002    -1.2373205191087738E-006
  -2.7150000000000001E-002    -1.2703430124527240E-006
  -2.7099999999999999E-002    -1.3043988537894869E-006
  -2.7049999999999998E-002    -1.3394968968440262E-006
  -2.7000000000000000E-002    -1.3754125104310731E-006
  -2.6950000000000002E-002    -1.4119472423471048E-006
  -2.6900000000000000E-002    -1.4491605922813613E-006
  -2.6849999999999999E-002    -1.4873247203234802E-006
  -2.6800000000000001E-002    -1.5266550758073858E-006
  -2.6749999999999999E-002    -1.5671049447689940E-006
  -2.6700000000000002E-002    -1.6084431279180524E-006
  -2.6650000000000000E-002    -1.6505289413278572E-006
  -2.6599999999999999E-002    -1.6934866450569364E-006
  -2.6550000000000001E-002    -1.7375954221123689E-006
  -2.6500000000000003E-002    -1.7830183199087441E-006
  -2.6450000000000001E-002    -1.8296591545715239E-006
  -2.6400000000000000E-002    -1.8772984812946520E-006
  -2.6349999999999998E-002    -1.9258549168115067E-006
  -2.6300000000000000E-002    -1.9754926289922397E-006
  -2.6250000000000002E-002    -2.0264631219875781E-006
  -2.6200000000000001E-002    -2.0788583669099155E-006
  -2.6150000000000000E-002    -2.1325423576935960E-006
  -2.6099999999999998E-002    -2.1873254086901650E-006
  -2.6050000000000000E-002    -2.2431894271324766E-006
  -2.6000000000000002E-002    -2.3003242740227661E-006
  -2.5950000000000001E-002    -2.3589446622700290E-006
  -2.5899999999999999E-002    -2.4190928270686044E-006
  -2.5849999999999998E-002    -2.4806357460672844E-006
  -2.5800000000000000E-002    -2.5434518614882891E-006
  -2.5750000000000002E-002    -2.6075969987060356E-006
  -2.5700000000000001E-002    -2.6732733111556285E-006
  -2.5649999999999999E-002    -2.7406442209149738E-006
  -2.5599999999999998E-002    -2.8096972555709547E-006
  -2.5550000000000000E-002    -2.8803043985178525E-006
  -2.5500000000000002E-002    -2.9523996464186008E-006
  -2.5450000000000000E-002    -3.0260781735866441E-006
  -2.5399999999999999E-002    -3.1015199229204545E-006
  -2.5349999999999998E-002    -3.1788229042520804E-006
  -2.5300000000000000E-002    -3.2579405642240393E-006
  -2.5250000000000002E-002    -3.3387767092366756E-006
  -2.5200000000000000E-002    -3.4213285881949426E-006
  -2.5149999999999999E-002    -3.5057177075309873E-006
  -2.5100000000000001E-002    -3.5920815612109191E-006
  -2.5049999999999999E-002    -3.6804577633438648E-006
  -2.5000000000000001E-002    -3.7707855585298664E-006
  -2.4950000000000000E-002    -3.8630218573308867E-006
  -2.4899999999999999E-002    -3.9572311402664078E-006
  -2.4850000000000001E-002    -4.0535518038689518E-006
  -2.4800000000000003E-002    -4.1520811781917019E-006
  -2.4750000000000001E-002    -4.2528185420743033E-006
  -2.4700000000000000E-002    -4.3557211660022425E-006
  -2.4649999999999998E-002    -4.4608092206597816E-006
  -2.4600000000000000E-002    -4.5681939302265131E-006
  -2.4550000000000002E-002    -4.6779952323292633E-006
  -2.4500000000000001E-002    -4.7902522735780378E-006
  -2.4450000000000000E-002    -4.9049271471260603E-006
  -2.4399999999999998E-002    -5.0220045315343956E-006
  -2.4350000000000000E-002    -5.1415611637022275E-006
  -2.4299999999999999E-002    -5.2637281749253937E-006
  -2.4250000000000001E-002    -5.3885879146265379E-006
  -2.4199999999999999E-002    -5.5161265629465305E-006
  -2.4150000000000001E-002    -5.6463016014874029E-006
  -2.4100000000000000E-002    -5.7791505549186026E-006
  -2.4049999999999998E-002    -5.9148097073042554E-006
  -2.4000000000000000E-002    -6.0534170217425821E-006
  -2.3949999999999999E-002    -6.1950141289096079E-006
  -2.3900000000000001E-002    -6.3395573006231384E-006
  -2.3850000000000000E-002    -6.4870345093447573E-006
  -2.3800000000000002E-002    -6.6375533336451365E-006
  -2.3750000000000000E-002    -6.7912964627804415E-006
  -2.3699999999999999E-002    -6.9483830301919299E-006
  -2.3650000000000001E-002    -7.1087978618289058E-006
  -2.3599999999999999E-002    -7.2724698003326908E-006
  -2.3550000000000001E-002    -7.4394159912045580E-006
  -2.3500000000000000E-002    -7.6098050420593023E-006
  -2.3449999999999999E-002    -7.7838355280620376E-006
  -2.3400000000000001E-002    -7.9615811434602049E-006
  -2.3349999999999999E-002    -8.1429684694194106E-006
  -2.3300000000000001E-002    -8.3279196827717956E-006
  -2.3250000000000000E-002    -8.5165120096425536E-006
  -2.3199999999999998E-002    -8.7089691972814842E-006
  -2.3150000000000000E-002    -8.9054907274040758E-006
  -2.3099999999999999E-002    -9.1060974161926973E-006
  -2.3050000000000001E-002    -9.3106769129270824E-006
  -2.3000000000000000E-002    -9.5191715135830142E-006
  -2.2950000000000002E-002    -9.7317152394239402E-006
  -2.2900000000000000E-002    -9.9485631008642975E-006
  -2.2849999999999999E-002    -1.0169886654233125E-005
  -2.2800000000000001E-002    -1.0395655783029345E-005
  -2.2749999999999999E-002    -1.0625750434281719E-005
  -2.2700000000000001E-002    -1.0860169069864514E-005
  -2.2650000000000000E-002    -1.1099119510698887E-005
  -2.2599999999999999E-002    -1.1342882591133249E-005
  -2.2550000000000001E-002    -1.1591584627427664E-005
  -2.2499999999999999E-002    -1.1845142719491843E-005
  -2.2450000000000001E-002    -1.2103430624372928E-005
  -2.2400000000000000E-002    -1.2366501999037320E-005
  -2.2349999999999998E-002    -1.2634619877316714E-005
  -2.2300000000000000E-002    -1.2908057619759962E-005
  -2.2249999999999999E-002    -1.3186889419489493E-005
  -2.2200000000000001E-002    -1.3470995840624337E-005
  -2.2150000000000000E-002    -1.3760280244028508E-005
  -2.2100000000000002E-002    -1.4054869367350812E-005
  -2.2050000000000000E-002    -1.4355075436634851E-005
  -2.1999999999999999E-002    -1.4661139704510697E-005
  -2.1950000000000001E-002    -1.4973082568552683E-005
  -2.1899999999999999E-002    -1.5290766009401740E-005
  -2.1850000000000001E-002    -1.5614148381246610E-005
  -2.1800000000000000E-002    -1.5943431021038854E-005
  -2.1749999999999999E-002    -1.6278942707431942E-005
  -2.1700000000000001E-002    -1.6620890871886962E-005
  -2.1649999999999999E-002    -1.6969239443851472E-005
  -2.1600000000000001E-002    -1.7323857284409853E-005
  -2.1550000000000000E-002    -1.7684765808862737E-005
  -2.1499999999999998E-002    -1.8052208138959528E-005
  -2.1450000000000000E-002    -1.8426488750380787E-005
  -2.1399999999999999E-002    -1.8807752598401810E-005
  -2.1350000000000001E-002    -1.9195922550169160E-005
  -2.1299999999999999E-002    -1.9590900872398646E-005
  -2.1250000000000002E-002    -1.9992763526103515E-005
  -2.1200000000000000E-002    -2.0401794857736132E-005
  -2.1149999999999999E-002    -2.0818284082499037E-005
  -2.1100000000000001E-002    -2.1242322318500622E-005
  -2.1049999999999999E-002    -2.1673828240396508E-005
  -2.1000000000000001E-002    -2.2112749428705665E-005
  -2.0950000000000000E-002    -2.2559225680009875E-005
  -2.0899999999999998E-002    -2.3013547866055343E-005
  -2.0850000000000000E-002    -2.3475953475416149E-005
  -2.0799999999999999E-002    -2.3946485316943999E-005
  -2.0750000000000001E-002    -2.4425067852074827E-005
  -2.0700000000000000E-002    -2.4911718610302089E-005
  -2.0649999999999998E-002    -2.5406637915245103E-005
  -2.0600000000000000E-002    -2.5910112333441459E-005
  -2.0549999999999999E-002    -2.6422331810945648E-005
  -2.0500000000000001E-002    -2.6943306843920040E-005
  -2.0449999999999999E-002    -2.7472989578014595E-005
  -2.0400000000000001E-002    -2.8011453663382725E-005
  -2.0350000000000000E-002    -2.8558933582984879E-005
  -2.0299999999999999E-002    -2.9115687869787248E-005
  -2.0250000000000001E-002    -2.9681845794237533E-005
  -2.0199999999999999E-002    -3.0257398265336243E-005
  -2.0150000000000001E-002    -3.0842343587164851E-005
  -2.0100000000000000E-002    -3.1436810544956920E-005
  -2.0049999999999998E-002    -3.2041045537089413E-005
  -2.0000000000000000E-002    -3.2655270466058599E-005
  -1.9949999999999999E-002    -3.3279564026831145E-005
  -1.9900000000000001E-002    -3.3913921184325704E-005
  -1.9850000000000000E-002    -3.4558398066648996E-005
  -1.9799999999999998E-002    -3.5213181975413447E-005
  -1.9750000000000000E-002    -3.5878517477068721E-005
  -1.9699999999999999E-002    -3.6554586935717804E-005
  -1.9650000000000001E-002    -3.7241452205772046E-005
  -1.9599999999999999E-002    -3.7939124450304734E-005
  -1.9550000000000001E-002    -3.8647716124208433E-005
  -1.9500000000000000E-002    -3.9367424372070367E-005
  -1.9449999999999999E-002    -4.0098464455236120E-005
  -1.9400000000000001E-002    -4.0840977328248382E-005
  -1.9349999999999999E-002    -4.1594997546087016E-005
  -1.9300000000000001E-002    -4.2360579210187267E-005
  -1.9250000000000000E-002    -4.3137864222043487E-005
  -1.9199999999999998E-002    -4.3927082064695346E-005
  -1.9150000000000000E-002    -4.4728412878228415E-005
  -1.9099999999999999E-002    -4.5541948953547648E-005
  -1.9050000000000001E-002    -4.6367730173343079E-005
  -1.9000000000000000E-002    -4.7205866470920220E-005
  -1.8949999999999998E-002    -4.8056557731825556E-005
  -1.8900000000000000E-002    -4.8919995412755285E-005
  -1.8849999999999999E-002    -4.9796320331943705E-005
  -1.8800000000000001E-002    -5.0685590972044162E-005
  -1.8749999999999999E-002    -5.1587877820601980E-005
  -1.8700000000000001E-002    -5.2503339202881029E-005
  -1.8650000000000000E-002    -5.3432185824949679E-005
  -1.8599999999999998E-002    -5.4374597789717295E-005
  -1.8550000000000001E-002    -5.5330663372158122E-005
  -1.8499999999999999E-002    -5.6300429235377940E-005
  -1.8450000000000001E-002    -5.7284002559202418E-005
  -1.8400000000000000E-002    -5.8281608565520764E-005
  -1.8349999999999998E-002    -5.9293437139691283E-005
  -1.8300000000000000E-002    -6.0319618207392480E-005
  -1.8249999999999999E-002    -6.1360185059954444E-005
  -1.8200000000000001E-002    -6.2415200027112730E-005
  -1.8149999999999999E-002    -6.3484835450459726E-005
  -1.8100000000000002E-002    -6.4569321543962786E-005
  -1.8050000000000000E-002    -6.5668854020508563E-005
  -1.7999999999999999E-002    -6.6783501554311593E-005
  -1.7950000000000001E-002    -6.7913269756751399E-005
  -1.7899999999999999E-002    -6.9058248731116855E-005
  -1.7850000000000001E-002    -7.0218643733971874E-005
  -1.7800000000000000E-002    -7.1394705847719481E-005
  -1.7749999999999998E-002    -7.2586609507399873E-005
  -1.7700000000000000E-002    -7.3794349421441724E-005
  -1.7649999999999999E-002    -7.5017950876687641E-005
  -1.7600000000000001E-002    -7.6257542076238428E-005
  -1.7550000000000000E-002    -7.7513372649049505E-005
  -1.7499999999999998E-002    -7.8785691851725485E-005
  -1.7450000000000000E-002    -8.0074584060917326E-005
  -1.7399999999999999E-002    -8.1380015326558528E-005
  -1.7350000000000001E-002    -8.2702004364917535E-005
  -1.7299999999999999E-002    -8.4040712047336093E-005
  -1.7250000000000001E-002    -8.5396425223711880E-005
  -1.7200000000000000E-002    -8.6769362034558794E-005
  -1.7149999999999999E-002    -8.8159558294342920E-005
  -1.7100000000000001E-002    -8.9566952570573326E-005
  -1.7049999999999999E-002    -9.0991570658268371E-005
  -1.7000000000000001E-002    -9.2433645123652904E-005
  -1.6950000000000000E-002    -9.3893464301176449E-005
  -1.6899999999999998E-002    -9.5371186304248740E-005
  -1.6850000000000000E-002    -9.6866773735660100E-005
  -1.6799999999999999E-002    -9.8380176139365480E-005
  -1.6750000000000001E-002    -9.9911506052754334E-005
  -1.6700000000000000E-002    -1.0146099419196036E-004
  -1.6649999999999998E-002    -1.0302891303335944E-004
  -1.6600000000000000E-002    -1.0461534850586822E-004
  -1.6549999999999999E-002    -1.0622023669436720E-004
  -1.6500000000000001E-002    -1.0784350713468878E-004
  -1.6449999999999999E-002    -1.0948530134500655E-004
  -1.6400000000000001E-002    -1.1114589799000342E-004
  -1.6350000000000000E-002    -1.1282551051978529E-004
  -1.6299999999999999E-002    -1.1452417096151574E-004
  -1.6250000000000001E-002    -1.1624177955930838E-004
  -1.6199999999999999E-002    -1.1797828175617560E-004
  -1.6150000000000001E-002    -1.1973388373086855E-004
  -1.6100000000000000E-002    -1.2150881299360949E-004
  -1.6049999999999998E-002    -1.2330322318983636E-004
  -1.6000000000000000E-002    -1.2511711413062672E-004
  -1.5949999999999999E-002    -1.2695041046819071E-004
  -1.5900000000000001E-002    -1.2880309777611905E-004
  -1.5850000000000000E-002    -1.3067532932050600E-004
  -1.5799999999999998E-002    -1.3256731054799866E-004
  -1.5750000000000000E-002    -1.3447919966933820E-004
  -1.5699999999999999E-002    -1.3641095329785277E-004
  -1.5650000000000001E-002    -1.3836242247324817E-004
  -1.5599999999999999E-002    -1.4033358987368687E-004
  -1.5550000000000001E-002    -1.4232460426125571E-004
  -1.5500000000000000E-002    -1.4433572137985255E-004
  -1.5449999999999998E-002    -1.4636705245567338E-004
  -1.5400000000000000E-002    -1.4841843593011578E-004
  -1.5349999999999999E-002    -1.5048972084019175E-004
  -1.5300000000000001E-002    -1.5258093040125781E-004
  -1.5250000000000000E-002    -1.5469229766590657E-004
  -1.5199999999999998E-002    -1.5682398340633960E-004
  -1.5150000000000000E-002    -1.5897599081083681E-004
  -1.5099999999999999E-002    -1.6114814112246794E-004
  -1.5050000000000001E-002    -1.6334032227065731E-004
  -1.4999999999999999E-002    -1.6555259117679243E-004
  -1.4949999999999998E-002    -1.6778510470369400E-004
  -1.4900000000000000E-002    -1.7003798142727869E-004
  -1.4849999999999999E-002    -1.7231117767685378E-004
  -1.4800000000000001E-002    -1.7460447458083716E-004
  -1.4749999999999999E-002    -1.7691775847153771E-004
  -1.4700000000000001E-002    -1.7925109376682488E-004
  -1.4650000000000000E-002    -1.8160465289510379E-004
  -1.4599999999999998E-002    -1.8397852426478979E-004
  -1.4550000000000000E-002    -1.8637254998068249E-004
  -1.4499999999999999E-002    -1.8878645583444834E-004
  -1.4450000000000001E-002    -1.9122014793101724E-004
  -1.4400000000000000E-002    -1.9367379721465161E-004
  -1.4349999999999998E-002    -1.9614753722261040E-004
  -1.4300000000000000E-002    -1.9864126537101428E-004
  -1.4249999999999999E-002    -2.0115473899022475E-004
  -1.4200000000000001E-002    -2.0368769709886575E-004
  -1.4149999999999999E-002    -2.0624012709887407E-004
  -1.4099999999999998E-002    -2.0881216667325382E-004
  -1.4050000000000000E-002    -2.1140385216099865E-004
  -1.3999999999999999E-002    -2.1401502477532276E-004
  -1.3950000000000001E-002    -2.1664538925838389E-004
  -1.3899999999999999E-002    -2.1929477160451279E-004
  -1.3850000000000001E-002    -2.2196318787265964E-004
  -1.3800000000000000E-002    -2.2465068147874308E-004
  -1.3749999999999998E-002    -2.2735714467907869E-004
  -1.3700000000000000E-002    -2.3008237879426239E-004
  -1.3649999999999999E-002    -2.3282612207405008E-004
  -1.3600000000000001E-002    -2.3558817829991792E-004
  -1.3550000000000000E-002    -2.3836854784092527E-004
  -1.3499999999999998E-002    -2.4116724950056911E-004
  -1.3450000000000000E-002    -2.4398408157959577E-004
  -1.3399999999999999E-002    -2.4681874303927659E-004
  -1.3350000000000001E-002    -2.4967098694164279E-004
  -1.3299999999999999E-002    -2.5254067994150012E-004
  -1.3249999999999998E-002    -2.5542776370267761E-004
  -1.3200000000000000E-002    -2.5833209264118921E-004
  -1.3149999999999998E-002    -2.6125342961739149E-004
  -1.3100000000000001E-002    -2.6419154813479926E-004
  -1.3049999999999999E-002    -2.6714615696847056E-004
  -1.3000000000000001E-002    -2.7011700260673780E-004
  -1.2950000000000000E-002    -2.7310403712114528E-004
  -1.2899999999999998E-002    -2.7610703863023903E-004
  -1.2850000000000000E-002    -2.7912571566023883E-004
  -1.2799999999999999E-002    -2.8215971096950737E-004