  -4.0000000000000001E-002     0.0000000000000000     
  -3.9949999999999999E-002     0.0000000000000000     
  -3.9899999999999998E-002     0.0000000000000000     
  -3.9850000000000003E-002     0.0000000000000000     
  -3.9800000000000002E-002     0.0000000000000000     
  -3.9750000000000001E-002     0.0000000000000000     
  -3.9699999999999999E-002     0.0000000000000000     
  -3.9649999999999998E-002     0.0000000000000000     
  -3.9600000000000003E-002     1.9316148270467874E-025
  -3.9550000000000002E-002     2.0467002764365914E-024
  -3.9500000000000000E-002     9.3355045412581791E-024
  -3.9449999999999999E-002     1.5520592324419531E-023
  -3.9399999999999998E-002    -7.2269342156029417E-023
  -3.9350000000000003E-002    -6.7500509392634691E-022
  -3.9300000000000002E-002    -3.0518027703068491E-021
  -3.9250000000000000E-002    -9.9733201181086204E-021
  -3.9199999999999999E-002    -2.5866575398615394E-020
  -3.9150000000000004E-002    -5.4807715506122648E-020
  -3.9100000000000003E-002    -9.4026106691903401E-020
  -3.9050000000000001E-002    -1.2134396000540240E-019
  -3.9000000000000000E-002    -7.8772139890418339E-020
  -3.8949999999999999E-002     1.3803631360016798E-019
  -3.8900000000000004E-002     6.6566641989233529E-019
  -3.8850000000000003E-002     1.6107023879277094E-018
  -3.8800000000000001E-002     2.9249920495269335E-018
  -3.8750000000000000E-002     4.2348472471399806E-018
  -3.8699999999999998E-002     4.6922646515203040E-018
  -3.8650000000000004E-002     2.9713814993398382E-018
  -3.8600000000000002E-002    -2.4436275165244962E-018
  -3.8550000000000001E-002    -1.2585447932090959E-017
  -3.8500000000000000E-002    -2.7006664058030320E-017
  -3.8449999999999998E-002    -4.2758410426754059E-017
  -3.8400000000000004E-002    -5.3878772726513464E-017
  -3.8350000000000002E-002    -5.2013454894563434E-017
  -3.8300000000000001E-002    -2.8588250127332708E-017
  -3.8249999999999999E-002     2.1600077649964369E-017
  -3.8199999999999998E-002     9.6299418797420451E-017
  -3.8150000000000003E-002     1.8286991458802074E-016
  -3.8100000000000002E-002     2.5837417918170964E-016
  -3.8050000000000000E-002     2.9393812402637036E-016
  -3.7999999999999999E-002     2.6311675706772401E-016
  -3.7949999999999998E-002     1.5202085402043525E-016
  -3.7900000000000003E-002    -3.2631566448807901E-017
  -3.7850000000000002E-002    -2.6160686607307901E-016
  -3.7800000000000000E-002    -4.8972489848933758E-016
  -3.7749999999999999E-002    -6.6978027944628537E-016
  -3.7699999999999997E-002    -7.6875093036494732E-016
  -3.7650000000000003E-002    -7.7873453606379856E-016
  -3.7600000000000001E-002    -7.1579681299276867E-016
  -3.7550000000000000E-002    -6.0454695593356993E-016
  -3.7499999999999999E-002    -4.5356283899181298E-016
  -3.7449999999999997E-002    -2.3375871425577867E-016
  -3.7400000000000003E-002     1.2539362632133639E-016
  -3.7350000000000001E-002     7.1107757994109107E-016
  -3.7300000000000000E-002     1.5744765593672067E-015
  -3.7249999999999998E-002     2.6661660775402430E-015
  -3.7200000000000004E-002     3.7881641287806203E-015
  -3.7150000000000002E-002     4.5943595998623194E-015
  -3.7100000000000001E-002     4.6599960552894219E-015
  -3.7050000000000000E-002     3.6164285376194321E-015
  -3.6999999999999998E-002     1.3166518763063768E-015
  -3.6950000000000004E-002    -2.0278475272622488E-015
  -3.6900000000000002E-002    -5.8048039227522324E-015
  -3.6850000000000001E-002    -9.0992827032521407E-015
  -3.6799999999999999E-002    -1.0933006191865494E-014
  -3.6749999999999998E-002    -1.0588359957695572E-014
  -3.6700000000000003E-002    -7.9120275628992206E-015
  -3.6650000000000002E-002    -3.4758853493591860E-015
  -3.6600000000000001E-002     1.4987205275536650E-015
  -3.6549999999999999E-002     5.4742730975441647E-015
  -3.6499999999999998E-002     7.1117653120263313E-015
  -3.6450000000000003E-002     5.8038104019000005E-015
  -3.6400000000000002E-002     2.0242444508661791E-015
  -3.6350000000000000E-002    -2.6735355678918186E-015
  -3.6299999999999999E-002    -6.0702466087577541E-015
  -3.6249999999999998E-002    -6.0171176261526550E-015
  -3.6200000000000003E-002    -1.2658357473360191E-015
  -3.6150000000000002E-002     7.9090314153595592E-015
  -3.6100000000000000E-002     1.9560625463330607E-014
  -3.6049999999999999E-002     3.0513647242192245E-014
  -3.6000000000000004E-002     3.7309132458586250E-014
  -3.5950000000000003E-002     3.7353014231738026E-014
  -3.5900000000000001E-002     2.9857057265920257E-014
  -3.5850000000000000E-002     1.6193468328349874E-014
  -3.5799999999999998E-002    -5.2983588033099963E-016
  -3.5750000000000004E-002    -1.6582754900792767E-014
  -3.5700000000000003E-002    -2.9042721632242516E-014
  -3.5650000000000001E-002    -3.6998054410635887E-014
  -3.5600000000000000E-002    -4.2003745649038073E-014
  -3.5549999999999998E-002    -4.7495374363468236E-014
  -3.5500000000000004E-002    -5.7237219945879572E-014
  -3.5450000000000002E-002    -7.3270958951451263E-014
  -3.5400000000000001E-002    -9.4100046032565910E-014
  -3.5349999999999999E-002    -1.1387748353415092E-013
  -3.5299999999999998E-002    -1.2312391528580642E-013
  -3.5250000000000004E-002    -1.1104059449981788E-013
  -3.5200000000000002E-002    -6.8934800200149394E-014
  -3.5150000000000001E-002     6.1808081978004585E-015
  -3.5099999999999999E-002     1.0895784533694429E-013
  -3.5049999999999998E-002     2.2505409526286480E-013
  -3.5000000000000003E-002     3.3297902962036388E-013
  -3.4950000000000002E-002     4.0828712546040384E-013
  -3.4900000000000000E-002     4.2925223397921376E-013
  -3.4849999999999999E-002     3.8263196062825085E-013
  -3.4799999999999998E-002     2.6796198346170126E-013
  -3.4750000000000003E-002     9.9081838960282326E-014
  -3.4700000000000002E-002    -9.7761039756380662E-014
  -3.4650000000000000E-002    -2.8900667834549417E-013
  -3.4599999999999999E-002    -4.4097935194145644E-013
  -3.4549999999999997E-002    -5.2745675761666575E-013
  -3.4500000000000003E-002    -5.3568159446834376E-013
  -3.4450000000000001E-002    -4.6920833151015479E-013
  -3.4400000000000000E-002    -3.4675922561426550E-013
  -3.4349999999999999E-002    -1.9732503430844325E-013
  -3.4299999999999997E-002    -5.2797433041202837E-014
  -3.4250000000000003E-002     5.9849855009290938E-014
  -3.4200000000000001E-002     1.2464667882789156E-013
  -3.4150000000000000E-002     1.3929021701675754E-013
  -3.4099999999999998E-002     1.1375296907000969E-013
  -3.4049999999999997E-002     6.5514257068423448E-014
  -3.4000000000000002E-002     1.3241331217500358E-014
  -3.3950000000000001E-002    -2.8689725222333082E-014
  -3.3900000000000000E-002    -5.2731633054070870E-014
  -3.3849999999999998E-002    -5.6786009853679608E-014
  -3.3799999999999997E-002    -3.9567574591421665E-014
  -3.3750000000000002E-002     5.0441266831650283E-015
  -3.3700000000000001E-002     9.1533499936273282E-014
  -3.3649999999999999E-002     2.4130358872140603E-013
  -3.3599999999999998E-002     4.7494935271807605E-013
  -3.3550000000000003E-002     7.9938712234877945E-013
  -3.3500000000000002E-002     1.1935621920903514E-012
  -3.3450000000000001E-002     1.5982076258911126E-012
  -3.3399999999999999E-002     1.9152368146015933E-012
  -3.3349999999999998E-002     2.0204471644466059E-012
  -3.3300000000000003E-002     1.7895755562944638E-012
  -3.3250000000000002E-002     1.1332996770659791E-012
  -3.3200000000000000E-002     3.2863847014430393E-014
  -3.3149999999999999E-002    -1.4340191138743459E-012
  -3.3099999999999997E-002    -3.0865439419473747E-012
  -3.3050000000000003E-002    -4.6592322308334863E-012
  -3.3000000000000002E-002    -5.8451217638775197E-012
  -3.2950000000000000E-002    -6.3566479119869828E-012
  -3.2899999999999999E-002    -5.9914521387730498E-012
  -3.2850000000000004E-002    -4.6874813043053689E-012
  -3.2800000000000003E-002    -2.5527521660632667E-012
  -3.2750000000000001E-002     1.3992297971927721E-013
  -3.2700000000000000E-002     2.9951177829730439E-012
  -3.2649999999999998E-002     5.5669173348513341E-012
  -3.2600000000000004E-002     7.4463614846013647E-012
  -3.2550000000000003E-002     8.3451243631173643E-012
  -3.2500000000000001E-002     8.1563489087947247E-012
  -3.2450000000000000E-002     6.9781352068059161E-012
  -3.2399999999999998E-002     5.0933830858213278E-012
  -3.2350000000000004E-002     2.9095703530715893E-012
  -3.2300000000000002E-002     8.7127752545448898E-013
  -3.2250000000000001E-002    -6.3540929680139558E-013
  -3.2199999999999999E-002    -1.3655713145892060E-012
  -3.2149999999999998E-002    -1.2671476473879803E-012
  -3.2100000000000004E-002    -4.9074072261402620E-013
  -3.2050000000000002E-002     6.4383263308037884E-013
  -3.2000000000000001E-002     1.7160118985246567E-012
  -3.1949999999999999E-002     2.2924607921920182E-012
  -3.1899999999999998E-002     2.0156857248275957E-012
  -3.1850000000000003E-002     6.7577004979028112E-013
  -3.1800000000000002E-002    -1.7470457290343366E-012
  -3.1750000000000000E-002    -5.0736463488616523E-012
  -3.1699999999999999E-002    -8.9482870558706530E-012
  -3.1649999999999998E-002    -1.2883321593639015E-011
  -3.1600000000000003E-002    -1.6315745003120643E-011
  -3.1550000000000002E-002    -1.8666179395350292E-011
  -3.1500000000000000E-002    -1.9394715647949707E-011
  -3.1449999999999999E-002    -1.8052540884067899E-011
  -3.1399999999999997E-002    -1.4331451284147550E-011
  -3.1350000000000003E-002    -8.1138885237237280E-012
  -3.1300000000000001E-002     4.7637587085896631E-013
  -3.1250000000000000E-002     1.1027385557329112E-011
  -3.1199999999999999E-002     2.2805471974178995E-011
  -3.1150000000000001E-002     3.4747615772105224E-011
  -3.1100000000000003E-002     4.5491805807836753E-011
  -3.1050000000000001E-002     5.3452711568506748E-011
  -3.1000000000000000E-002     5.6941330684477686E-011
  -3.0949999999999998E-002     5.4316838379007032E-011
  -3.0900000000000000E-002     4.4149157644808156E-011
  -3.0850000000000002E-002     2.5364634042634559E-011
  -3.0800000000000001E-002    -2.6533978805400708E-012
  -3.0750000000000000E-002    -4.0031267983622843E-011
  -3.0699999999999998E-002    -8.6449274006440587E-011
  -3.0650000000000000E-002    -1.4125872108265304E-010
  -3.0600000000000002E-002    -2.0365083957166477E-010
  -3.0550000000000001E-002    -2.7284425760863860E-010
  -3.0499999999999999E-002    -3.4825127259535360E-010
  -3.0449999999999998E-002    -4.2958483198021857E-010
  -3.0400000000000000E-002    -5.1687868750289883E-010
  -3.0350000000000002E-002    -6.1041018365730591E-010
  -3.0300000000000001E-002    -7.1053622930751258E-010
  -3.0249999999999999E-002    -8.1747326514051197E-010
  -3.0200000000000001E-002    -9.3106688440161987E-010
  -3.0150000000000000E-002    -1.0506032438398700E-009
  -3.0100000000000002E-002    -1.1747087473328558E-009
  -3.0050000000000000E-002    -1.3013709783888323E-009
  -2.9999999999999999E-002    -1.4280886698621969E-009
  -2.9950000000000001E-002    -1.5521335537589511E-009
  -2.9899999999999999E-002    -1.6708841405008835E-009
  -2.9850000000000002E-002    -1.7821740317360985E-009
  -2.9800000000000000E-002    -1.8845940945522535E-009
  -2.9749999999999999E-002    -1.9776954992574719E-009
  -2.9700000000000001E-002    -2.0620553978811611E-009
  -2.9650000000000003E-002    -2.1391971953817408E-009
  -2.9600000000000001E-002    -2.2113750597560092E-009
  -2.9550000000000000E-002    -2.2812623751953962E-009
  -2.9499999999999998E-002    -2.3515959232801351E-009
  -2.9450000000000000E-002    -2.4248308106490050E-009
  -2.9400000000000003E-002    -2.5028634908238353E-009
  -2.9350000000000001E-002    -2.5868618685621828E-009
  -2.9300000000000000E-002    -2.6772235349092038E-009
  -2.9249999999999998E-002    -2.7736610438000489E-009
  -2.9200000000000000E-002    -2.8753903053582862E-009
  -2.9150000000000002E-002    -2.9813773374245467E-009
  -2.9100000000000001E-002    -3.0905946018122415E-009
  -2.9049999999999999E-002    -3.2022328605098079E-009
  -2.8999999999999998E-002    -3.3158290755036151E-009
  -2.8950000000000000E-002    -3.4312930750128670E-009
  -2.8900000000000002E-002    -3.5488388909687345E-009
  -2.8850000000000001E-002    -3.6688513835538113E-009
  -2.8799999999999999E-002    -3.7917337592215200E-009
  -2.8749999999999998E-002    -3.9177870002663578E-009
  -2.8700000000000000E-002    -4.0471496350463640E-009
  -2.8650000000000002E-002    -4.1798171928920896E-009
  -2.8600000000000000E-002    -4.3157212309684676E-009
  -2.8549999999999999E-002    -4.4548334807105136E-009
  -2.8500000000000001E-002    -4.5972423844534052E-009
  -2.8450000000000000E-002    -4.7431687942917613E-009
  -2.8400000000000002E-002    -4.8928973518158045E-009
  -2.8350000000000000E-002    -5.0466482333190410E-009
  -2.8299999999999999E-002    -5.2044270218759993E-009
  -2.8250000000000001E-002    -5.3659204563957929E-009
  -2.8200000000000003E-002    -5.5304933957990217E-009
  -2.8150000000000001E-002    -5.6973151051791309E-009
  -2.8100000000000000E-002    -5.8656059633853609E-009
  -2.8049999999999999E-002    -6.0349390493136903E-009
  -2.8000000000000001E-002    -6.2055130656789857E-009
  -2.7950000000000003E-002    -6.3782959016941661E-009
  -2.7900000000000001E-002    -6.5549688304668269E-009
  -2.7850000000000000E-002    -6.7376484829580935E-009
  -2.7799999999999998E-002    -6.9284337766751100E-009
  -2.7750000000000000E-002    -7.1288749472422538E-009
  -2.7700000000000002E-002    -7.3395121393751652E-009
  -2.7650000000000001E-002    -7.5596089344616552E-009
  -2.7600000000000000E-002    -7.7871850712669649E-009
  -2.7549999999999998E-002    -8.0193694411071301E-009
  -2.7500000000000000E-002    -8.2530114716945460E-009
  -2.7450000000000002E-002    -8.4854193007249850E-009
  -2.7400000000000001E-002    -8.7150500328218633E-009
  -2.7349999999999999E-002    -8.9419752717911827E-009
  -2.7299999999999998E-002    -9.1680059964215853E-009
  -2.7250000000000000E-002    -9.3964330666654495E-009
  -2.7200000000000002E-002    -9.6314373749513192E-009
  -2.7150000000000001E-002    -9.8773132991523470E-009
  -2.7099999999999999E-002    -1.0137688106095758E-008
  -2.7049999999999998E-002    -1.0414917751384477E-008
  -2.7000000000000000E-002    -1.0709802802250717E-008
  -2.6950000000000002E-002    -1.1021666151278816E-008
  -2.6900000000000000E-002    -1.1348755762539905E-008
  -2.6849999999999999E-002    -1.1688847504727189E-008
  -2.6800000000000001E-002    -1.2039887542705994E-008
  -2.6749999999999999E-002    -1.2400507142021746E-008
  -2.6700000000000002E-002    -1.2770291785905066E-008
  -2.6650000000000000E-002    -1.3149765761280488E-008
  -2.6599999999999999E-002    -1.3540123436810596E-008
  -2.6550000000000001E-002    -1.3942805459062334E-008
  -2.6500000000000003E-002    -1.4359048807069693E-008
  -2.6450000000000001E-002    -1.4789537580182758E-008
  -2.6400000000000000E-002    -1.5234224434968218E-008
  -2.6349999999999998E-002    -1.5692357741673947E-008
  -2.6300000000000000E-002    -1.6162668103499456E-008
  -2.6250000000000002E-002    -1.6643647378720415E-008
  -2.6200000000000001E-002    -1.7133836708757135E-008
  -2.6150000000000000E-002    -1.7632046931546351E-008
  -2.6099999999999998E-002    -1.8137473566820248E-008
  -2.6050000000000000E-002    -1.8649696155477041E-008
  -2.6000000000000002E-002    -1.9168607982627359E-008
  -2.5950000000000001E-002    -1.9694300983534560E-008
  -2.5899999999999999E-002    -2.0226968994684173E-008
  -2.5849999999999998E-002    -2.0766841413801656E-008
  -2.5800000000000000E-002    -2.1314175709052486E-008
  -2.5750000000000002E-002    -2.1869296372561808E-008
  -2.5700000000000001E-002    -2.2432657864076150E-008
  -2.5649999999999999E-002    -2.3004914427833707E-008
  -2.5599999999999998E-002    -2.3586972216022249E-008
  -2.5550000000000000E-002    -2.4180013922577761E-008
  -2.5500000000000002E-002    -2.4785482982633315E-008
  -2.5450000000000000E-002    -2.5405023659581094E-008
  -2.5399999999999999E-002    -2.6040385464682520E-008
  -2.5349999999999998E-002    -2.6693316524965515E-008
  -2.5300000000000000E-002    -2.7365457872293671E-008
  -2.5250000000000002E-002    -2.8058280352908249E-008
  -2.5200000000000000E-002    -2.8773078450308603E-008
  -2.5149999999999999E-002    -2.9511044569971474E-008
  -2.5100000000000001E-002    -3.0273410864403317E-008
  -2.5049999999999999E-002    -3.1061628719515688E-008
  -2.5000000000000001E-002    -3.1877545325125173E-008
  -2.4950000000000000E-002    -3.2723499472579671E-008
  -2.4899999999999999E-002    -3.3602336045268412E-008
  -2.4850000000000001E-002    -3.4517255657248984E-008
  -2.4800000000000003E-002    -3.5471564346286526E-008
  -2.4750000000000001E-002    -3.6468338661269385E-008
  -2.4700000000000000E-002    -3.7510070028402681E-008
  -2.4649999999999998E-002    -3.8598385523066178E-008
  -2.4600000000000000E-002    -3.9733885012149692E-008
  -2.4550000000000002E-002    -4.0916107448404047E-008
  -2.4500000000000001E-002    -4.2143657644703428E-008
  -2.4450000000000000E-002    -4.3414416551961041E-008
  -2.4399999999999998E-002    -4.4725804150095869E-008
  -2.4350000000000000E-002    -4.6074990057977947E-008
  -2.4299999999999999E-002    -4.7459062555661821E-008
  -2.4250000000000001E-002    -4.8875102327909713E-008
  -2.4199999999999999E-002    -5.0320166596937916E-008
  -2.4150000000000001E-002    -5.1791241104274379E-008
  -2.4100000000000000E-002    -5.3285158455434939E-008
  -2.4049999999999998E-002    -5.4798526138812727E-008
  -2.4000000000000000E-002    -5.6327703660804245E-008
  -2.3949999999999999E-002    -5.7868815563908814E-008
  -2.3900000000000001E-002    -5.9417813606642191E-008
  -2.3850000000000000E-002    -6.0970578977871878E-008
  -2.3800000000000002E-002    -6.2523099989671441E-008
  -2.3750000000000000E-002    -6.4071681315839793E-008
  -2.3699999999999999E-002    -6.5613188554529786E-008
  -2.3650000000000001E-002    -6.7145304227615224E-008
  -2.3599999999999999E-002    -6.8666752628665540E-008
  -2.3550000000000001E-002    -7.0177472551876771E-008
  -2.3500000000000000E-002    -7.1678639428560108E-008
  -2.3449999999999999E-002    -7.3172607116757768E-008
  -2.3400000000000001E-002    -7.4662668626379963E-008
  -2.3349999999999999E-002    -7.6152792371152295E-008
  -2.3300000000000001E-002    -7.7647284171752068E-008
  -2.3250000000000000E-002    -7.9150472716573497E-008
  -2.3199999999999998E-002    -8.0666508606420539E-008
  -2.3150000000000000E-002    -8.2199259544085228E-008
  -2.3099999999999999E-002    -8.3752367678648888E-008
  -2.3050000000000001E-002    -8.5329359478106292E-008
  -2.3000000000000000E-002    -8.6933875608768746E-008
  -2.2950000000000002E-002    -8.8569839010749037E-008
  -2.2900000000000000E-002    -9.0241579893391064E-008
  -2.2849999999999999E-002    -9.1953863748784653E-008
  -2.2800000000000001E-002    -9.3711805648064689E-008
  -2.2749999999999999E-002    -9.5520759178248473E-008
  -2.2700000000000001E-002    -9.7386115869174841E-008
  -2.2650000000000000E-002    -9.9313208747895785E-008
  -2.2599999999999999E-002    -1.0130723544461158E-007
  -2.2550000000000001E-002    -1.0337321973753534E-007
  -2.2499999999999999E-002    -1.0551603460845710E-007
  -2.2450000000000001E-002    -1.0774035250272973E-007
  -2.2400000000000000E-002    -1.1005049770470630E-007
  -2.2349999999999998E-002    -1.1245022581693351E-007
  -2.2300000000000000E-002    -1.1494242763342529E-007
  -2.2249999999999999E-002    -1.1752886858937389E-007
  -2.2200000000000001E-002    -1.2021001010093284E-007
  -2.2150000000000000E-002    -1.2298505491154062E-007
  -2.2100000000000002E-002    -1.2585225260737053E-007
  -2.2050000000000000E-002    -1.2880928547340645E-007
  -2.1999999999999999E-002    -1.3185382647990384E-007
  -2.1950000000000001E-002    -1.3498391872992946E-007
  -2.1899999999999999E-002    -1.3819807161265861E-007
  -2.1850000000000001E-002    -1.4149512402538826E-007
  -2.1800000000000000E-002    -1.4487374275696642E-007
  -2.1749999999999999E-002    -1.4833182512201164E-007
  -2.1700000000000001E-002    -1.5186601939007480E-007
  -2.1649999999999999E-002    -1.5547158342177564E-007
  -2.1600000000000001E-002    -1.5914271309058184E-007
  -2.1550000000000000E-002    -1.6287341011299063E-007
  -2.1499999999999998E-002    -1.6665872126088583E-007
  -2.1450000000000000E-002    -1.7049592409721575E-007
  -2.1399999999999999E-002    -1.7438541423263003E-007
  -2.1350000000000001E-002    -1.7833096109292105E-007
  -2.1299999999999999E-002    -1.8233907950162911E-007
  -2.1250000000000002E-002    -1.8641780294944155E-007
  -2.1200000000000000E-002    -1.9057495825426775E-007
  -2.1149999999999999E-002    -1.9481662235217472E-007
  -2.1100000000000001E-002    -1.9914601465096928E-007
  -2.1049999999999999E-002    -2.0356329436558153E-007
  -2.1000000000000001E-002    -2.0806633380065469E-007
  -2.0950000000000000E-002    -2.1265216232416636E-007
  -2.0899999999999998E-002    -2.1731873195872742E-007
  -2.0850000000000000E-002    -2.2206643157289227E-007
  -2.0799999999999999E-002    -2.2689886925885176E-007
  -2.0750000000000001E-002    -2.3182264790876335E-007
  -2.0700000000000000E-002    -2.3684616116685499E-007
  -2.0649999999999998E-002    -2.4197770394534868E-007
  -2.0600000000000000E-002    -2.4722355015260778E-007
  -2.0549999999999999E-002    -2.5258648035241780E-007
  -2.0500000000000001E-002    -2.5806531892262173E-007
  -2.0449999999999999E-002    -2.6365556832354021E-007
  -2.0400000000000001E-002    -2.6935113571906549E-007
  -2.0350000000000000E-002    -2.7514649681401086E-007
  -2.0299999999999999E-002    -2.8103900071108141E-007
  -2.0250000000000001E-002    -2.8703017453825317E-007
  -2.0199999999999999E-002    -2.9312595350774365E-007
  -2.0150000000000001E-002    -2.9933549291498154E-007
  -2.0100000000000000E-002    -3.0566884645022068E-007
  -2.0049999999999998E-002    -3.1213416288718325E-007
  -2.0000000000000000E-002    -3.1873515464762647E-007
  -1.9949999999999999E-002    -3.2546970269810210E-007
  -1.9900000000000001E-002    -3.3232980057840648E-007
  -1.9850000000000000E-002    -3.3930333145196052E-007
  -1.9799999999999998E-002    -3.4637700323789348E-007
  -1.9750000000000000E-002    -3.5353961636008600E-007
  -1.9699999999999999E-002    -3.6078510466287524E-007
  -1.9650000000000001E-002    -3.6811414644050370E-007
  -1.9599999999999999E-002    -3.7553394272822316E-007
  -1.9550000000000001E-002    -3.8305632894420124E-007
  -1.9500000000000000E-002    -3.9069446361030619E-007
  -1.9449999999999999E-002    -3.9845926278886159E-007
  -1.9400000000000001E-002    -4.0635635116372585E-007
  -1.9349999999999999E-002    -4.1438468725127978E-007
  -1.9300000000000001E-002    -4.2253711075984744E-007
  -1.9250000000000000E-002    -4.3080277888513247E-007
  -1.9199999999999998E-002    -4.3917098291515324E-007
  -1.9150000000000000E-002    -4.4763498100783464E-007
  -1.9099999999999999E-002    -4.5619490642862828E-007
  -1.9050000000000001E-002    -4.6485895701222816E-007
  -1.9000000000000000E-002    -4.7364232951848446E-007
  -1.8949999999999998E-002    -4.8256396081154075E-007
  -1.8900000000000000E-002    -4.9164241552357711E-007
  -1.8849999999999999E-002    -5.0089146683941400E-007
  -1.8800000000000001E-002    -5.1031735722092395E-007
  -1.8749999999999999E-002    -5.1991762338280624E-007
  -1.8700000000000001E-002    -5.2968279144018558E-007
  -1.8650000000000000E-002    -5.3959981869772154E-007
  -1.8599999999999998E-002    -5.4965657815279102E-007
  -1.8550000000000001E-002    -5.5984607798849739E-007
  -1.8499999999999999E-002    -5.7016908158497475E-007
  -1.8450000000000001E-002    -5.8063426106408014E-007
  -1.8400000000000000E-002    -5.9125621812326696E-007
  -1.8349999999999998E-002    -6.0205128697294728E-007
  -1.8300000000000000E-002    -6.1303272585300825E-007
  -1.8249999999999999E-002    -6.2420653026110507E-007
  -1.8200000000000001E-002    -6.3556909070041303E-007
  -1.8149999999999999E-002    -6.4710754960663089E-007
  -1.8100000000000002E-002    -6.5880266293138606E-007
  -1.8050000000000000E-002    -6.7063379825114186E-007
  -1.7999999999999999E-002    -6.8258416645660707E-007
  -1.7950000000000001E-002    -6.9464528315436787E-007
  -1.7899999999999999E-002    -7.0681874349938825E-007
  -1.7850000000000001E-002    -7.1911559924526344E-007
  -1.7800000000000000E-002    -7.3155277662895428E-007
  -1.7749999999999998E-002    -7.4414768664022909E-007
  -1.7700000000000000E-002    -7.5691294192307252E-007
  -1.7649999999999999E-002    -7.6985214933323154E-007
  -1.7600000000000001E-002    -7.8295853630050516E-007
  -1.7550000000000000E-002    -7.9621640075327062E-007
  -1.7499999999999998E-002    -8.0960533886301417E-007
  -1.7450000000000000E-002    -8.2310581914771804E-007
  -1.7399999999999999E-002    -8.3670469907258370E-007
  -1.7350000000000001E-002    -8.5039844059362938E-007
  -1.7299999999999999E-002    -8.6419425493126279E-007
  -1.7250000000000001E-002    -8.7810762071924968E-007
  -1.7200000000000000E-002    -8.9215775966657204E-007
  -1.7149999999999999E-002    -9.0636181553844719E-007
  -1.7100000000000001E-002    -9.2073004238911037E-007
  -1.7049999999999999E-002    -9.3526261587974195E-007
  -1.7000000000000001E-002    -9.4994947845924392E-007
  -1.6950000000000000E-002    -9.6477331671659500E-007
  -1.6899999999999998E-002    -9.7971435123508275E-007
  -1.6850000000000000E-002    -9.9475554591141357E-007
  -1.6799999999999999E-002    -1.0098880587940637E-006
  -1.6750000000000001E-002    -1.0251131130162768E-006
  -1.6700000000000000E-002    -1.0404419190913258E-006
  -1.6649999999999998E-002    -1.0558924465442613E-006
  -1.6600000000000000E-002    -1.0714848870514286E-006
  -1.6549999999999999E-002    -1.0872357459627452E-006
  -1.6500000000000001E-002    -1.1031537972684253E-006
  -1.6449999999999999E-002    -1.1192376553113881E-006
  -1.6400000000000001E-002    -1.1354759935862273E-006
  -1.6350000000000000E-002    -1.1518504587502482E-006
  -1.6299999999999999E-002    -1.1683397270348824E-006
  -1.6250000000000001E-002    -1.1849245950235124E-006
  -1.6199999999999999E-002    -1.2015917872759462E-006
  -1.6150000000000001E-002    -1.2183359081486325E-006
  -1.6100000000000000E-002    -1.2351588185177588E-006
  -1.6049999999999998E-002    -1.2520673448330876E-006
  -1.6000000000000000E-002    -1.2690694991852002E-006
  -1.5949999999999999E-002    -1.2861700942362705E-006
  -1.5900000000000001E-002    -1.3033680135620006E-006
  -1.5850000000000000E-002    -1.3206546539404406E-006
  -1.5799999999999998E-002    -1.3380147480075615E-006
  -1.5750000000000000E-002    -1.3554286621601434E-006
  -1.5699999999999999E-002    -1.3728762755696320E-006
  -1.5650000000000001E-002    -1.3903405085598575E-006
  -1.5599999999999999E-002    -1.4078103092347337E-006
  -1.5550000000000001E-002    -1.4252817114690637E-006
  -1.5500000000000000E-002    -1.4427571594748497E-006
  -1.5449999999999998E-002    -1.4602430733232389E-006
  -1.5400000000000000E-002    -1.4777464355414053E-006
  -1.5349999999999999E-002    -1.4952720185567990E-006
  -1.5300000000000001E-002    -1.5128194622172337E-006
  -1.5250000000000000E-002    -1.5303820326223793E-006
  -1.5199999999999998E-002    -1.5479470233217934E-006
  -1.5150000000000000E-002    -1.5654972572832802E-006
  -1.5099999999999999E-002    -1.5830131156558245E-006
  -1.5050000000000001E-002    -1.6004747999421896E-006
  -1.4999999999999999E-002    -1.6178643396746790E-006
  -1.4949999999999998E-002    -1.6351670280176186E-006
  -1.4900000000000000E-002    -1.6523722309420068E-006
  -1.4849999999999999E-002    -1.6694728329694603E-006
  -1.4800000000000001E-002    -1.6864646202879000E-006
  -1.4749999999999999E-002    -1.7033448533477412E-006
  -1.4700000000000001E-002    -1.7201108955775597E-006
  -1.4650000000000000E-002    -1.7367589050875239E-006
  -1.4599999999999998E-002    -1.7532825156222109E-006
  -1.4550000000000000E-002    -1.7696721800556188E-006
  -1.4499999999999999E-002    -1.7859148513525776E-006
  -1.4450000000000001E-002    -1.8019943026793477E-006
  -1.4400000000000000E-002    -1.8178924338128666E-006
  -1.4349999999999998E-002    -1.8335904309339264E-006
  -1.4300000000000000E-002    -1.8490705709474368E-006
  -1.4249999999999999E-002    -1.8643180201347871E-006
  -1.4200000000000001E-002    -1.8793208864356258E-006
  -1.4149999999999999E-002    -1.8940708133201244E-006
  -1.4099999999999998E-002    -1.9085615932143613E-006
  -1.4050000000000000E-002    -1.9227873712557367E-006
  -1.3999999999999999E-002    -1.9367398805842069E-006
  -1.3950000000000001E-002    -1.9504062406810464E-006
  -1.3899999999999999E-002    -1.9637673704298757E-006
  -1.3850000000000001E-002    -1.9767979695267783E-006
  -1.3800000000000000E-002    -1.9894672274451751E-006
  -1.3749999999999998E-002    -2.0017424532573925E-006
  -1.3700000000000000E-002    -2.0135923580801658E-006
  -1.3649999999999999E-002    -2.0249904021555587E-006
  -1.3600000000000001E-002    -2.0359168741734320E-006
  -1.3550000000000000E-002    -2.0463603480828281E-006
  -1.3499999999999998E-002    -2.0563156729698004E-006
  -1.3450000000000000E-002    -2.0657806065625586E-006
  -1.3399999999999999E-002    -2.0747514956022094E-006
  -1.3350000000000001E-002    -2.0832188147911348E-006
  -1.3299999999999999E-002    -2.0911634366835945E-006
  -1.3249999999999998E-002    -2.0985559525813814E-006
  -1.3200000000000000E-002    -2.1053571031193827E-006
  -1.3149999999999998E-002    -2.1115227759215966E-006
  -1.3100000000000001E-002    -2.1170078786046263E-006
  -1.3049999999999999E-002    -2.1217728738056104E-006
  -1.3000000000000001E-002    -2.1257868448882235E-006
  -1.2950000000000000E-002    -2.1290297431782956E-006
  -1.2899999999999998E-002    -2.1314907462967249E-006
  -1.2850000000000000E-002    -2.1331638815765028E-006
  -1.2799999999999999E-002    -2.1340418491716020E-006