  -4.0000000000000001E-002     0.0000000000000000     
  -3.9949999999999999E-002     0.0000000000000000     
  -3.9899999999999998E-002     0.0000000000000000     
  -3.9850000000000003E-002     0.0000000000000000     
  -3.9800000000000002E-002     0.0000000000000000     
  -3.9750000000000001E-002    -1.0807844770688892E-020
  -3.9699999999999999E-002    -2.0821715020316638E-019
  -3.9649999999999998E-002    -1.4313061941848801E-018
  -3.9600000000000003E-002    -6.2040754966281277E-018
  -3.9550000000000002E-002    -2.1322323584907666E-017
  -3.9500000000000000E-002    -6.4797729716854971E-017
  -3.9449999999999999E-002    -1.7698203528454543E-016
  -3.9399999999999998E-002    -4.1914840867379501E-016
  -3.9350000000000003E-002    -8.1795883696035248E-016
  -3.9300000000000002E-002    -1.2176868779469832E-015
  -3.9250000000000000E-002    -1.0823460687709045E-015
  -3.9199999999999999E-002     5.6082125739151731E-016
  -3.9150000000000004E-002     4.7506861869249159E-015
  -3.9100000000000003E-002     1.1659919663744224E-014
  -3.9050000000000001E-002     1.9433370414716425E-014
  -3.9000000000000000E-002     2.3670030030046178E-014
  -3.8949999999999999E-002     1.8524020447453910E-014
  -3.8900000000000004E-002    -3.4165216464439092E-016
  -3.8850000000000003E-002    -3.2115556859239666E-014
  -3.8800000000000001E-002    -6.8828262305510170E-014
  -3.8750000000000000E-002    -9.7067078136500521E-014
  -3.8699999999999998E-002    -1.0353031986179117E-013
  -3.8650000000000004E-002    -8.1767602153983860E-014
  -3.8600000000000002E-002    -3.5854541367648804E-014
  -3.8550000000000001E-002     2.2061312244148872E-014
  -3.8500000000000000E-002     7.9576231592963762E-014
  -3.8449999999999998E-002     1.3221963070025314E-013
  -3.8400000000000004E-002     1.8553295390525104E-013
  -3.8350000000000002E-002     2.4759537010975460E-013
  -3.8300000000000001E-002     3.1502554228004166E-013
  -3.8249999999999999E-002     3.6156777461095437E-013
  -3.8199999999999998E-002     3.3965525630456638E-013
  -3.8150000000000003E-002     1.9973303166721529E-013
  -3.8100000000000002E-002    -7.8381120770808022E-014
  -3.8050000000000000E-002    -4.5766168314244874E-013
  -3.7999999999999999E-002    -8.3801987186244065E-013
  -3.7949999999999998E-002    -1.0834454882682521E-012
  -3.7900000000000003E-002    -1.0773856644829628E-012
  -3.7850000000000002E-002    -7.8451713306280229E-013
  -3.7800000000000000E-002    -2.8775446397209665E-013
  -3.7749999999999999E-002     2.2563641193376759E-013
  -3.7699999999999997E-002     5.3510162508758900E-013
  -3.7650000000000003E-002     4.9350091617035698E-013
  -3.7600000000000001E-002     1.2418260115823276E-013
  -3.7550000000000000E-002    -3.4377046054873882E-013
  -3.7499999999999999E-002    -5.3693560378516053E-013
  -3.7449999999999997E-002    -9.1104222760866007E-014
  -3.7400000000000003E-002     1.1547228786990853E-012
  -3.7350000000000001E-002     3.0089890839174783E-012
  -3.7300000000000000E-002     4.9068516518481557E-012
  -3.7249999999999998E-002     6.0585185481949230E-012
  -3.7200000000000004E-002     5.7338223013374303E-012
  -3.7150000000000002E-002     3.5786901429875599E-012
  -3.7100000000000001E-002    -1.7353446085420474E-013
  -3.7050000000000000E-002    -4.7037420702125887E-012
  -3.6999999999999998E-002    -8.8445371105628902E-012
  -3.6950000000000004E-002    -1.1471820781606173E-011
  -3.6900000000000002E-002    -1.1894865099674691E-011
  -3.6850000000000001E-002    -1.0084520339624983E-011
  -3.6799999999999999E-002    -6.6491027024546568E-012
  -3.6749999999999998E-002    -2.5793623851275468E-012
  -3.6700000000000003E-002     1.1170176361050615E-012
  -3.6650000000000002E-002     3.7335619865064733E-012
  -3.6600000000000001E-002     5.0184269192101476E-012
  -3.6549999999999999E-002     5.1385067483832192E-012
  -3.6499999999999998E-002     4.5213158983131263E-012
  -3.6450000000000003E-002     3.6817917570611037E-012
  -3.6400000000000002E-002     3.1118615066683186E-012
  -3.6350000000000000E-002     3.2377456777283001E-012
  -3.6299999999999999E-002     4.3866589129087213E-012
  -3.6249999999999998E-002     6.6967285064022554E-012
  -3.6200000000000003E-002     9.9595910889091706E-012
  -3.6150000000000002E-002     1.3467935488752031E-011
  -3.6100000000000000E-002     1.5991910337776520E-011
  -3.6049999999999999E-002     1.5985960025237851E-011
  -3.6000000000000004E-002     1.2031590728536329E-011
  -3.5950000000000003E-002     3.3965778157501243E-012
  -3.5900000000000001E-002    -9.4979008980400693E-012
  -3.5850000000000000E-002    -2.4913502215560330E-011
  -3.5799999999999998E-002    -4.0051487996334413E-011
  -3.5750000000000004E-002    -5.1689607614595024E-011
  -3.5700000000000003E-002    -5.7000701285820281E-011
  -3.5650000000000001E-002    -5.4262411168207725E-011
  -3.5600000000000000E-002    -4.3184461577291104E-011
  -3.5549999999999998E-002    -2.4708183574054278E-011
  -3.5500000000000004E-002    -3.3062654589691456E-013
  -3.5450000000000002E-002     2.8801399458281951E-011
  -3.5400000000000001E-002     6.2671274670029312E-011
  -3.5349999999999999E-002     1.0271512809000377E-010
  -3.5299999999999998E-002     1.5151894421033321E-010
  -3.5250000000000004E-002     2.1197018366849677E-010
  -3.5200000000000002E-002     2.8617935812253424E-010
  -3.5150000000000001E-002     3.7460127026208365E-010
  -3.5099999999999999E-002     4.7571080853218806E-010
  -3.5049999999999998E-002     5.8633904980742974E-010
  -3.5000000000000003E-002     7.0246115917780343E-010
  -3.4950000000000002E-002     8.2001343626828620E-010
  -3.4900000000000000E-002     9.3533717143913649E-010
  -3.4849999999999999E-002     1.0451106078476549E-009
  -3.4799999999999998E-002     1.1459984386570521E-009
  -3.4750000000000003E-002     1.2344893870347375E-009
  -3.4700000000000002E-002     1.3073323282806146E-009
  -3.4650000000000000E-002     1.3626045161789991E-009
  -3.4599999999999999E-002     1.4009648163029488E-009
  -3.4549999999999997E-002     1.4263461134526312E-009
  -3.4500000000000003E-002     1.4454633265568856E-009
  -3.4450000000000001E-002     1.4660489669616360E-009
  -3.4400000000000000E-002     1.4944260409440585E-009
  -3.4349999999999999E-002     1.5334991462575959E-009
  -3.4299999999999997E-002     1.5821895976939761E-009
  -3.4250000000000003E-002     1.6367152645683534E-009
  -3.4200000000000001E-002     1.6931931787844138E-009
  -3.4150000000000000E-002     1.7503017492953873E-009
  -3.4099999999999998E-002     1.8105930277237291E-009
  -3.4049999999999997E-002     1.8796383790439816E-009
  -3.4000000000000002E-002     1.9632589905774250E-009
  -3.3950000000000001E-002     2.0641036220831418E-009
  -3.3900000000000000E-002     2.1792550745878555E-009
  -3.3849999999999998E-002     2.3001203352458427E-009
  -3.3799999999999997E-002     2.4147927562181418E-009
  -3.3750000000000002E-002     2.5118988008400325E-009
  -3.3700000000000001E-002     2.5842344812137419E-009
  -3.3649999999999999E-002     2.6306225653480494E-009
  -3.3599999999999998E-002     2.6552844241307479E-009
  -3.3550000000000003E-002     2.6651974705037753E-009
  -3.3500000000000002E-002     2.6668215928861233E-009
  -3.3450000000000001E-002     2.6637982147462299E-009
  -3.3399999999999999E-002     2.6566562273169654E-009
  -3.3349999999999998E-002     2.6445019072452712E-009
  -3.3300000000000003E-002     2.6276410028900265E-009
  -3.3250000000000002E-002     2.6096019975026751E-009
  -3.3200000000000000E-002     2.5973345923789865E-009
  -3.3149999999999999E-002     2.5993180987246024E-009
  -3.3099999999999997E-002     2.6224231800425591E-009
  -3.3050000000000003E-002     2.6690656764633657E-009
  -3.3000000000000002E-002     2.7361154600431063E-009
  -3.2950000000000000E-002     2.8161892817500740E-009
  -3.2899999999999999E-002     2.9008066677746789E-009
  -3.2850000000000004E-002     2.9839612369495703E-009
  -3.2800000000000003E-002     3.0644471028516237E-009
  -3.2750000000000001E-002     3.1458590148835354E-009
  -3.2700000000000000E-002     3.2343014231257650E-009
  -3.2649999999999998E-002     3.3349614128377714E-009
  -3.2600000000000004E-002     3.4492626443871198E-009
  -3.2550000000000003E-002     3.5740566194764491E-009
  -3.2500000000000001E-002     3.7032897880441823E-009
  -3.2450000000000000E-002     3.8313410720419373E-009
  -3.2399999999999998E-002     3.9563336563821340E-009
  -3.2350000000000004E-002     4.0816747934942455E-009
  -3.2300000000000002E-002     4.2149048726906795E-009
  -3.2250000000000001E-002     4.3642396470097683E-009
  -3.2199999999999999E-002     4.5343294208851956E-009
  -3.2149999999999998E-002     4.7231861082784253E-009
  -3.2100000000000004E-002     4.9217217678448550E-009
  -3.2050000000000002E-002     5.1161749422380197E-009
  -3.2000000000000001E-002     5.2923667004561924E-009
  -3.1949999999999999E-002     5.4398661548361038E-009
  -3.1899999999999998E-002     5.5541639188317764E-009
  -3.1850000000000003E-002     5.6358665691718352E-009
  -3.1800000000000002E-002     5.6873652805430317E-009
  -3.1750000000000000E-002     5.7087263786863090E-009
  -3.1699999999999999E-002     5.6950525642370126E-009
  -3.1649999999999998E-002     5.6369278877778635E-009
  -3.1600000000000003E-002     5.5240669875996165E-009
  -3.1550000000000002E-002     5.3505642507440956E-009
  -3.1500000000000000E-002     5.1191562802712060E-009
  -3.1449999999999999E-002     4.8421482594533680E-009
  -3.1399999999999997E-002     4.5381332615632051E-009
  -3.1350000000000003E-002     4.2256639819479558E-009
  -3.1300000000000001E-002     3.9166534360066972E-009
  -3.1250000000000000E-002     3.6126158553452322E-009
  -3.1199999999999999E-002     3.3056909396777143E-009
  -3.1150000000000001E-002     2.9841756643853332E-009
  -3.1100000000000003E-002     2.6400739183199143E-009
  -3.1050000000000001E-002     2.2750341269227468E-009
  -3.1000000000000000E-002     1.9016476388225090E-009
  -3.0949999999999998E-002     1.5391886333133797E-009
  -3.0900000000000000E-002     1.2055508596021683E-009
  -3.0850000000000002E-002     9.0904978982043023E-010
  -3.0800000000000001E-002     6.4398826520037870E-010
  -3.0750000000000000E-002     3.9226687555762703E-010
  -3.0699999999999998E-002     1.3062129355869216E-010
  -3.0650000000000000E-002    -1.5949044638479925E-010
  -3.0600000000000002E-002    -4.8358418070558890E-010
  -3.0550000000000001E-002    -8.3108618161111438E-010
  -3.0499999999999999E-002    -1.1790014486404946E-009
  -3.0449999999999998E-002    -1.5009518955716134E-009
  -3.0400000000000000E-002    -1.7778747248923247E-009
  -3.0350000000000002E-002    -2.0058155607910647E-009
  -3.0300000000000001E-002    -2.1973300084909899E-009
  -3.0249999999999999E-002    -2.3756545270917052E-009
  -3.0200000000000001E-002    -2.5639718724695482E-009
  -3.0150000000000000E-002    -2.7744226975587456E-009
  -3.0100000000000002E-002    -3.0019024501634671E-009
  -3.0050000000000000E-002    -3.2258237427038760E-009
  -2.9999999999999999E-002    -3.4196094145341095E-009
  -2.9950000000000001E-002    -3.5641115563642549E-009
  -2.9899999999999999E-002    -3.6590632602969442E-009
  -2.9850000000000002E-002    -3.7271062969035545E-009
  -2.9800000000000000E-002    -3.8078964023699595E-009
  -2.9749999999999999E-002    -3.9441027026245317E-009
  -2.9700000000000001E-002    -4.1649182514090352E-009
  -2.9650000000000003E-002    -4.4741520635885845E-009
  -2.9600000000000001E-002    -4.8482887969502166E-009
  -2.9550000000000000E-002    -5.2456630821598959E-009
  -2.9499999999999998E-002    -5.6229901624658164E-009
  -2.9450000000000000E-002    -5.9521848028476887E-009
  -2.9400000000000003E-002    -6.2302356710565062E-009
  -2.9350000000000001E-002    -6.4779850722156802E-009
  -2.9300000000000000E-002    -6.7285813389633567E-009
  -2.9249999999999998E-002    -7.0109249029539239E-009
  -2.9200000000000000E-002    -7.3355659817043523E-009
  -2.9150000000000002E-002    -7.6894064674578453E-009
  -2.9100000000000001E-002    -8.0416890528994313E-009
  -2.9049999999999999E-002    -8.3587978492208090E-009
  -2.8999999999999998E-002    -8.6215005345815947E-009
  -2.8950000000000000E-002    -8.8370282594781480E-009
  -2.8900000000000002E-002    -9.0404004485232308E-009
  -2.8850000000000001E-002    -9.2838642537686443E-009
  -2.8799999999999999E-002    -9.6183325719726598E-009
  -2.8749999999999998E-002    -1.0074226560228272E-008
  -2.8700000000000000E-002    -1.0649589004206595E-008
  -2.8650000000000002E-002    -1.1310551798432440E-008
  -2.8600000000000000E-002    -1.2004282024150165E-008
  -2.8549999999999999E-002    -1.2679426546876470E-008
  -2.8500000000000001E-002    -1.3305913727373431E-008
  -2.8450000000000000E-002    -1.3886081371092907E-008
  -2.8400000000000002E-002    -1.4452507452092553E-008
  -2.8350000000000000E-002    -1.5053336138964444E-008
  -2.8299999999999999E-002    -1.5731121859111084E-008
  -2.8250000000000001E-002    -1.6504021961009102E-008
  -2.8200000000000003E-002    -1.7357314069904023E-008
  -2.8150000000000001E-002    -1.8248973240981705E-008
  -2.8100000000000000E-002    -1.9127179143049317E-008
  -2.8049999999999999E-002    -1.9952586996029825E-008
  -2.8000000000000001E-002    -2.0716178949453305E-008
  -2.7950000000000003E-002    -2.1445200565375549E-008
  -2.7900000000000001E-002    -2.2194505050428142E-008
  -2.7850000000000000E-002    -2.3026428640547095E-008
  -2.7799999999999998E-002    -2.3986977682150530E-008
  -2.7750000000000000E-002    -2.5087716464140615E-008
  -2.7700000000000002E-002    -2.6300639503617242E-008
  -2.7650000000000001E-002    -2.7568307171393094E-008
  -2.7600000000000000E-002    -2.8825466499864035E-008
  -2.7549999999999998E-002    -3.0023768704164367E-008
  -2.7500000000000000E-002    -3.1149801019456000E-008
  -2.7450000000000002E-002    -3.2229331994936447E-008
  -2.7400000000000001E-002    -3.3316159174768063E-008
  -2.7349999999999999E-002    -3.4470185067231493E-008
  -2.7299999999999998E-002    -3.5733615202684781E-008
  -2.7250000000000000E-002    -3.7114898988709444E-008
  -2.7200000000000002E-002    -3.8586773193186137E-008
  -2.7150000000000001E-002    -4.0099174805748254E-008
  -2.7099999999999999E-002    -4.1601734376971132E-008
  -2.7049999999999998E-002    -4.3066814122000172E-008
  -2.7000000000000000E-002    -4.4503750628097151E-008
  -2.6950000000000002E-002    -4.5958490676651692E-008
  -2.6900000000000000E-002    -4.7498464028784279E-008
  -2.6849999999999999E-002    -4.9188409956007195E-008
  -2.6800000000000001E-002    -5.1066371094459273E-008
  -2.6749999999999999E-002    -5.3129083910854361E-008
  -2.6700000000000002E-002    -5.5332382075932280E-008
  -2.6650000000000000E-002    -5.7606755792190309E-008
  -2.6599999999999999E-002    -5.9882440946823779E-008
  -2.6550000000000001E-002    -6.2114844799696419E-008
  -2.6500000000000003E-002    -6.4300790942206225E-008
  -2.6450000000000001E-002    -6.6479257268199061E-008
  -2.6400000000000000E-002    -6.8715963773057195E-008
  -2.6349999999999998E-002    -7.1077560239591198E-008
  -2.6300000000000000E-002    -7.3605544199661949E-008
  -2.6250000000000002E-002    -7.6300472358173540E-008
  -2.6200000000000001E-002    -7.9123308195504077E-008
  -2.6150000000000000E-002    -8.2013514382106773E-008
  -2.6099999999999998E-002    -8.4916684759644966E-008
  -2.6050000000000000E-002    -8.7810059017365346E-008
  -2.6000000000000002E-002    -9.0715305473113360E-008
  -2.5950000000000001E-002    -9.3692902894400174E-008
  -2.5899999999999999E-002    -9.6820320573929566E-008
  -2.5849999999999998E-002    -1.0016271480811728E-007
  -2.5800000000000000E-002    -1.0374800648005860E-007
  -2.5750000000000002E-002    -1.0755626230132428E-007
  -2.5700000000000001E-002    -1.1152756650031966E-007
  -2.5649999999999999E-002    -1.1558510526779713E-007
  -2.5599999999999998E-002    -1.1966421856148597E-007
  -2.5550000000000000E-002    -1.2373626383002833E-007
  -2.5500000000000002E-002    -1.2781839292892182E-007
  -2.5450000000000000E-002    -1.3196618077396198E-007
  -2.5399999999999999E-002    -1.3625248671553933E-007
  -2.5349999999999998E-002    -1.4074111699656367E-007
  -2.5300000000000000E-002    -1.4546495696509127E-007
  -2.5250000000000002E-002    -1.5041668744136737E-007
  -2.5200000000000000E-002    -1.5555502787572271E-007
  -2.5149999999999999E-002    -1.6082397838905892E-007
  -2.5100000000000001E-002    -1.6617754049241370E-007
  -2.5049999999999999E-002    -1.7160030250019390E-007
  -2.5000000000000001E-002    -1.7711578061658136E-007
  -2.4950000000000000E-002    -1.8277890167024633E-007
  -2.4899999999999999E-002    -1.8865575175379266E-007
  -2.4850000000000001E-002    -1.9479821109173011E-007
  -2.4800000000000003E-002    -2.0122398664651720E-007
  -2.4750000000000001E-002    -2.0790966025722135E-007
  -2.4700000000000000E-002    -2.1479963543749063E-007
  -2.4649999999999998E-002    -2.2182729462633203E-007
  -2.4600000000000000E-002    -2.2894045654976581E-007
  -2.4550000000000002E-002    -2.3612154481650679E-007
  -2.4500000000000001E-002    -2.4339516574790426E-007
  -2.4450000000000000E-002    -2.5082069798622101E-007
  -2.4399999999999998E-002    -2.5847315945655402E-007
  -2.4350000000000000E-002    -2.6641947746650301E-007
  -2.4299999999999999E-002    -2.7469906245590604E-007
  -2.4250000000000001E-002    -2.8331526169986652E-007
  -2.4199999999999999E-002    -2.9224031607905555E-007
  -2.4150000000000001E-002    -3.0143102875548879E-007
  -2.4100000000000000E-002    -3.1084899677132775E-007
  -2.4049999999999998E-002    -3.2047810188255869E-007
  -2.4000000000000000E-002    -3.3033270568474597E-007
  -2.3949999999999999E-002    -3.4045409154286434E-007
  -2.3900000000000001E-002    -3.5089654131002258E-007
  -2.3850000000000000E-002    -3.6170792088514297E-007
  -2.3800000000000002E-002    -3.7291239154210766E-007
  -2.3750000000000000E-002    -3.8450153629860235E-007
  -2.3699999999999999E-002    -3.9643769151438994E-007
  -2.3650000000000001E-002    -4.0866822561985949E-007
  -2.3599999999999999E-002    -4.2114574478123596E-007
  -2.3550000000000001E-002    -4.3384679301563241E-007
  -2.3500000000000000E-002    -4.4678266081805722E-007
  -2.3449999999999999E-002    -4.5999837555395592E-007
  -2.3400000000000001E-002    -4.7356083887880344E-007
  -2.3349999999999999E-002    -4.8753954523729742E-007
  -2.3300000000000001E-002    -5.0198705971175965E-007
  -2.3250000000000000E-002    -5.1692495542415119E-007
  -2.3199999999999998E-002    -5.3234067028460223E-007
  -2.3150000000000000E-002    -5.4819611193752198E-007
  -2.3099999999999999E-002    -5.6444531699709119E-007
  -2.3050000000000001E-002    -5.8105470542617166E-007
  -2.3000000000000000E-002    -5.9801831583032488E-007
  -2.2950000000000002E-002    -6.1536263444627249E-007
  -2.2900000000000000E-002    -6.3313904722191787E-007
  -2.2849999999999999E-002    -6.5140665746557667E-007
  -2.2800000000000001E-002    -6.7021241129463086E-007
  -2.2749999999999999E-002    -6.8957594442025869E-007
  -2.2700000000000001E-002    -7.0948448173003692E-007
  -2.2650000000000000E-002    -7.2990117707129182E-007
  -2.2599999999999999E-002    -7.5078307777693366E-007
  -2.2550000000000001E-002    -7.7210232240980147E-007
  -2.2499999999999999E-002    -7.9386248255899780E-007
  -2.2450000000000001E-002    -8.1610441019313793E-007
  -2.2400000000000000E-002    -8.3889826161923219E-007
  -2.2349999999999998E-002    -8.6232557859432715E-007
  -2.2300000000000000E-002    -8.8645759570410039E-007
  -2.2249999999999999E-002    -9.1133680977502570E-007
  -2.2200000000000001E-002    -9.3696808412192186E-007
  -2.2150000000000000E-002    -9.6332174028254461E-007
  -2.2100000000000002E-002    -9.9034801756409629E-007
  -2.2050000000000000E-002    -1.0179980352555503E-006
  -2.1999999999999999E-002    -1.0462447935112896E-006
  -2.1950000000000001E-002    -1.0750961333756345E-006
  -2.1899999999999999E-002    -1.1045956799472840E-006
  -2.1850000000000001E-002    -1.1348093286094024E-006
  -2.1800000000000000E-002    -1.1658041736622494E-006
  -2.1749999999999999E-002    -1.1976264758675417E-006
  -2.1700000000000001E-002    -1.2302892024060374E-006
  -2.1649999999999999E-002    -1.2637731984209409E-006
  -2.1600000000000001E-002    -1.2980417757916418E-006
  -2.1550000000000000E-002    -1.3330633416424606E-006
  -2.1499999999999998E-002    -1.3688327014074576E-006
  -2.1450000000000000E-002    -1.4053819933030022E-006
  -2.1399999999999999E-002    -1.4427781355753551E-006
  -2.1350000000000001E-002    -1.4811064889712530E-006
  -2.1299999999999999E-002    -1.5204464242080543E-006
  -2.1250000000000002E-002    -1.5608499114997851E-006
  -2.1200000000000000E-002    -1.6023289671764510E-006
  -2.1149999999999999E-002    -1.6448588591383100E-006
  -2.1100000000000001E-002    -1.6883936052767081E-006
  -2.1049999999999999E-002    -1.7328882093318430E-006
  -2.1000000000000001E-002    -1.7783205712757409E-006
  -2.0950000000000000E-002    -1.8247042223813507E-006
  -2.0899999999999998E-002    -1.8720888405044003E-006
  -2.0850000000000000E-002    -1.9205495074187547E-006
  -2.0799999999999999E-002    -1.9701668688387751E-006
  -2.0750000000000001E-002    -2.0210053277977773E-006
  -2.0700000000000000E-002    -2.0730997951840470E-006
  -2.0649999999999998E-002    -2.1264512263632164E-006
  -2.0600000000000000E-002    -2.1810380912923477E-006
  -2.0549999999999999E-002    -2.2368343974125428E-006
  -2.0500000000000001E-002    -2.2938317103591034E-006
  -2.0449999999999999E-002    -2.3520514984403469E-006
  -2.0400000000000001E-002    -2.4115475418380545E-006
  -2.0350000000000000E-002    -2.4723930238233059E-006
  -2.0299999999999999E-002    -2.5346640194563649E-006
  -2.0250000000000001E-002    -2.5984194652697192E-006
  -2.0199999999999999E-002    -2.6636888330255326E-006
  -2.0150000000000001E-002    -2.7304709797281242E-006
  -2.0100000000000000E-002    -2.7987418780012782E-006
  -2.0049999999999998E-002    -2.8684729021094704E-006
  -2.0000000000000000E-002    -2.9396482015286062E-006
  -1.9949999999999999E-002    -3.0122796982202050E-006
  -1.9900000000000001E-002    -3.0864111066583217E-006
  -1.9850000000000000E-002    -3.1621115158170278E-006
  -1.9799999999999998E-002    -3.2394611903047062E-006
  -1.9750000000000000E-002    -3.3185340107413105E-006
  -1.9699999999999999E-002    -3.3993843720506429E-006
  -1.9650000000000001E-002    -3.4820403340598368E-006
  -1.9599999999999999E-002    -3.5665060756234584E-006
  -1.9550000000000001E-002    -3.6527736979050867E-006
  -1.9500000000000000E-002    -3.7408397581306072E-006
  -1.9449999999999999E-002    -3.8307195538842377E-006
  -1.9400000000000001E-002    -3.9224539468755099E-006
  -1.9349999999999999E-002    -4.0161072759600379E-006
  -1.9300000000000001E-002    -4.1117546585123345E-006
  -1.9250000000000000E-002    -4.2094658154896091E-006
  -1.9199999999999998E-002    -4.3092907016485465E-006
  -1.9150000000000000E-002    -4.4112532421076427E-006
  -1.9099999999999999E-002    -4.5153562906435837E-006
  -1.9050000000000001E-002    -4.6215920098968851E-006
  -1.9000000000000000E-002    -4.7299548162628064E-006
  -1.8949999999999998E-002    -4.8404580403471758E-006
  -1.8900000000000000E-002    -4.9531413045757892E-006
  -1.8849999999999999E-002    -5.0680702231490946E-006
  -1.8800000000000001E-002    -5.1853292799299568E-006
  -1.8749999999999999E-002    -5.3050079456980944E-006
  -1.8700000000000001E-002    -5.4271823840362208E-006
  -1.8650000000000000E-002    -5.5519055395647914E-006
  -1.8599999999999998E-002    -5.6792022097721964E-006
  -1.8550000000000001E-002    -5.8090759963643095E-006
  -1.8499999999999999E-002    -5.9415236711843421E-006
  -1.8450000000000001E-002    -6.0765509964779672E-006
  -1.8400000000000000E-002    -6.2141826489267314E-006
  -1.8349999999999998E-002    -6.3544690115315880E-006
  -1.8300000000000000E-002    -6.4974830058244884E-006
  -1.8249999999999999E-002    -6.6433038019883859E-006
  -1.8200000000000001E-002    -6.7920075578876233E-006
  -1.8149999999999999E-002    -6.9436506529496707E-006
  -1.8100000000000002E-002    -7.0982649246309376E-006
  -1.8050000000000000E-002    -7.2558652136675418E-006
  -1.7999999999999999E-002    -7.4164582275117809E-006
  -1.7950000000000001E-002    -7.5800582501217504E-006
  -1.7899999999999999E-002    -7.7466964710051393E-006
  -1.7850000000000001E-002    -7.9164283942537969E-006
  -1.7800000000000000E-002    -8.0893298758526435E-006
  -1.7749999999999998E-002    -8.2654911367128180E-006
  -1.7700000000000000E-002    -8.4450035039207080E-006
  -1.7649999999999999E-002    -8.6279445666956632E-006
  -1.7600000000000001E-002    -8.8143673353880957E-006
  -1.7550000000000000E-002    -9.0042964017527873E-006
  -1.7499999999999998E-002    -9.1977389635224313E-006
  -1.7450000000000000E-002    -9.3946970665166081E-006
  -1.7399999999999999E-002    -9.5951893954152721E-006
  -1.7350000000000001E-002    -9.7992596488480550E-006
  -1.7299999999999999E-002    -1.0006978656016122E-005
  -1.7250000000000001E-002    -1.0218438716143669E-005
  -1.7200000000000000E-002    -1.0433736027390245E-005
  -1.7149999999999999E-002    -1.0652956234342701E-005
  -1.7100000000000001E-002    -1.0876164050537590E-005
  -1.7049999999999999E-002    -1.1103397250033980E-005
  -1.7000000000000001E-002    -1.1334676109487759E-005
  -1.6950000000000000E-002    -1.1570014030112581E-005
  -1.6899999999999998E-002    -1.1809439195908239E-005
  -1.6850000000000000E-002    -1.2053001372050495E-005
  -1.6799999999999999E-002    -1.2300776500641900E-005
  -1.6750000000000001E-002    -1.2552859023988291E-005
  -1.6700000000000000E-002    -1.2809349587662450E-005
  -1.6649999999999998E-002    -1.3070336936056677E-005
  -1.6600000000000000E-002    -1.3335889813082087E-005
  -1.6549999999999999E-002    -1.3606049199347910E-005
  -1.6500000000000001E-002    -1.3880836050880804E-005
  -1.6449999999999999E-002    -1.4160262581754161E-005
  -1.6400000000000001E-002    -1.4444348290187302E-005
  -1.6350000000000000E-002    -1.4733135536829630E-005
  -1.6299999999999999E-002    -1.5026692256229738E-005
  -1.6250000000000001E-002    -1.5325110726708025E-005
  -1.6199999999999999E-002    -1.5628490335449547E-005
  -1.6150000000000001E-002    -1.5936925173353561E-005
  -1.6100000000000000E-002    -1.6250485477750759E-005
  -1.6049999999999998E-002    -1.6569221581747359E-005
  -1.6000000000000000E-002    -1.6893171491803626E-005
  -1.5949999999999999E-002    -1.7222362840108401E-005
  -1.5900000000000001E-002    -1.7556830842970624E-005
  -1.5850000000000000E-002    -1.7896623438748640E-005
  -1.5799999999999998E-002    -1.8241802892345992E-005
  -1.5750000000000000E-002    -1.8592451152879365E-005
  -1.5699999999999999E-002    -1.8948657327377319E-005
  -1.5650000000000001E-002    -1.9310507003332143E-005
  -1.5599999999999999E-002    -1.9678078873886284E-005
  -1.5550000000000001E-002    -2.0051435003121074E-005
  -1.5500000000000000E-002    -2.0430622655671122E-005
  -1.5449999999999998E-002    -2.0815681865889784E-005
  -1.5400000000000000E-002    -2.1206645007188505E-005
  -1.5349999999999999E-002    -2.1603555368785204E-005
  -1.5300000000000001E-002    -2.2006461891536621E-005
  -1.5250000000000000E-002    -2.2415435662725996E-005
  -1.5199999999999998E-002    -2.2830560250705457E-005
  -1.5150000000000000E-002    -2.3251931852799979E-005
  -1.5099999999999999E-002    -2.3679639338677643E-005
  -1.5050000000000001E-002    -2.4113761603946566E-005
  -1.4999999999999999E-002    -2.4554356310538280E-005
  -1.4949999999999998E-002    -2.5001466874309717E-005
  -1.4900000000000000E-002    -2.5455126717770811E-005
  -1.4849999999999999E-002    -2.5915376841655515E-005
  -1.4800000000000001E-002    -2.6382265074594462E-005
  -1.4749999999999999E-002    -2.6855849869388483E-005
  -1.4700000000000001E-002    -2.7336203483545932E-005
  -1.4650000000000000E-002    -2.7823401821009491E-005
  -1.4599999999999998E-002    -2.8317525071797849E-005
  -1.4550000000000000E-002    -2.8818649405691298E-005
  -1.4499999999999999E-002    -2.9326840188725291E-005
  -1.4450000000000001E-002    -2.9842148093521539E-005
  -1.4400000000000000E-002    -3.0364615861520035E-005
  -1.4349999999999998E-002    -3.0894279303691414E-005
  -1.4300000000000000E-002    -3.1431177815684517E-005
  -1.4249999999999999E-002    -3.1975365936876482E-005
  -1.4200000000000001E-002    -3.2526905471483755E-005
  -1.4149999999999999E-002    -3.3085873082291257E-005
  -1.4099999999999998E-002    -3.3652352719349803E-005
  -1.4050000000000000E-002    -3.4226420309780328E-005
  -1.3999999999999999E-002    -3.4808140987721426E-005
  -1.3950000000000001E-002    -3.5397571867712940E-005
  -1.3899999999999999E-002    -3.5994744597934981E-005
  -1.3850000000000001E-002    -3.6599683798816621E-005
  -1.3800000000000000E-002    -3.7212418876417075E-005
  -1.3749999999999998E-002    -3.7832983179074924E-005
  -1.3700000000000000E-002    -3.8461427911737887E-005
  -1.3649999999999999E-002    -3.9097814556760403E-005
  -1.3600000000000001E-002    -3.9742226365952770E-005
  -1.3550000000000000E-002    -4.0394727842107283E-005
  -1.3499999999999998E-002    -4.1055387193806957E-005
  -1.3450000000000000E-002    -4.1724258593607847E-005
  -1.3399999999999999E-002    -4.2401377098087622E-005
  -1.3350000000000001E-002    -4.3086759711754938E-005
  -1.3299999999999999E-002    -4.3780420234422284E-005
  -1.3249999999999998E-002    -4.4482380042008780E-005
  -1.3200000000000000E-002    -4.5192683204661055E-005
  -1.3149999999999998E-002    -4.5911385058569910E-005
  -1.3100000000000001E-002    -4.6638555098265737E-005
  -1.3049999999999999E-002    -4.7374265435214360E-005
  -1.3000000000000001E-002    -4.8118576310502700E-005
  -1.2950000000000000E-002    -4.8871525420016658E-005
  -1.2899999999999998E-002    -4.9633133229302337E-005
  -1.2850000000000000E-002    -5.0403398995335684E-005
  -1.2799999999999999E-002    -5.1182330009558077E-005