  -4.0000000000000001E-002     0.0000000000000000     
  -3.9949999999999999E-002     0.0000000000000000     
  -3.9899999999999998E-002     0.0000000000000000     
  -3.9850000000000003E-002     0.0000000000000000     
  -3.9800000000000002E-002     4.7329217514203899E-017
  -3.9750000000000001E-002     3.8652904513093357E-016
  -3.9699999999999999E-002     1.6411501886205038E-015
  -3.9649999999999998E-002     4.7056380969065372E-015
  -3.9600000000000003E-002     9.9377192346123358E-015
  -3.9550000000000002E-002     1.5692651339343270E-014
  -3.9500000000000000E-002     1.7138929187657732E-014
  -3.9449999999999999E-002     6.8059858064005775E-015
  -3.9399999999999998E-002    -2.2517511260523297E-014
  -3.9350000000000003E-002    -7.3953907229786586E-014
  -3.9300000000000002E-002    -1.4469238632712926E-013
  -3.9250000000000000E-002    -2.2788909003120219E-013
  -3.9199999999999999E-002    -3.1614532706358864E-013
  -3.9150000000000004E-002    -4.0084248521337199E-013
  -3.9100000000000003E-002    -4.6293508023447124E-013
  -3.9050000000000001E-002    -4.5856740739396045E-013
  -3.9000000000000000E-002    -3.1253865111107383E-013
  -3.8949999999999999E-002     6.4682417625714949E-014
  -3.8900000000000004E-002     7.3138384894716333E-013
  -3.8850000000000003E-002     1.6563633745918530E-012
  -3.8800000000000001E-002     2.6815483320369728E-012
  -3.8750000000000000E-002     3.5379806813762658E-012
  -3.8699999999999998E-002     3.9228284871419141E-012
  -3.8650000000000004E-002     3.6085832075413650E-012
  -3.8600000000000002E-002     2.5310956042593124E-012
  -3.8550000000000001E-002     8.0971869013723714E-013
  -3.8500000000000000E-002    -1.3100793054914542E-012
  -3.8449999999999998E-002    -3.5562063311793043E-012
  -3.8400000000000004E-002    -5.7130243828576753E-012
  -3.8350000000000002E-002    -7.6443606280569541E-012
  -3.8300000000000001E-002    -9.2551249248403217E-012
  -3.8249999999999999E-002    -1.0429988089917064E-011
  -3.8199999999999998E-002    -1.0997228482193400E-011
  -3.8150000000000003E-002    -1.0740976972956136E-011
  -3.8100000000000002E-002    -9.4476867208642603E-012
  -3.8050000000000000E-002    -6.9533249875520596E-012
  -3.7999999999999999E-002    -3.1710765386825632E-012
  -3.7949999999999998E-002     1.8891323588378870E-012
  -3.7900000000000003E-002     8.0798001710218199E-012
  -3.7850000000000002E-002     1.5042023298042544E-011
  -3.7800000000000000E-002     2.2132475574196120E-011
  -3.7749999999999999E-002     2.8421819484122938E-011
  -3.7699999999999997E-002     3.2825335615553781E-011
  -3.7650000000000003E-002     3.4362378183614057E-011
  -3.7600000000000001E-002     3.2456846967935758E-011
  -3.7550000000000000E-002     2.7142596541130977E-011
  -3.7499999999999999E-002     1.9064838143434215E-011
  -3.7449999999999997E-002     9.2631382343830460E-012
  -3.7400000000000003E-002    -1.1702924858309762E-012
  -3.7350000000000001E-002    -1.1406715321168498E-011
  -3.7300000000000000E-002    -2.1047868689199175E-011
  -3.7249999999999998E-002    -3.0108010925205569E-011
  -3.7200000000000004E-002    -3.8862740337379326E-011
  -3.7150000000000002E-002    -4.7649318683877470E-011
  -3.7100000000000001E-002    -5.6671833388703106E-011
  -3.7050000000000000E-002    -6.5810753374977559E-011
  -3.6999999999999998E-002    -7.4418975516704441E-011
  -3.6950000000000004E-002    -8.1133270747596218E-011
  -3.6900000000000002E-002    -8.3810429762176109E-011
  -3.6850000000000001E-002    -7.9738684221653143E-011
  -3.6799999999999999E-002    -6.6213830572758103E-011
  -3.6749999999999998E-002    -4.1407799916861484E-011
  -3.6700000000000003E-002    -5.2691236314354156E-012
  -3.6650000000000002E-002     3.9904982933094323E-011
  -3.6600000000000001E-002     8.9518911023735408E-011
  -3.6549999999999999E-002     1.3742317269254748E-010
  -3.6499999999999998E-002     1.7714949498937370E-010
  -3.6450000000000003E-002     2.0324302732056959E-010
  -3.6400000000000002E-002     2.1228455159818813E-010
  -3.6350000000000000E-002     2.0335276815089674E-010
  -3.6299999999999999E-002     1.7790651188873959E-010
  -3.6249999999999998E-002     1.3924694521335035E-010
  -3.6200000000000003E-002     9.1780142939010504E-011
  -3.6150000000000002E-002     4.0256812839235794E-011
  -3.6100000000000000E-002    -1.0904267991435273E-011
  -3.6049999999999999E-002    -5.8131907830187989E-011
  -3.6000000000000004E-002    -9.8965065203493678E-011
  -3.5950000000000003E-002    -1.3197050932780497E-010
  -3.5900000000000001E-002    -1.5630631609933495E-010
  -3.5850000000000000E-002    -1.7108664195329835E-010
  -3.5799999999999998E-002    -1.7486282950596351E-010
  -3.5750000000000004E-002    -1.6556176827160848E-010
  -3.5700000000000003E-002    -1.4104411090270064E-010
  -3.5650000000000001E-002    -1.0011944264804668E-010
  -3.5600000000000000E-002    -4.3556564348647325E-011
  -3.5549999999999998E-002     2.5455142832270806E-011
  -3.5500000000000004E-002     1.0172225529311481E-010
  -3.5450000000000002E-002     1.7925598567315091E-010
  -3.5400000000000001E-002     2.5279928787676332E-010
  -3.5349999999999999E-002     3.1905743977136832E-010
  -3.5299999999999998E-002     3.7719364224948604E-010
  -3.5250000000000004E-002     4.2852673675472377E-010
  -3.5200000000000002E-002     4.7571157765321489E-010
  -3.5150000000000001E-002     5.2180163503260967E-010
  -3.5099999999999999E-002     5.6947031184088491E-010
  -3.5049999999999998E-002     6.2044139291981063E-010
  -3.5000000000000003E-002     6.7504725188112257E-010
  -3.4950000000000002E-002     7.3190049692647186E-010
  -3.4900000000000000E-002     7.8784045175004729E-010
  -3.4849999999999999E-002     8.3841937699432842E-010
  -3.4799999999999998E-002     8.7905562389528800E-010
  -3.4750000000000003E-002     9.0662521462343790E-010
  -3.4700000000000002E-002     9.2089299297821126E-010
  -3.4650000000000000E-002     9.2507250142074512E-010
  -3.4599999999999999E-002     9.2508546698695682E-010
  -3.4549999999999997E-002     9.2767472451198062E-010
  -3.4500000000000003E-002     9.3808184795203677E-010
  -3.4450000000000001E-002     9.5822844509979635E-010
  -3.4400000000000000E-002     9.8608248194068365E-010
  -3.4349999999999999E-002     1.0163167879766950E-009
  -3.4299999999999997E-002     1.0418014621634323E-009
  -3.4250000000000003E-002     1.0552383994248161E-009
  -3.4200000000000001E-002     1.0504237713906323E-009
  -3.4150000000000000E-002     1.0230307974513291E-009
  -3.4099999999999998E-002     9.7112644115931555E-010
  -3.4049999999999997E-002     8.9565323814736478E-010
  -3.4000000000000002E-002     8.0084476316730807E-010
  -3.3950000000000001E-002     6.9426487789402863E-010
  -3.3900000000000000E-002     5.8612567583856219E-010
  -3.3849999999999998E-002     4.8784941822369232E-010
  -3.3799999999999997E-002     4.1031352908403066E-010
  -3.3750000000000002E-002     3.6250514748087141E-010
  -3.3700000000000001E-002     3.5117303883231487E-010
  -3.3649999999999999E-002     3.8152086406456788E-010
  -3.3599999999999998E-002     4.5836250133730768E-010
  -3.3550000000000003E-002     5.8686470151508989E-010
  -3.3500000000000002E-002     7.7225317828875708E-010
  -3.3450000000000001E-002     1.0185198241682970E-009
  -3.3399999999999999E-002     1.3268248193126850E-009
  -3.3349999999999998E-002     1.6945148969202574E-009
  -3.3300000000000003E-002     2.1153292374536861E-009
  -3.3250000000000002E-002     2.5806661480209803E-009
  -3.3200000000000000E-002     3.0812116379173749E-009
  -3.3149999999999999E-002     3.6081322269765261E-009
  -3.3099999999999997E-002     4.1534834568643024E-009
  -3.3050000000000003E-002     4.7100917246309926E-009
  -3.3000000000000002E-002     5.2715243465767699E-009
  -3.2950000000000000E-002     5.8325827104941420E-009
  -3.2899999999999999E-002     6.3901666325968791E-009
  -3.2850000000000004E-002     6.9438221979812529E-009
  -3.2800000000000003E-002     7.4952245604401657E-009
  -3.2750000000000001E-002     8.0463875891501821E-009
  -3.2700000000000000E-002     8.5972317304765435E-009
  -3.2649999999999998E-002     9.1436658436120473E-009
  -3.2600000000000004E-002     9.6772639456438735E-009
  -3.2550000000000003E-002     1.0186780700259197E-008
  -3.2500000000000001E-002     1.0660800752283621E-008
  -3.2450000000000000E-002     1.1090179472780263E-008
  -3.2399999999999998E-002     1.1469136080131517E-008
  -3.2350000000000004E-002     1.1794668985419515E-008
  -3.2300000000000002E-002     1.2064925026873485E-008
  -3.2250000000000001E-002     1.2277646490844691E-008
  -3.2199999999999999E-002     1.2429610567272862E-008
  -3.2149999999999998E-002     1.2517214394500899E-008
  -3.2100000000000004E-002     1.2537617818806901E-008
  -3.2050000000000002E-002     1.2489668438144039E-008
  -3.2000000000000001E-002     1.2374080727589752E-008
  -3.1949999999999999E-002     1.2193048504811239E-008
  -3.1899999999999998E-002     1.1949863025018624E-008
  -3.1850000000000003E-002     1.1649009103912176E-008
  -3.1800000000000002E-002     1.1296710103501800E-008
  -3.1750000000000000E-002     1.0901378929014741E-008
  -3.1699999999999999E-002     1.0473316943019186E-008
  -3.1649999999999998E-002     1.0023468680535071E-008
  -3.1600000000000003E-002     9.5617328308706078E-009
  -3.1550000000000002E-002     9.0957827924997940E-009
  -3.1500000000000000E-002     8.6311781530037536E-009
  -3.1449999999999999E-002     8.1727950236798588E-009
  -3.1399999999999997E-002     7.7267507102506027E-009
  -3.1350000000000003E-002     7.3015563405585702E-009
  -3.1300000000000001E-002     6.9076332111913734E-009
  -3.1250000000000000E-002     6.5552137616717394E-009
  -3.1199999999999999E-002     6.2516230597711058E-009
  -3.1150000000000001E-002     5.9992819640030521E-009
  -3.1100000000000003E-002     5.7953914149734454E-009
  -3.1050000000000001E-002     5.6333142407902207E-009
  -3.1000000000000000E-002     5.5048391074717367E-009
  -3.0949999999999998E-002     5.4022115606617755E-009
  -3.0900000000000000E-002     5.3192005297685649E-009
  -3.0850000000000002E-002     5.2511949268354640E-009
  -3.0800000000000001E-002     5.1948611920942237E-009
  -3.0750000000000000E-002     5.1479211378806250E-009
  -3.0699999999999998E-002     5.1091949978328850E-009
  -3.0650000000000000E-002     5.0785611617258785E-009
  -3.0600000000000002E-002     5.0563605680831458E-009
  -3.0550000000000001E-002     5.0421202819763177E-009
  -3.0499999999999999E-002     5.0330809817493753E-009
  -3.0449999999999998E-002     5.0233894960871898E-009
  -3.0400000000000000E-002     5.0046668332482456E-009
  -3.0350000000000002E-002     4.9679906736859294E-009
  -3.0300000000000001E-002     4.9065244927529328E-009
  -3.0249999999999999E-002     4.8175954611437307E-009
  -3.0200000000000001E-002     4.7032395539480903E-009
  -3.0150000000000000E-002     4.5689721110848129E-009
  -3.0100000000000002E-002     4.4213727245899290E-009
  -3.0050000000000000E-002     4.2655459104350199E-009
  -2.9999999999999999E-002     4.1034147075581050E-009
  -2.9950000000000001E-002     3.9332839745485731E-009
  -2.9899999999999999E-002     3.7505236102189284E-009
  -2.9850000000000002E-002     3.5488986360910531E-009
  -2.9800000000000000E-002     3.3220805972012319E-009
  -2.9749999999999999E-002     3.0650769746384797E-009
  -2.9700000000000001E-002     2.7754621331851396E-009
  -2.9650000000000003E-002     2.4542646411117450E-009
  -2.9600000000000001E-002     2.1062619327586931E-009
  -2.9550000000000000E-002     1.7394276869964583E-009
  -2.9499999999999998E-002     1.3635017190381421E-009
  -2.9450000000000000E-002     9.8802439167626329E-010
  -2.9400000000000003E-002     6.2047942525685047E-010
  -2.9350000000000001E-002     2.6519892266629224E-010
  -2.9300000000000000E-002    -7.6650870402982219E-011
  -2.9249999999999998E-002    -4.0617042423589086E-010
  -2.9200000000000000E-002    -7.2544817885591240E-010
  -2.9150000000000002E-002    -1.0364824372857038E-009
  -2.9100000000000001E-002    -1.3406192373615343E-009
  -2.9049999999999999E-002    -1.6384906638388239E-009
  -2.8999999999999998E-002    -1.9302346714267747E-009
  -2.8950000000000000E-002    -2.2158303122379406E-009
  -2.8900000000000002E-002    -2.4955546612546152E-009
  -2.8850000000000001E-002    -2.7706458065888328E-009
  -2.8799999999999999E-002    -3.0441348244029536E-009
  -2.8749999999999998E-002    -3.3215379223496309E-009
  -2.8700000000000000E-002    -3.6109337149829859E-009
  -2.8650000000000002E-002    -3.9220787376936450E-009
  -2.8600000000000000E-002    -4.2646511493236335E-009
  -2.8549999999999999E-002    -4.6462232785656864E-009
  -2.8500000000000001E-002    -5.0707937607238267E-009
  -2.8450000000000000E-002    -5.5385054808372431E-009
  -2.8400000000000002E-002    -6.0466137575023789E-009
  -2.8350000000000000E-002    -6.5911786891902565E-009
  -2.8299999999999999E-002    -7.1686915520595934E-009
  -2.8250000000000001E-002    -7.7770783317773286E-009
  -2.8200000000000003E-002    -8.4159881639740545E-009
  -2.8150000000000001E-002    -9.0866665411293078E-009
  -2.8100000000000000E-002    -9.7917646616669437E-009
  -2.8049999999999999E-002    -1.0535144015711529E-008
  -2.8000000000000001E-002    -1.1321398772774251E-008
  -2.7950000000000003E-002    -1.2154814477690880E-008
  -2.7900000000000001E-002    -1.3037849841105783E-008
  -2.7850000000000000E-002    -1.3969761125915238E-008
  -2.7799999999999998E-002    -1.4946273209606315E-008
  -2.7750000000000000E-002    -1.5960775810361421E-008
  -2.7700000000000002E-002    -1.7006811009925139E-008
  -2.7650000000000001E-002    -1.8080693649720870E-008
  -2.7600000000000000E-002    -1.9182921481363105E-008
  -2.7549999999999998E-002    -2.0317610365828539E-008
  -2.7500000000000000E-002    -2.1490268892652053E-008
  -2.7450000000000002E-002    -2.2705245803427445E-008
  -2.7400000000000001E-002    -2.3964317912998636E-008
  -2.7349999999999999E-002    -2.5267154249667580E-008
  -2.7299999999999998E-002    -2.6613149920720836E-008
  -2.7250000000000000E-002    -2.8003228571349196E-008
  -2.7200000000000002E-002    -2.9440287299795453E-008
  -2.7150000000000001E-002    -3.0927929515195427E-008
  -2.7099999999999999E-002    -3.2468384114860606E-008
  -2.7049999999999998E-002    -3.4061183624368849E-008
  -2.7000000000000000E-002    -3.5703778283804459E-008
  -2.6950000000000002E-002    -3.7393892553191020E-008
  -2.6900000000000000E-002    -3.9132268610682388E-008
  -2.6849999999999999E-002    -4.0923970604562930E-008
  -2.6800000000000001E-002    -4.2777250220768868E-008
  -2.6749999999999999E-002    -4.4700483031839970E-008
  -2.6700000000000002E-002    -4.6699010085109073E-008
  -2.6650000000000000E-002    -4.8773805214891946E-008
  -2.6599999999999999E-002    -5.0922747621541501E-008
  -2.6550000000000001E-002    -5.3143742876438219E-008
  -2.6500000000000003E-002    -5.5437571230727793E-008
  -2.6450000000000001E-002    -5.7808905089299611E-008
  -2.6400000000000000E-002    -6.0264745523989555E-008
  -2.6349999999999998E-002    -6.2811738062079517E-008
  -2.6300000000000000E-002    -6.5454144140342233E-008
  -2.6250000000000002E-002    -6.8193975496471127E-008
  -2.6200000000000001E-002    -7.1033010449927088E-008
  -2.6150000000000000E-002    -7.3975238152790280E-008
  -2.6099999999999998E-002    -7.7027712764823140E-008
  -2.6050000000000000E-002    -8.0199038061190343E-008
  -2.6000000000000002E-002    -8.3496190812656800E-008
  -2.5950000000000001E-002    -8.6921926377201042E-008
  -2.5899999999999999E-002    -9.0474485983772843E-008
  -2.5849999999999998E-002    -9.4150186137116680E-008
  -2.5800000000000000E-002    -9.7947220842614242E-008
  -2.5750000000000002E-002    -1.0186844789648705E-007
  -2.5700000000000001E-002    -1.0592122201484904E-007
  -2.5649999999999999E-002    -1.1011444201699481E-007
  -2.5599999999999998E-002    -1.1445465993965045E-007
  -2.5550000000000000E-002    -1.1894404680636117E-007
  -2.5500000000000002E-002    -1.2358139128493001E-007
  -2.5450000000000000E-002    -1.2836572200722564E-007
  -2.5399999999999999E-002    -1.3329998218257189E-007
  -2.5349999999999998E-002    -1.3839234768316704E-007
  -2.5300000000000000E-002    -1.4365418744108681E-007
  -2.5250000000000002E-002    -1.4909592789031228E-007
  -2.5200000000000000E-002    -1.5472364808354063E-007
  -2.5149999999999999E-002    -1.6053864952263161E-007
  -2.5100000000000001E-002    -1.6654050676683366E-007
  -2.5049999999999999E-002    -1.7273150838332529E-007
  -2.5000000000000001E-002    -1.7911946783396773E-007
  -2.4950000000000000E-002    -1.8571700893539733E-007
  -2.4899999999999999E-002    -1.9253742226752315E-007
  -2.4850000000000001E-002    -1.9958994707813929E-007
  -2.4800000000000003E-002    -2.0687737420299024E-007
  -2.4750000000000001E-002    -2.1439779094178390E-007
  -2.4700000000000000E-002    -2.2214937075438200E-007
  -2.4649999999999998E-002    -2.3013511460158380E-007
  -2.4600000000000000E-002    -2.3836436564794048E-007
  -2.4550000000000002E-002    -2.4685011903363544E-007
  -2.4500000000000001E-002    -2.5560377320794803E-007
  -2.4450000000000000E-002    -2.6463067760257646E-007
  -2.4399999999999998E-002    -2.7392967716170024E-007
  -2.4350000000000000E-002    -2.8349726037073497E-007
  -2.4299999999999999E-002    -2.9333348524945103E-007
  -2.4250000000000001E-002    -3.0344644430367746E-007
  -2.4199999999999999E-002    -3.1385211002766484E-007
  -2.4150000000000001E-002    -3.2456997954903900E-007
  -2.4100000000000000E-002    -3.3561711210772130E-007
  -2.4049999999999998E-002    -3.4700456572014208E-007
  -2.4000000000000000E-002    -3.5873807839516963E-007
  -2.3949999999999999E-002    -3.7082228961784534E-007
  -2.3900000000000001E-002    -3.8326562842027222E-007
  -2.3850000000000000E-002    -3.9608238376375637E-007
  -2.3800000000000002E-002    -4.0929043109009710E-007
  -2.3750000000000000E-002    -4.2290667115117904E-007
  -2.3699999999999999E-002    -4.3694287065466274E-007
  -2.3650000000000001E-002    -4.5140548946906211E-007
  -2.3599999999999999E-002    -4.6629918867439779E-007
  -2.3550000000000001E-002    -4.8163225981347381E-007
  -2.3500000000000000E-002    -4.9741962610050632E-007
  -2.3449999999999999E-002    -5.1368116866065344E-007
  -2.3400000000000001E-002    -5.3043661181554245E-007
  -2.3349999999999999E-002    -5.4769964900112037E-007
  -2.3300000000000001E-002    -5.6547583375910842E-007
  -2.3250000000000000E-002    -5.8376578638206025E-007
  -2.3199999999999998E-002    -6.0257139112905197E-007
  -2.3150000000000000E-002    -6.2190159075972828E-007
  -2.3099999999999999E-002    -6.4177439545974335E-007
  -2.3050000000000001E-002    -6.6221293535425364E-007
  -2.3000000000000000E-002    -6.8323922318445684E-007
  -2.2950000000000002E-002    -7.0486925651143859E-007
  -2.2900000000000000E-002    -7.2711274738483435E-007
  -2.2849999999999999E-002    -7.4997767434477177E-007
  -2.2800000000000001E-002    -7.7347662708889072E-007
  -2.2749999999999999E-002    -7.9762982463854243E-007
  -2.2700000000000001E-002    -8.2246341173191726E-007
  -2.2650000000000000E-002    -8.4800313701761301E-007
  -2.2599999999999999E-002    -8.7426802063405358E-007
  -2.2550000000000001E-002    -9.0126767847743946E-007
  -2.2499999999999999E-002    -9.2900603322414746E-007
  -2.2450000000000001E-002    -9.5748918324768936E-007
  -2.2400000000000000E-002    -9.8673148021697074E-007
  -2.2349999999999998E-002    -1.0167572163792482E-006
  -2.2300000000000000E-002    -1.0475961550300638E-006
  -2.2249999999999999E-002    -1.0792757434961641E-006
  -2.2200000000000001E-002    -1.1118148774313038E-006
  -2.2150000000000000E-002    -1.1452246411360890E-006
  -2.2100000000000002E-002    -1.1795135421797373E-006
  -2.2050000000000000E-002    -1.2146954960202760E-006
  -2.1999999999999999E-002    -1.2507951374384166E-006
  -2.1950000000000001E-002    -1.2878468184696770E-006
  -2.1899999999999999E-002    -1.3258870311471548E-006
  -2.1850000000000001E-002    -1.3649474317648750E-006
  -2.1800000000000000E-002    -1.4050511467283000E-006
  -2.1749999999999999E-002    -1.4462153144443676E-006
  -2.1700000000000001E-002    -1.4884578194393062E-006
  -2.1649999999999999E-002    -1.5318041302583063E-006
  -2.1600000000000001E-002    -1.5762889137134717E-006
  -2.1550000000000000E-002    -1.6219517450584415E-006
  -2.1499999999999998E-002    -1.6688289679641625E-006
  -2.1450000000000000E-002    -1.7169481945664382E-006
  -2.1399999999999999E-002    -1.7663276026639077E-006
  -2.1350000000000001E-002    -1.8169816554157011E-006
  -2.1299999999999999E-002    -1.8689289859294916E-006
  -2.1250000000000002E-002    -1.9221975152454498E-006
  -2.1200000000000000E-002    -1.9768224641766932E-006
  -2.1149999999999999E-002    -2.0328402503793987E-006
  -2.1100000000000001E-002    -2.0902823390418190E-006
  -2.1049999999999999E-002    -2.1491720670036826E-006
  -2.1000000000000001E-002    -2.2095279410427711E-006
  -2.0950000000000000E-002    -2.2713717251975169E-006
  -2.0899999999999998E-002    -2.3347352592731105E-006
  -2.0850000000000000E-002    -2.3996607065971850E-006
  -2.0799999999999999E-002    -2.4661971294097846E-006
  -2.0750000000000001E-002    -2.5343900951134334E-006
  -2.0700000000000000E-002    -2.6042764909389647E-006
  -2.0649999999999998E-002    -2.6758853691452516E-006
  -2.0600000000000000E-002    -2.7492430905794215E-006
  -2.0549999999999999E-002    -2.8243824314190305E-006
  -2.0500000000000001E-002    -2.9013470798986713E-006
  -2.0449999999999999E-002    -2.9801897736513217E-006
  -2.0400000000000001E-002    -3.0609641390942998E-006
  -2.0350000000000000E-002    -3.1437161586350397E-006
  -2.0299999999999999E-002    -3.2284794201996185E-006
  -2.0250000000000001E-002    -3.3152799689840367E-006
  -2.0199999999999999E-002    -3.4041457401889981E-006
  -2.0150000000000001E-002    -3.4951133186366995E-006
  -2.0100000000000000E-002    -3.5882324459228802E-006
  -2.0049999999999998E-002    -3.6835599563145175E-006
  -2.0000000000000000E-002    -3.7811522176325846E-006
  -1.9949999999999999E-002    -3.8810570867956015E-006
  -1.9900000000000001E-002    -3.9833132694107866E-006
  -1.9850000000000000E-002    -4.0879558103672160E-006
  -1.9799999999999998E-002    -4.1950257445820419E-006
  -1.9750000000000000E-002    -4.3045746418390497E-006
  -1.9699999999999999E-002    -4.4166648031520220E-006
  -1.9650000000000001E-002    -4.5313624255577076E-006
  -1.9599999999999999E-002    -4.6487262832253072E-006
  -1.9550000000000001E-002    -4.7688044312853701E-006
  -1.9500000000000000E-002    -4.8916362995399568E-006
  -1.9449999999999999E-002    -5.0172605636878708E-006
  -1.9400000000000001E-002    -5.1457239301952139E-006
  -1.9349999999999999E-002    -5.2770889707816990E-006
  -1.9300000000000001E-002    -5.4114271968664092E-006
  -1.9250000000000000E-002    -5.5488120852024407E-006
  -1.9199999999999998E-002    -5.6893060656703056E-006
  -1.9150000000000000E-002    -5.8329594044131492E-006
  -1.9099999999999999E-002    -5.9798124425745941E-006
  -1.9050000000000001E-002    -6.1299062388365038E-006
  -1.9000000000000000E-002    -6.2832932037426832E-006
  -1.8949999999999998E-002    -6.4400410678242386E-006
  -1.8900000000000000E-002    -6.6002272182624102E-006
  -1.8849999999999999E-002    -6.7639282924467390E-006
  -1.8800000000000001E-002    -6.9312119166262558E-006
  -1.8749999999999999E-002    -7.1021357305394168E-006
  -1.8700000000000001E-002    -7.2767537819107920E-006
  -1.8650000000000000E-002    -7.4551266281852787E-006
  -1.8599999999999998E-002    -7.6373279964811495E-006
  -1.8550000000000001E-002    -7.8234454535837581E-006
  -1.8499999999999999E-002    -8.0135706945247060E-006
  -1.8450000000000001E-002    -8.2077852326919804E-006
  -1.8400000000000000E-002    -8.4061577500497483E-006
  -1.8349999999999998E-002    -8.6087443616734138E-006
  -1.8300000000000000E-002    -8.8156037327354333E-006
  -1.8249999999999999E-002    -9.0268086436536738E-006
  -1.8200000000000001E-002    -9.2424481593370002E-006
  -1.8149999999999999E-002    -9.4626241722232913E-006
  -1.8100000000000002E-002    -9.6874364896967213E-006
  -1.8050000000000000E-002    -9.9169669945900275E-006
  -1.7999999999999999E-002    -1.0151282360080024E-005
  -1.7950000000000001E-002    -1.0390438693293134E-005
  -1.7899999999999999E-002    -1.0634499100056612E-005
  -1.7850000000000001E-002    -1.0883542780503669E-005
  -1.7800000000000000E-002    -1.1137669865988910E-005
  -1.7749999999999998E-002    -1.1396991399615177E-005
  -1.7700000000000000E-002    -1.1661606999092238E-005
  -1.7649999999999999E-002    -1.1931598044255648E-005
  -1.7600000000000001E-002    -1.2207029969199479E-005
  -1.7550000000000000E-002    -1.2487964133699688E-005
  -1.7499999999999998E-002    -1.2774476201271656E-005
  -1.7450000000000000E-002    -1.3066668409852527E-005
  -1.7399999999999999E-002    -1.3364658523471675E-005
  -1.7350000000000001E-002    -1.3668567025024109E-005
  -1.7299999999999999E-002    -1.3978495123827762E-005
  -1.7250000000000001E-002    -1.4294523473440805E-005
  -1.7200000000000000E-002    -1.4616718117946083E-005
  -1.7149999999999999E-002    -1.4945148695595462E-005
  -1.7100000000000001E-002    -1.5279912003034975E-005
  -1.7049999999999999E-002    -1.5621126685969439E-005
  -1.7000000000000001E-002    -1.5968925515888151E-005
  -1.6950000000000000E-002    -1.6323439809088264E-005
  -1.6899999999999998E-002    -1.6684768301815301E-005
  -1.6850000000000000E-002    -1.7052991908858082E-005
  -1.6799999999999999E-002    -1.7428179406706935E-005
  -1.6750000000000001E-002    -1.7810417608123382E-005
  -1.6700000000000000E-002    -1.8199814212454565E-005
  -1.6649999999999998E-002    -1.8596511260453924E-005
  -1.6600000000000000E-002    -1.9000657745124521E-005
  -1.6549999999999999E-002    -1.9412387147814454E-005
  -1.6500000000000001E-002    -1.9831795768837056E-005
  -1.6449999999999999E-002    -2.0258969100537294E-005
  -1.6400000000000001E-002    -2.0693983241197777E-005
  -1.6350000000000000E-002    -2.1136940821374856E-005
  -1.6299999999999999E-002    -2.1587974403995505E-005
  -1.6250000000000001E-002    -2.2047245576185564E-005
  -1.6199999999999999E-002    -2.2514905207169013E-005
  -1.6150000000000001E-002    -2.2991080552667706E-005
  -1.6100000000000000E-002    -2.3475861724971725E-005
  -1.6049999999999998E-002    -2.3969321048242282E-005
  -1.6000000000000000E-002    -2.4471552445097125E-005
  -1.5949999999999999E-002    -2.4982679779783993E-005
  -1.5900000000000001E-002    -2.5502854911828488E-005
  -1.5850000000000000E-002    -2.6032251407695735E-005
  -1.5799999999999998E-002    -2.6571018311083620E-005
  -1.5750000000000000E-002    -2.7119271512319713E-005
  -1.5699999999999999E-002    -2.7677085591486094E-005
  -1.5650000000000001E-002    -2.8244536996720144E-005
  -1.5599999999999999E-002    -2.8821731029199035E-005
  -1.5550000000000001E-002    -2.9408811424687099E-005
  -1.5500000000000000E-002    -3.0005957491612237E-005
  -1.5449999999999998E-002    -3.0613343249145239E-005
  -1.5400000000000000E-002    -3.1231099694493058E-005
  -1.5349999999999999E-002    -3.1859325909614686E-005
  -1.5300000000000001E-002    -3.2498092999525303E-005
  -1.5250000000000000E-002    -3.3147496491379327E-005
  -1.5199999999999998E-002    -3.3807678302933498E-005
  -1.5150000000000000E-002    -3.4478808263005358E-005
  -1.5099999999999999E-002    -3.5161081904384029E-005
  -1.5050000000000001E-002    -3.5854663487981061E-005
  -1.4999999999999999E-002    -3.6559674195965589E-005
  -1.4949999999999998E-002    -3.7276195302734163E-005
  -1.4900000000000000E-002    -3.8004310723715127E-005
  -1.4849999999999999E-002    -3.8744132012642788E-005
  -1.4800000000000001E-002    -3.9495818502690220E-005
  -1.4749999999999999E-002    -4.0259559557356656E-005
  -1.4700000000000001E-002    -4.1035556562255805E-005
  -1.4650000000000000E-002    -4.1823966249414413E-005
  -1.4599999999999998E-002    -4.2624898207933158E-005
  -1.4550000000000000E-002    -4.3438430862991078E-005
  -1.4499999999999999E-002    -4.4264652836903936E-005
  -1.4450000000000001E-002    -4.5103695934436874E-005
  -1.4400000000000000E-002    -4.5955741136221705E-005
  -1.4349999999999998E-002    -4.6820990761863788E-005
  -1.4300000000000000E-002    -4.7699630475433774E-005
  -1.4249999999999999E-002    -4.8591801558618670E-005
  -1.4200000000000001E-002    -4.9497596946888266E-005
  -1.4149999999999999E-002    -5.0417081598332300E-005
  -1.4099999999999998E-002    -5.1350368078630503E-005
  -1.4050000000000000E-002    -5.2297606001908584E-005
  -1.3999999999999999E-002    -5.3258999383105558E-005
  -1.3950000000000001E-002    -5.4234745954615511E-005
  -1.3899999999999999E-002    -5.5225014214453949E-005
  -1.3850000000000001E-002    -5.6229925276146507E-005
  -1.3800000000000000E-002    -5.7249540921415455E-005
  -1.3749999999999998E-002    -5.8283937863577744E-005
  -1.3700000000000000E-002    -5.9333224366819553E-005
  -1.3649999999999999E-002    -6.0397579718138739E-005
  -1.3600000000000001E-002    -6.1477208668670119E-005
  -1.3550000000000000E-002    -6.2572331810304869E-005
  -1.3499999999999998E-002    -6.3683074961710647E-005
  -1.3450000000000000E-002    -6.4809533091086895E-005
  -1.3399999999999999E-002    -6.5951755031410893E-005
  -1.3350000000000001E-002    -6.7109827102335986E-005
  -1.3299999999999999E-002    -6.8283887768077282E-005
  -1.3249999999999998E-002    -6.9474134276592252E-005
  -1.3200000000000000E-002    -7.0680775567321364E-005
  -1.3149999999999998E-002    -7.1903999149035242E-005
  -1.3100000000000001E-002    -7.3143915463047492E-005
  -1.3049999999999999E-002    -7.4400569202945756E-005
  -1.3000000000000001E-002    -7.5674014575459432E-005
  -1.2950000000000000E-002    -7.6964350579574706E-005
  -1.2899999999999998E-002    -7.8271729237889160E-005
  -1.2850000000000000E-002    -7.9596361712333671E-005
  -1.2799999999999999E-002    -8.0938453782392159E-005