  -4.0000000000000001E-002     0.0000000000000000     
  -3.9949999999999999E-002     0.0000000000000000     
  -3.9899999999999998E-002     0.0000000000000000     
  -3.9850000000000003E-002     0.0000000000000000     
  -3.9800000000000002E-002     0.0000000000000000     
  -3.9750000000000001E-002     0.0000000000000000     
  -3.9699999999999999E-002     0.0000000000000000     
  -3.9649999999999998E-002     0.0000000000000000     
  -3.9600000000000003E-002     0.0000000000000000     
  -3.9550000000000002E-002     0.0000000000000000     
  -3.9500000000000000E-002     0.0000000000000000     
  -3.9449999999999999E-002     0.0000000000000000     
  -3.9399999999999998E-002     0.0000000000000000     
  -3.9350000000000003E-002     0.0000000000000000     
  -3.9300000000000002E-002     0.0000000000000000     
  -3.9250000000000000E-002    -9.0064171524671842E-039
  -3.9199999999999999E-002    -2.2625049716347640E-037
  -3.9150000000000004E-002    -2.4413399695601354E-036
  -3.9100000000000003E-002    -1.5284379453832346E-035
  -3.9050000000000001E-002    -5.9722656300772419E-035
  -3.9000000000000000E-002    -1.2917380108082074E-034
  -3.8949999999999999E-002     3.1118776934805158E-035
  -3.8900000000000004E-002     1.4461505912321866E-033
  -3.8850000000000003E-002     6.3286869538071020E-033
  -3.8800000000000001E-002     1.6885928853019369E-032
  -3.8750000000000000E-002     3.0928476909530646E-032
  -3.8699999999999998E-002     3.5733831058624274E-032
  -3.8650000000000004E-002     1.8854738575756485E-033
  -3.8600000000000002E-002    -1.4510923934641258E-031
  -3.8550000000000001E-002    -6.4996988775039132E-031
  -3.8500000000000000E-002    -2.1848542035108368E-030
  -3.8449999999999998E-002    -5.8289315488817972E-030
  -3.8400000000000004E-002    -1.1338796325765463E-029
  -3.8350000000000002E-002    -1.1689381651655008E-029
  -3.8300000000000001E-002     1.5168867553205970E-029
  -3.8249999999999999E-002     1.0648196775659722E-028
  -3.8199999999999998E-002     2.8261326818831137E-028
  -3.8150000000000003E-002     4.6119659221643668E-028
  -3.8100000000000002E-002     3.4595972291770148E-028
  -3.8050000000000000E-002    -5.7566788395707535E-028
  -3.7999999999999999E-002    -2.7032549218995636E-027
  -3.7949999999999998E-002    -5.5409680801745553E-027
  -3.7900000000000003E-002    -6.7934378575302802E-027
  -3.7850000000000002E-002    -2.3583350783343030E-027
  -3.7800000000000000E-002     1.1464757101576822E-026
  -3.7749999999999999E-002     3.3236418187038955E-026
  -3.7699999999999997E-002     5.1463442134274373E-026
  -3.7650000000000003E-002     4.4831339246729027E-026
  -3.7600000000000001E-002    -7.0579427880103189E-027
  -3.7550000000000000E-002    -1.0308678184711517E-025
  -3.7499999999999999E-002    -2.0198413176618071E-025
  -3.7449999999999997E-002    -2.2629312528754365E-025
  -3.7400000000000003E-002    -1.0445082270743066E-025
  -3.7350000000000001E-002     1.5897301483291933E-025
  -3.7300000000000000E-002     4.3086909700185236E-025
  -3.7249999999999998E-002     4.7982741333242046E-025
  -3.7200000000000004E-002     1.2457790500930642E-025
  -3.7150000000000002E-002    -5.4761985859577296E-025
  -3.7100000000000001E-002    -1.0404941448637642E-024
  -3.7050000000000000E-002    -5.7350623743134524E-025
  -3.6999999999999998E-002     1.4315319635324128E-024
  -3.6950000000000004E-002     4.6330716362022830E-024
  -3.6900000000000002E-002     7.2274894417992291E-024
  -3.6850000000000001E-002     6.1403922429099650E-024
  -3.6799999999999999E-002    -1.6364935723978660E-024
  -3.6749999999999998E-002    -1.6682865818719349E-023
  -3.6700000000000003E-002    -3.4695303336066990E-023
  -3.6650000000000002E-002    -4.5613903461735046E-023
  -3.6600000000000001E-002    -3.6104003635552723E-023
  -3.6549999999999999E-002     3.9208957411542869E-024
  -3.6499999999999998E-002     7.2417745490324470E-023
  -3.6450000000000003E-002     1.4847106835555604E-022
  -3.6400000000000002E-002     1.9360356700469691E-022
  -3.6350000000000000E-002     1.6501466751807268E-022
  -3.6299999999999999E-002     3.8450652669808517E-023
  -3.6249999999999998E-002    -1.6958286019378167E-022
  -3.6200000000000003E-002    -3.9509881946659773E-022
  -3.6150000000000002E-002    -5.4578153725109526E-022
  -3.6100000000000000E-002    -5.4182995197432896E-022
  -3.6049999999999999E-002    -3.5651151258811357E-022
  -3.6000000000000004E-002    -2.6908980294386377E-023
  -3.5950000000000003E-002     3.8003341067302133E-022
  -3.5900000000000001E-002     8.2551544897519166E-022
  -3.5850000000000000E-002     1.3248196251152969E-021
  -3.5799999999999998E-002     1.8833141673517949E-021
  -3.5750000000000004E-002     2.3404953740014323E-021
  -3.5700000000000003E-002     2.2203743163700317E-021
  -3.5650000000000001E-002     7.6955691424518528E-022
  -3.5600000000000000E-002    -2.6574526574582077E-021
  -3.5549999999999998E-002    -7.8885871499350800E-021
  -3.5500000000000004E-002    -1.3223985733635250E-020
  -3.5450000000000002E-002    -1.5303594461743717E-020
  -3.5400000000000001E-002    -1.0107946587063761E-020
  -3.5349999999999999E-002     4.8108340179296299E-021
  -3.5299999999999998E-002     2.7589502213489653E-020
  -3.5250000000000004E-002     5.0328218066394082E-020
  -3.5200000000000002E-002     6.0117041168031936E-020
  -3.5150000000000001E-002     4.3729689565504934E-020
  -3.5099999999999999E-002    -4.9321514866178996E-021
  -3.5049999999999998E-002    -7.7695001192356434E-020
  -3.5000000000000003E-002    -1.4954678539361862E-019
  -3.4950000000000002E-002    -1.8410781627914605E-019
  -3.4900000000000000E-002    -1.4744188732724573E-019
  -3.4849999999999999E-002    -2.6021152742202316E-020
  -3.4799999999999998E-002     1.5900971397527849E-019
  -3.4750000000000003E-002     3.4964486315797783E-019
  -3.4700000000000002E-002     4.6549059033700068E-019
  -3.4650000000000000E-002     4.3238057196597501E-019
  -3.4599999999999999E-002     2.1528497567516846E-019
  -3.4549999999999997E-002    -1.5807477752519389E-019
  -3.4500000000000003E-002    -5.9417740034586472E-019
  -3.4450000000000001E-002    -9.5468978399579124E-019
  -3.4400000000000000E-002    -1.0953121274464136E-018
  -3.4349999999999999E-002    -9.0974677722381995E-019
  -3.4299999999999997E-002    -3.6580689982846978E-019
  -3.4250000000000003E-002     4.7391625748574341E-019
  -3.4200000000000001E-002     1.4478959329318334E-018
  -3.4150000000000000E-002     2.3068448654571097E-018
  -3.4099999999999998E-002     2.7431739713910207E-018
  -3.4049999999999997E-002     2.4481857891393132E-018
  -3.4000000000000002E-002     1.2064489421508476E-018
  -3.3950000000000001E-002    -9.7783909491854725E-019
  -3.3900000000000000E-002    -3.7569014894124455E-018
  -3.3849999999999998E-002    -6.3835266684479190E-018
  -3.3799999999999997E-002    -7.8001885833424980E-018
  -3.3750000000000002E-002    -6.9202967722160515E-018
  -3.3700000000000001E-002    -3.0731534171613099E-018
  -3.3649999999999999E-002     3.5163415013115838E-018
  -3.3599999999999998E-002     1.1422670772479280E-017
  -3.3550000000000003E-002     1.8107183308208109E-017
  -3.3500000000000002E-002     2.0519860053704158E-017
  -3.3450000000000001E-002     1.6146928414622873E-017
  -3.3399999999999999E-002     4.2125960372656604E-018
  -3.3349999999999998E-002    -1.3419015123708486E-017
  -3.3300000000000003E-002    -3.2106005022153357E-017
  -3.3250000000000002E-002    -4.5334883801538400E-017
  -3.3200000000000000E-002    -4.6605155408515728E-017
  -3.3149999999999999E-002    -3.1827508040668473E-017
  -3.3099999999999997E-002    -1.4679292625950916E-018
  -3.3050000000000003E-002     3.8403393013340164E-017
  -3.3000000000000002E-002     7.6779232050256916E-017
  -3.2950000000000000E-002     1.0024262043621400E-016
  -3.2899999999999999E-002     9.6894457645464244E-017
  -3.2850000000000004E-002     6.0674583688020797E-017
  -3.2800000000000003E-002    -5.2426004614836174E-018
  -3.2750000000000001E-002    -8.7251175934642966E-017
  -3.2700000000000000E-002    -1.6315498242739225E-016
  -3.2649999999999998E-002    -2.0713348394997569E-016
  -3.2600000000000004E-002    -1.9700103025656011E-016
  -3.2550000000000003E-002    -1.2206100122629776E-016
  -3.2500000000000001E-002     1.0708835296974520E-017
  -3.2450000000000000E-002     1.7444441974956716E-016
  -3.2399999999999998E-002     3.2582466990953835E-016
  -3.2350000000000004E-002     4.1449460601740586E-016
  -3.2300000000000002E-002     3.9705328121706389E-016
  -3.2250000000000001E-002     2.5236263070449651E-016
  -3.2199999999999999E-002    -6.3321515281488581E-018
  -3.2149999999999998E-002    -3.2710953188800919E-016
  -3.2100000000000004E-002    -6.2618821074095452E-016
  -3.2050000000000002E-002    -8.0636099255400243E-016
  -3.2000000000000001E-002    -7.8394251237844345E-016
  -3.1949999999999999E-002    -5.1771564929802587E-016
  -3.1899999999999998E-002    -3.1300889817923185E-017
  -3.1850000000000003E-002     5.7938046230652070E-016
  -3.1800000000000002E-002     1.1589765053381851E-015
  -3.1750000000000000E-002     1.5262518619107445E-015
  -3.1699999999999999E-002     1.5225505995104402E-015
  -3.1649999999999998E-002     1.0639403209140859E-015
  -3.1600000000000003E-002     1.8258063160660969E-016
  -3.1550000000000002E-002    -9.5689320677515463E-016
  -3.1500000000000000E-002    -2.0760225100951119E-015
  -3.1449999999999999E-002    -2.8385636107494512E-015
  -3.1399999999999997E-002    -2.9362943113655950E-015
  -3.1350000000000003E-002    -2.1867412464036331E-015
  -3.1300000000000001E-002    -6.1712975505721280E-016
  -3.1250000000000000E-002     1.4938296313331829E-015
  -3.1199999999999999E-002     3.6397378086795153E-015
  -3.1150000000000001E-002     5.1856942199284946E-015
  -3.1100000000000003E-002     5.5318089562765565E-015
  -3.1050000000000001E-002     4.3062208583510896E-015
  -3.1000000000000000E-002     1.5335139128343591E-015
  -3.0949999999999998E-002    -2.2821803745317861E-015
  -3.0900000000000000E-002    -6.2075815288696865E-015
  -3.0850000000000002E-002    -9.0794670904745445E-015
  -3.0800000000000001E-002    -9.8211926061128036E-015
  -3.0750000000000000E-002    -7.7975943508811337E-015
  -3.0699999999999998E-002    -3.0990376078590272E-015
  -3.0650000000000000E-002     3.3528655002622596E-015
  -3.0600000000000002E-002     9.9452779728138110E-015
  -3.0550000000000001E-002     1.4756033328037804E-014
  -3.0499999999999999E-002     1.6091864837459713E-014
  -3.0449999999999998E-002     1.3033067704555358E-014
  -3.0400000000000000E-002     5.8132481029539195E-015
  -3.0350000000000002E-002    -4.1029248662582638E-015
  -3.0300000000000001E-002    -1.4298118256061597E-014
  -3.0249999999999999E-002    -2.1984202762965680E-014
  -3.0200000000000001E-002    -2.4739635076802917E-014
  -3.0150000000000000E-002    -2.1202720335720537E-014
  -3.0100000000000002E-002    -1.1529641544652828E-014
  -3.0050000000000000E-002     2.5102275536061974E-015
  -2.9999999999999999E-002     1.7834436723301460E-014
  -2.9950000000000001E-002     3.0680537114093167E-014
  -2.9899999999999999E-002     3.7440823613993010E-014
  -2.9850000000000002E-002     3.5533654241667462E-014
  -2.9800000000000000E-002     2.4142956634829146E-014
  -2.9749999999999999E-002     4.6712047997224769E-015
  -2.9700000000000001E-002    -1.9226048821732968E-014
  -2.9650000000000003E-002    -4.2118115426326655E-014
  -2.9600000000000001E-002    -5.7811966221857418E-014
  -2.9550000000000000E-002    -6.0804346147277646E-014
  -2.9499999999999998E-002    -4.7918230328323747E-014
  -2.9450000000000000E-002    -1.9711581994633832E-014
  -2.9400000000000003E-002     1.8838195465865230E-014
  -2.9350000000000001E-002     5.8803716496377055E-014
  -2.9300000000000000E-002     8.9106065691326376E-014
  -2.9249999999999998E-002     9.9404859229366017E-014
  -2.9200000000000000E-002     8.3390626802554053E-014
  -2.9150000000000002E-002     4.1470943856931637E-014
  -2.9100000000000001E-002    -1.8178539573385855E-014
  -2.9049999999999999E-002    -8.0867236716666481E-014
  -2.8999999999999998E-002    -1.2893052155379274E-013
  -2.8950000000000000E-002    -1.4673769789503971E-013
  -2.8900000000000002E-002    -1.2571036628752016E-013
  -2.8850000000000001E-002    -6.7698525774292713E-014
  -2.8799999999999999E-002     1.4561595428762853E-014
  -2.8749999999999998E-002     1.0031203907745400E-013
  -2.8700000000000000E-002     1.6627735066575363E-013
  -2.8650000000000002E-002     1.9321147600143742E-013
  -2.8600000000000000E-002     1.7149531318461186E-013
  -2.8549999999999999E-002     1.0407633850278524E-013
  -2.8500000000000001E-002     5.9040910495820480E-015
  -2.8450000000000000E-002    -9.9867606606714055E-014
  -2.8400000000000002E-002    -1.8768573976963572E-013
  -2.8350000000000000E-002    -2.3572363739848944E-013
  -2.8299999999999999E-002    -2.3078374771020442E-013
  -2.8250000000000001E-002    -1.7103497771198633E-013
  -2.8200000000000003E-002    -6.6374318794558416E-014
  -2.8150000000000001E-002     6.3259938789511809E-014
  -2.8100000000000000E-002     1.9112540275879515E-013
  -2.8049999999999999E-002     2.8808218798588275E-013
  -2.8000000000000001E-002     3.2793288820718232E-013
  -2.7950000000000003E-002     2.9334484896369255E-013
  -2.7900000000000001E-002     1.8152247720628985E-013
  -2.7850000000000000E-002     8.1346111318914554E-015
  -2.7799999999999998E-002    -1.9240459970563245E-013
  -2.7750000000000000E-002    -3.7188469557273641E-013
  -2.7700000000000002E-002    -4.7877486000447058E-013
  -2.7650000000000001E-002    -4.7250013392738789E-013
  -2.7600000000000000E-002    -3.3773347602810957E-013
  -2.7549999999999998E-002    -9.3774795587674278E-014
  -2.7500000000000000E-002     2.0535719966023016E-013
  -2.7450000000000002E-002     4.8205032705191818E-013
  -2.7400000000000001E-002     6.5562846881856232E-013
  -2.7349999999999999E-002     6.6673408280338709E-013
  -2.7299999999999998E-002     4.9779301219685624E-013
  -2.7250000000000000E-002     1.8219565732286526E-013
  -2.7200000000000002E-002    -2.0195821862253145E-013
  -2.7150000000000001E-002    -5.5264568317771150E-013
  -2.7099999999999999E-002    -7.7321212331292274E-013
  -2.7049999999999998E-002    -8.0093149077831867E-013
  -2.7000000000000000E-002    -6.2559501962167775E-013
  -2.6950000000000002E-002    -2.9220258087329292E-013
  -2.6900000000000000E-002     1.1275333782249887E-013
  -2.6849999999999999E-002     4.8645851801906080E-013
  -2.6800000000000001E-002     7.3799597091267278E-013
  -2.6749999999999999E-002     8.1095332417376793E-013
  -2.6700000000000002E-002     6.9457487203382880E-013
  -2.6650000000000000E-002     4.2210868469971388E-013
  -2.6599999999999999E-002     5.9204149366134448E-014
  -2.6550000000000001E-002    -3.1251606713492290E-013
  -2.6500000000000003E-002    -6.1184357675533581E-013
  -2.6450000000000001E-002    -7.7158117931699392E-013
  -2.6400000000000000E-002    -7.4902594210627900E-013
  -2.6349999999999998E-002    -5.3422485444871758E-013
  -2.6300000000000000E-002    -1.5619781152553644E-013
  -2.6250000000000002E-002     3.1474668034611934E-013
  -2.6200000000000001E-002     7.7228322946954913E-013
  -2.6150000000000000E-002     1.0904825832720439E-012
  -2.6099999999999998E-002     1.1519167355707320E-012
  -2.6050000000000000E-002     8.8280519312114018E-013
  -2.6000000000000002E-002     2.8529787327027688E-013
  -2.5950000000000001E-002    -5.4556964448974025E-013
  -2.5899999999999999E-002    -1.4304744913004149E-012
  -2.5849999999999998E-002    -2.1429708993596380E-012
  -2.5800000000000000E-002    -2.4681158004425055E-012
  -2.5750000000000002E-002    -2.2662288536957184E-012
  -2.5700000000000001E-002    -1.5211175743567755E-012
  -2.5649999999999999E-002    -3.5508373656217295E-013
  -2.5599999999999998E-002     9.9699702924782831E-013
  -2.5550000000000000E-002     2.2485521283366678E-012
  -2.5500000000000002E-002     3.1387464916811756E-012
  -2.5450000000000000E-002     3.5017917042150260E-012
  -2.5399999999999999E-002     3.3058700010303649E-012
  -2.5349999999999998E-002     2.6498648661830614E-012
  -2.5300000000000000E-002     1.7206718212061450E-012
  -2.5250000000000002E-002     7.2714223178253947E-013
  -2.5200000000000000E-002    -1.6622001322977169E-013
  -2.5149999999999999E-002    -8.8411299338255881E-013
  -2.5100000000000001E-002    -1.4510249546715066E-012
  -2.5049999999999999E-002    -1.9671857405426435E-012
  -2.5000000000000001E-002    -2.5605970124735840E-012
  -2.4950000000000000E-002    -3.3316348977554519E-012
  -2.4899999999999999E-002    -4.3059707538979122E-012
  -2.4850000000000001E-002    -5.4056884121427235E-012
  -2.4800000000000003E-002    -6.4410875597145563E-012
  -2.4750000000000001E-002    -7.1201018199450211E-012
  -2.4700000000000000E-002    -7.0706125660029134E-012
  -2.4649999999999998E-002    -5.8725771356506665E-012
  -2.4600000000000000E-002    -3.0996217335410000E-012
  -2.4550000000000002E-002     1.6296991668599492E-012
  -2.4500000000000001E-002     8.5934584189246314E-012
  -2.4450000000000000E-002     1.7909156954495079E-011
  -2.4399999999999998E-002     2.9491900775872840E-011
  -2.4350000000000000E-002     4.3044064835892564E-011
  -2.4299999999999999E-002     5.8087925001603904E-011
  -2.4250000000000001E-002     7.4041746541942626E-011
  -2.4199999999999999E-002     9.0325374352925544E-011
  -2.4150000000000001E-002     1.0646917229617053E-010
  -2.4100000000000000E-002     1.2219543768167398E-010
  -2.4049999999999998E-002     1.3744719387706819E-010
  -2.4000000000000000E-002     1.5235444037174037E-010
  -2.3949999999999999E-002     1.6714845262149657E-010
  -2.3900000000000001E-002     1.8205193032881279E-010
  -2.3850000000000000E-002     1.9718166991010690E-010
  -2.3800000000000002E-002     2.1249620028284042E-010
  -2.3750000000000000E-002     2.2780589237070186E-010
  -2.3699999999999999E-002     2.4284186515165167E-010
  -2.3650000000000001E-002     2.5735954908261647E-010
  -2.3599999999999999E-002     2.7124229878749270E-010
  -2.3550000000000001E-002     2.8457062984867237E-010
  -2.3500000000000000E-002     2.9763432627745169E-010
  -2.3449999999999999E-002     3.1088403339320636E-010
  -2.3400000000000001E-002     3.2483683398174351E-010
  -2.3349999999999999E-002     3.3996198656992158E-010
  -2.3300000000000001E-002     3.5657707380702536E-010
  -2.3250000000000000E-002     3.7477879594602882E-010
  -2.3199999999999998E-002     3.9442028052681332E-010
  -2.3150000000000000E-002     4.1513707741655829E-010
  -2.3099999999999999E-002     4.3641089969105075E-010
  -2.3050000000000001E-002     4.5765809393897082E-010
  -2.3000000000000000E-002     4.7832709904368579E-010
  -2.2950000000000002E-002     4.9799131755200751E-010
  -2.2900000000000000E-002     5.1642470286752211E-010
  -2.2849999999999999E-002     5.3364801127103988E-010
  -2.2800000000000001E-002     5.4993795536774460E-010
  -2.2749999999999999E-002     5.6579157915335911E-010
  -2.2700000000000001E-002     5.8184683295065060E-010
  -2.2650000000000000E-002     5.9876969973598080E-010
  -2.2599999999999999E-002     6.1712703906904830E-010
  -2.2550000000000001E-002     6.3727421544504103E-010
  -2.2499999999999999E-002     6.5928620734159369E-010
  -2.2450000000000001E-002     6.8295181502778699E-010
  -2.2400000000000000E-002     7.0783852426091604E-010
  -2.2349999999999998E-002     7.3341122054764021E-010
  -2.2300000000000000E-002     7.5917653223945369E-010
  -2.2249999999999999E-002     7.8481168696336639E-010
  -2.2200000000000001E-002     8.1024279133631866E-010
  -2.2150000000000000E-002     8.3565044337975741E-010
  -2.2100000000000002E-002     8.6140247791790226E-010
  -2.2050000000000000E-002     8.8793628035176115E-010
  -2.1999999999999999E-002     9.1562817301962240E-010
  -2.1950000000000001E-002     9.4468814839268405E-010
  -2.1899999999999999E-002     9.7511128689193349E-010
  -2.1850000000000001E-002     1.0066973967239080E-009
  -2.1800000000000000E-002     1.0391292245053692E-009
  -2.1749999999999999E-002     1.0720849384420255E-009
  -2.1700000000000001E-002     1.1053514655068238E-009
  -2.1649999999999999E-002     1.1389078680058334E-009
  -2.1600000000000001E-002     1.1729573096836583E-009
  -2.1550000000000000E-002     1.2079001463303799E-009
  -2.1499999999999998E-002     1.2442570170201604E-009
  -2.1450000000000000E-002     1.2825578425720772E-009
  -2.1399999999999999E-002     1.3232194031962682E-009
  -2.1350000000000001E-002     1.3664411485121193E-009
  -2.1299999999999999E-002     1.4121382187249999E-009
  -2.1250000000000002E-002     1.4599332205253120E-009
  -2.1200000000000000E-002     1.5092117373870269E-009
  -2.1149999999999999E-002     1.5592360680017489E-009
  -2.1100000000000001E-002     1.6092954705324174E-009
  -2.1049999999999999E-002     1.6588633656133033E-009
  -2.1000000000000001E-002     1.7077238259761463E-009
  -2.0950000000000000E-002     1.7560360265535639E-009
  -2.0899999999999998E-002     1.8043248292383822E-009
  -2.0850000000000000E-002     1.8533929132511568E-009
  -2.0799999999999999E-002     1.9041800858227037E-009
  -2.0750000000000001E-002     1.9575976094070627E-009
  -2.0700000000000000E-002     2.0143749830339850E-009
  -2.0649999999999998E-002     2.0749477198724851E-009
  -2.0600000000000000E-002     2.1394054847792650E-009
  -2.0549999999999999E-002     2.2075022644129943E-009
  -2.0500000000000001E-002     2.2787239487388446E-009
  -2.0449999999999999E-002     2.3523953209384762E-009
  -2.0400000000000001E-002     2.4278144695762399E-009
  -2.0350000000000000E-002     2.5043867816569007E-009
  -2.0299999999999999E-002     2.5817404474154812E-009
  -2.0250000000000001E-002     2.6597946780042561E-009
  -2.0199999999999999E-002     2.7387612630676750E-009
  -2.0150000000000001E-002     2.8190813874776202E-009
  -2.0100000000000000E-002     2.9013064680623042E-009
  -2.0049999999999998E-002     2.9859575929863430E-009
  -2.0000000000000000E-002     3.0733994287344251E-009
  -1.9949999999999999E-002     3.1637710595379765E-009
  -1.9900000000000001E-002     3.2569967474345147E-009
  -1.9850000000000000E-002     3.3528688271094432E-009
  -1.9799999999999998E-002     3.4511785323041355E-009
  -1.9750000000000000E-002     3.5518482480001285E-009
  -1.9699999999999999E-002     3.6550152244914831E-009
  -1.9650000000000001E-002     3.7610448736333590E-009
  -1.9599999999999999E-002     3.8704628141644518E-009
  -1.9550000000000001E-002     3.9838324232828486E-009
  -1.9500000000000000E-002     4.1016127956068354E-009
  -1.9449999999999999E-002     4.2240419998275498E-009
  -1.9400000000000001E-002     4.3510790796738901E-009
  -1.9349999999999999E-002     4.4824172776750892E-009
  -1.9300000000000001E-002     4.6175531211958334E-009
  -1.9250000000000000E-002     4.7559023602271726E-009
  -1.9199999999999998E-002     4.8969255826323672E-009
  -1.9150000000000000E-002     5.0402395878700128E-009
  -1.9099999999999999E-002     5.1857000605675421E-009
  -1.9050000000000001E-002     5.3334444200517199E-009
  -1.9000000000000000E-002     5.4838862991173253E-009
  -1.8949999999999998E-002     5.6376717309765608E-009
  -1.8900000000000000E-002     5.7956021624146302E-009
  -1.8849999999999999E-002     5.9585345927497168E-009
  -1.8800000000000001E-002     6.1272612384803525E-009
  -1.8749999999999999E-002     6.3023967737231387E-009
  -1.8700000000000001E-002     6.4842809881186959E-009
  -1.8650000000000000E-002     6.6729227923966036E-009
  -1.8599999999999998E-002     6.8680051454100243E-009
  -1.8550000000000001E-002     7.0689508776074147E-009
  -1.8499999999999999E-002     7.2750564174776170E-009
  -1.8450000000000001E-002     7.4856628843902532E-009
  -1.8400000000000000E-002     7.7003218511688032E-009
  -1.8349999999999998E-002     7.9189267476336334E-009
  -1.8300000000000000E-002     8.1417575202806172E-009
  -1.8249999999999999E-002     8.3694246307576457E-009
  -1.8200000000000001E-002     8.6027280769353478E-009
  -1.8149999999999999E-002     8.8424744776544120E-009
  -1.8100000000000002E-002     9.0893068610097398E-009
  -1.8050000000000000E-002     9.3435906894929312E-009
  -1.7999999999999999E-002     9.6053993190425800E-009
  -1.7950000000000001E-002     9.8745766110858562E-009
  -1.7899999999999999E-002     1.0150871451102826E-008
  -1.7850000000000001E-002     1.0434068918896223E-008
  -1.7800000000000000E-002     1.0724095520350833E-008
  -1.7749999999999998E-002     1.1021061445684344E-008
  -1.7700000000000000E-002     1.1325251674962209E-008
  -1.7649999999999999E-002     1.1637079837563591E-008
  -1.7600000000000001E-002     1.1957031298881815E-008
  -1.7550000000000000E-002     1.2285610368994097E-008
  -1.7499999999999998E-002     1.2623308750499314E-008
  -1.7450000000000000E-002     1.2970550021926202E-008
  -1.7399999999999999E-002     1.3327647248686652E-008
  -1.7350000000000001E-002     1.3694770566370113E-008
  -1.7299999999999999E-002     1.4071928064626733E-008
  -1.7250000000000001E-002     1.4458994863466216E-008
  -1.7200000000000000E-002     1.4855788583433670E-008
  -1.7149999999999999E-002     1.5262164942833830E-008
  -1.7100000000000001E-002     1.5678122763457532E-008
  -1.7049999999999999E-002     1.6103868534765054E-008
  -1.7000000000000001E-002     1.6539849353727354E-008
  -1.6950000000000000E-002     1.6986676644455331E-008
  -1.6899999999999998E-002     1.7445025775234696E-008
  -1.6850000000000000E-002     1.7915491210296933E-008
  -1.6799999999999999E-002     1.8398480507744706E-008
  -1.6750000000000001E-002     1.8894167428845661E-008
  -1.6700000000000000E-002     1.9402510179406794E-008
  -1.6649999999999998E-002     1.9923313024927170E-008
  -1.6600000000000000E-002     2.0456322236473598E-008
  -1.6549999999999999E-002     2.1001331066020250E-008
  -1.6500000000000001E-002     2.1558250620133395E-008
  -1.6449999999999999E-002     2.2127193846525438E-008
  -1.6400000000000001E-002     2.2708526233966180E-008
  -1.6350000000000000E-002     2.3302854877945593E-008
  -1.6299999999999999E-002     2.3910965283270238E-008
  -1.6250000000000001E-002     2.4533739294745833E-008
  -1.6199999999999999E-002     2.5172033541000535E-008
  -1.6150000000000001E-002     2.5826576962267698E-008
  -1.6100000000000000E-002     2.6497886837818288E-008
  -1.6049999999999998E-002     2.7186266269148466E-008
  -1.6000000000000000E-002     2.7891851752576053E-008
  -1.5949999999999999E-002     2.8614704167011094E-008
  -1.5900000000000001E-002     2.9354950245147420E-008
  -1.5850000000000000E-002     3.0112913629420285E-008
  -1.5799999999999998E-002     3.0889210352530216E-008
  -1.5750000000000000E-002     3.1684749746393242E-008
  -1.5699999999999999E-002     3.2500659933751917E-008
  -1.5650000000000001E-002     3.3338198762956054E-008
  -1.5599999999999999E-002     3.4198571735083468E-008
  -1.5550000000000001E-002     3.5082768125021814E-008
  -1.5500000000000000E-002     3.5991463925913678E-008
  -1.5449999999999998E-002     3.6924958895549341E-008
  -1.5400000000000000E-002     3.7883163403461425E-008
  -1.5349999999999999E-002     3.8865638322622140E-008
  -1.5300000000000001E-002     3.9871679402290332E-008
  -1.5250000000000000E-002     4.0900456486130779E-008
  -1.5199999999999998E-002     4.1951145544339714E-008
  -1.5150000000000000E-002     4.3023084351717131E-008
  -1.5099999999999999E-002     4.4115861989511454E-008
  -1.5050000000000001E-002     4.5229362878944203E-008
  -1.4999999999999999E-002     4.6363789764636341E-008
  -1.4949999999999998E-002     4.7519665499389523E-008
  -1.4900000000000000E-002     4.8697783775309014E-008
  -1.4849999999999999E-002     4.9899147823600780E-008
  -1.4800000000000001E-002     5.1124856662440099E-008
  -1.4749999999999999E-002     5.2375996929496294E-008
  -1.4700000000000001E-002     5.3653577778426891E-008
  -1.4650000000000000E-002     5.4958517639326814E-008
  -1.4599999999999998E-002     5.6291701276743861E-008
  -1.4550000000000000E-002     5.7654080349925318E-008
  -1.4499999999999999E-002     5.9046770502327806E-008
  -1.4450000000000001E-002     6.0471098079369658E-008
  -1.4400000000000000E-002     6.1928613348050759E-008
  -1.4349999999999998E-002     6.3420973747891530E-008
  -1.4300000000000000E-002     6.4949878875559498E-008
  -1.4249999999999999E-002     6.6516907410542489E-008
  -1.4200000000000001E-002     6.8123420419142762E-008
  -1.4149999999999999E-002     6.9770603089508684E-008
  -1.4099999999999998E-002     7.1459519783218049E-008
  -1.4050000000000000E-002     7.3191254764397635E-008
  -1.3999999999999999E-002     7.4967068101011505E-008
  -1.3950000000000001E-002     7.6788352400902830E-008
  -1.3899999999999999E-002     7.8656616157127124E-008
  -1.3850000000000001E-002     8.0573278284766884E-008
  -1.3800000000000000E-002     8.2539534997423065E-008
  -1.3749999999999998E-002     8.4556193562173562E-008
  -1.3700000000000000E-002     8.6623638831492095E-008
  -1.3649999999999999E-002     8.8741828331913830E-008
  -1.3600000000000001E-002     9.0910336037520502E-008
  -1.3550000000000000E-002     9.3128325757781244E-008
  -1.3499999999999998E-002     9.5394562342997403E-008
  -1.3450000000000000E-002     9.7707387275004113E-008
  -1.3399999999999999E-002     1.0006484821185535E-007
  -1.3350000000000001E-002     1.0246478112104361E-007
  -1.3299999999999999E-002     1.0490500204396295E-007
  -1.3249999999999998E-002     1.0738352370158894E-007
  -1.3200000000000000E-002     1.0989894098826586E-007
  -1.3149999999999998E-002     1.1245068647024313E-007
  -1.3100000000000001E-002     1.1503927724859970E-007
  -1.3049999999999999E-002     1.1766629114045576E-007
  -1.3000000000000001E-002     1.2033416945107665E-007
  -1.2950000000000000E-002     1.2304605593722990E-007
  -1.2899999999999998E-002     1.2580548024112964E-007
  -1.2850000000000000E-002     1.2861614388514968E-007
  -1.2799999999999999E-002     1.3148192323810991E-007