  -4.0000000000000001E-002     0.0000000000000000     
  -3.9949999999999999E-002     0.0000000000000000     
  -3.9899999999999998E-002     0.0000000000000000     
  -3.9850000000000003E-002     0.0000000000000000     
  -3.9800000000000002E-002     0.0000000000000000     
  -3.9750000000000001E-002     0.0000000000000000     
  -3.9699999999999999E-002     0.0000000000000000     
  -3.9649999999999998E-002     0.0000000000000000     
  -3.9600000000000003E-002     0.0000000000000000     
  -3.9550000000000002E-002     0.0000000000000000     
  -3.9500000000000000E-002     0.0000000000000000     
  -3.9449999999999999E-002     6.3082681632005860E-032
  -3.9399999999999998E-002     2.1759876759041794E-030
  -3.9350000000000003E-002     2.5571645714625458E-029
  -3.9300000000000002E-002     1.5908512035398039E-028
  -3.9250000000000000E-002     5.5702077295459729E-028
  -3.9199999999999999E-002     6.3856968506417066E-028
  -3.9150000000000004E-002    -4.5552509922368035E-027
  -3.9100000000000003E-002    -3.2266249599205741E-026
  -3.9050000000000001E-002    -1.1477667020485046E-025
  -3.9000000000000000E-002    -2.5852322075731968E-025
  -3.8949999999999999E-002    -2.9386015148916285E-025
  -3.8900000000000004E-002     3.8864826310860571E-025
  -3.8850000000000003E-002     2.9406507160806847E-024
  -3.8800000000000001E-002     8.2528090187984197E-024
  -3.8750000000000000E-002     1.4354937455907838E-023
  -3.8699999999999998E-002     1.2365507729591866E-023
  -3.8650000000000004E-002    -1.5313624673350032E-023
  -3.8600000000000002E-002    -8.6935830426422960E-023
  -3.8550000000000001E-002    -1.9658431135757647E-022
  -3.8500000000000000E-002    -2.7773233771880439E-022
  -3.8449999999999998E-002    -1.8405289282397935E-022
  -3.8400000000000004E-002     2.6353955292387979E-022
  -3.8350000000000002E-002     1.1284696098837268E-021
  -3.8300000000000001E-002     2.1456413222131919E-021
  -3.8249999999999999E-002     2.5927395533423117E-021
  -3.8199999999999998E-002     1.4616166832366466E-021
  -3.8150000000000003E-002    -1.9468482354598467E-021
  -3.8100000000000002E-002    -7.1799873068214231E-021
  -3.8050000000000000E-002    -1.2092082239126440E-020
  -3.7999999999999999E-002    -1.3289800676096769E-020
  -3.7949999999999998E-002    -7.8399827310107542E-021
  -3.7900000000000003E-002     4.4257841526201107E-021
  -3.7850000000000002E-002     1.9608077538916893E-020
  -3.7800000000000000E-002     3.1076065757788894E-020
  -3.7749999999999999E-002     3.3631770031229174E-020
  -3.7699999999999997E-002     2.8182010712275470E-020
  -3.7650000000000003E-002     2.2705810803845858E-020
  -3.7600000000000001E-002     2.6157170668199456E-020
  -3.7550000000000000E-002     3.6485292800164886E-020
  -3.7499999999999999E-002     3.0448163712620369E-020
  -3.7449999999999997E-002    -3.3128266009738245E-020
  -3.7400000000000003E-002    -1.8855881892361296E-019
  -3.7350000000000001E-002    -4.2180172770359017E-019
  -3.7300000000000000E-002    -6.3467340896640027E-019
  -3.7249999999999998E-002    -6.4833471895899190E-019
  -3.7200000000000004E-002    -2.7164946569183899E-019
  -3.7150000000000002E-002     5.7241120216042676E-019
  -3.7100000000000001E-002     1.7159708574104419E-018
  -3.7050000000000000E-002     2.6994080198332562E-018
  -3.6999999999999998E-002     2.8873306475958890E-018
  -3.6950000000000004E-002     1.7560679835772992E-018
  -3.6900000000000002E-002    -7.4964144824098635E-019
  -3.6850000000000001E-002    -3.9852748357382098E-018
  -3.6799999999999999E-002    -6.6940688599159326E-018
  -3.6749999999999998E-002    -7.4736420115294713E-018
  -3.6700000000000003E-002    -5.4573992418552060E-018
  -3.6650000000000002E-002    -8.5750455170627667E-019
  -3.6600000000000001E-002     4.9869834963630532E-018
  -3.6549999999999999E-002     1.0164091988955156E-017
  -3.6499999999999998E-002     1.3055208333062917E-017
  -3.6450000000000003E-002     1.2940092963643314E-017
  -3.6400000000000002E-002     9.8675286564066536E-018
  -3.6350000000000000E-002     3.8639116450020696E-018
  -3.6299999999999999E-002    -5.7489223993821637E-018
  -3.6249999999999998E-002    -1.9859819798307981E-017
  -3.6200000000000003E-002    -3.7417536536698997E-017
  -3.6150000000000002E-002    -5.2569820167733860E-017
  -3.6100000000000000E-002    -5.3529865563058892E-017
  -3.6049999999999999E-002    -2.5914663863385908E-017
  -3.6000000000000004E-002     3.8528737632177034E-017
  -3.5950000000000003E-002     1.3062542601229762E-016
  -3.5900000000000001E-002     2.1655026567928250E-016
  -3.5850000000000000E-002     2.4247777002375512E-016
  -3.5799999999999998E-002     1.5518115761954228E-016
  -3.5750000000000004E-002    -6.5737789988779600E-017
  -3.5700000000000003E-002    -3.7793750691244303E-016
  -3.5650000000000001E-002    -6.6786861060985397E-016
  -3.5600000000000000E-002    -7.7850240157278422E-016
  -3.5549999999999998E-002    -5.7305315933230609E-016
  -3.5500000000000004E-002    -1.3993283028180298E-017
  -3.5450000000000002E-002     7.7934135295631729E-016
  -3.5400000000000001E-002     1.5322093170195279E-015
  -3.5349999999999999E-002     1.8934638043866519E-015
  -3.5299999999999998E-002     1.5760689647117910E-015
  -3.5250000000000004E-002     5.0769902428284549E-016
  -3.5200000000000002E-002    -1.0780022105253334E-015
  -3.5150000000000001E-002    -2.6663801361965984E-015
  -3.5099999999999999E-002    -3.6168898483700094E-015
  -3.5049999999999998E-002    -3.4046772676304737E-015
  -3.5000000000000003E-002    -1.8582238743411774E-015
  -3.4950000000000002E-002     7.0914368412414790E-016
  -3.4900000000000000E-002     3.5430958869304944E-015
  -3.4849999999999999E-002     5.6695766701822181E-015
  -3.4799999999999998E-002     6.2222725295871090E-015
  -3.4750000000000003E-002     4.7583357182620328E-015
  -3.4700000000000002E-002     1.4461253289466117E-015
  -3.4650000000000000E-002    -2.9416149187676218E-015
  -3.4599999999999999E-002    -7.2214913016384415E-015
  -3.4549999999999997E-002    -1.0108371574921809E-014
  -3.4500000000000003E-002    -1.0542024763726748E-014
  -3.4450000000000001E-002    -7.9530095592017496E-015
  -3.4400000000000000E-002    -2.4337143315757629E-015
  -3.4349999999999999E-002     5.1835318766250555E-015
  -3.4299999999999997E-002     1.3338781296603299E-014
  -3.4250000000000003E-002     1.9879827853449629E-014
  -3.4200000000000001E-002     2.2391506361772381E-014
  -3.4150000000000000E-002     1.8780949332006648E-014
  -3.4099999999999998E-002     8.0883494470964009E-015
  -3.4049999999999997E-002    -8.6727321313309295E-015
  -3.4000000000000002E-002    -2.8009169274857368E-014
  -3.3950000000000001E-002    -4.4198499882126481E-014
  -3.3900000000000000E-002    -5.0570600162933728E-014
  -3.3849999999999998E-002    -4.1724248402323924E-014
  -3.3799999999999997E-002    -1.6089229229357096E-014
  -3.3750000000000002E-002     2.2158382682556109E-014
  -3.3700000000000001E-002     6.2892249910420120E-014
  -3.3649999999999999E-002     9.2197155718908812E-014
  -3.3599999999999998E-002     9.6701382962255963E-014
  -3.3550000000000003E-002     6.8874974579770623E-014
  -3.3500000000000002E-002     1.1345270521702283E-014
  -3.3450000000000001E-002    -6.1782347111585312E-014
  -3.3399999999999999E-002    -1.2780646649839220E-013
  -3.3349999999999998E-002    -1.6222258925854051E-013
  -3.3300000000000003E-002    -1.4746649230561850E-013
  -3.3250000000000002E-002    -8.0509677638521161E-014
  -3.3200000000000000E-002     2.3819693133698221E-014
  -3.3149999999999999E-002     1.3565806412567839E-013
  -3.3099999999999997E-002     2.1875550798832750E-013
  -3.3050000000000003E-002     2.4234098996576636E-013
  -3.3000000000000002E-002     1.9212310689297772E-013
  -3.2950000000000000E-002     7.6380279612817095E-014
  -3.2899999999999999E-002    -7.5284502043340011E-014
  -3.2850000000000004E-002    -2.2032314458246943E-013
  -3.2800000000000003E-002    -3.1596160474043549E-013
  -3.2750000000000001E-002    -3.3195143398056746E-013
  -3.2700000000000000E-002    -2.5921467326328335E-013
  -3.2649999999999998E-002    -1.1196304544598693E-013
  -3.2600000000000004E-002     7.6657123551384306E-014
  -3.2550000000000003E-002     2.6322297629955281E-013
  -3.2500000000000001E-002     4.0392666148968811E-013
  -3.2450000000000000E-002     4.6317284980715702E-013
  -3.2399999999999998E-002     4.1979468265301530E-013
  -3.2350000000000004E-002     2.7115097725029626E-013
  -3.2300000000000002E-002     3.5734747313776607E-014
  -3.2250000000000001E-002    -2.4592569784172592E-013
  -3.2199999999999999E-002    -5.1372306605703325E-013
  -3.2149999999999998E-002    -6.9623062973652051E-013
  -3.2100000000000004E-002    -7.2623614552387180E-013
  -3.2050000000000002E-002    -5.6199917872116019E-013
  -3.2000000000000001E-002    -2.0860885519077645E-013
  -3.1949999999999999E-002     2.6927603528298306E-013
  -3.1899999999999998E-002     7.5195628689077727E-013
  -3.1850000000000003E-002     1.0907613736915227E-012
  -3.1800000000000002E-002     1.1520120390623435E-012
  -3.1750000000000000E-002     8.6656166165437306E-013
  -3.1699999999999999E-002     2.6705231529129480E-013
  -3.1649999999999998E-002    -5.0414798500233912E-013
  -3.1600000000000003E-002    -1.2251337116976071E-012
  -3.1550000000000002E-002    -1.6581376807406281E-012
  -3.1500000000000000E-002    -1.6282353094143571E-012
  -3.1449999999999999E-002    -1.0901826947341715E-012
  -3.1399999999999997E-002    -1.5766063275532151E-013
  -3.1350000000000003E-002     9.1939485534958539E-013
  -3.1300000000000001E-002     1.8256521109297810E-012
  -3.1250000000000000E-002     2.2777129467150845E-012
  -3.1199999999999999E-002     2.1153917890512784E-012
  -3.1150000000000001E-002     1.3554553677871124E-012
  -3.1100000000000003E-002     1.8917497803792898E-013
  -3.1050000000000001E-002    -1.0750953187221102E-012
  -3.1000000000000000E-002    -2.1039518942955949E-012
  -3.0949999999999998E-002    -2.6341939654896444E-012
  -3.0900000000000000E-002    -2.5409738637273693E-012
  -3.0850000000000002E-002    -1.8605630504177634E-012
  -3.0800000000000001E-002    -7.6685199472060784E-013
  -3.0750000000000000E-002     4.8402217861859311E-013
  -3.0699999999999998E-002     1.6192876619863704E-012
  -3.0650000000000000E-002     2.4062916406850977E-012
  -3.0600000000000002E-002     2.6906043833196743E-012
  -3.0550000000000001E-002     2.4158126470652879E-012
  -3.0499999999999999E-002     1.6306607732274007E-012
  -3.0449999999999998E-002     4.8743746535301292E-013
  -3.0400000000000000E-002    -7.7095785304091116E-013
  -3.0350000000000002E-002    -1.8433498713757236E-012
  -3.0300000000000001E-002    -2.4289263377070522E-012
  -3.0249999999999999E-002    -2.3090745635222173E-012
  -3.0200000000000001E-002    -1.4338062635848633E-012
  -3.0150000000000000E-002     1.8939284588761170E-014
  -3.0100000000000002E-002     1.6447256499992192E-012
  -3.0050000000000000E-002     2.8942417689033939E-012
  -2.9999999999999999E-002     3.2267100782907867E-012
  -2.9950000000000001E-002     2.2949897335166515E-012
  -2.9899999999999999E-002     1.0049968678860978E-013
  -2.9850000000000002E-002    -2.9442249902024643E-012
  -2.9800000000000000E-002    -6.0826147126300725E-012
  -2.9749999999999999E-002    -8.4048038069252066E-012
  -2.9700000000000001E-002    -9.1099554432535342E-012
  -2.9650000000000003E-002    -7.7574696233242482E-012
  -2.9600000000000001E-002    -4.4225180245008931E-012
  -2.9550000000000000E-002     2.9928355466641658E-013
  -2.9499999999999998E-002     5.4425979278868335E-012
  -2.9450000000000000E-002     9.9299311590044609E-012
  -2.9400000000000003E-002     1.2851969367403845E-011
  -2.9350000000000001E-002     1.3681914303855910E-011
  -2.9300000000000000E-002     1.2362111293899230E-011
  -2.9249999999999998E-002     9.2488088191085226E-012
  -2.9200000000000000E-002     4.9499808252997729E-012
  -2.9150000000000002E-002     1.2355809384735714E-013
  -2.9100000000000001E-002    -4.6914293961502142E-012
  -2.9049999999999999E-002    -9.1592912017556926E-012
  -2.8999999999999998E-002    -1.3132173061700712E-011
  -2.8950000000000000E-002    -1.6554288376619899E-011
  -2.8900000000000002E-002    -1.9327199971472646E-011
  -2.8850000000000001E-002    -2.1180299975110850E-011
  -2.8799999999999999E-002    -2.1578523789682911E-011
  -2.8749999999999998E-002    -1.9682487047850199E-011
  -2.8700000000000000E-002    -1.4363162582429184E-011
  -2.8650000000000002E-002    -4.2692521138998588E-012
  -2.8600000000000000E-002     1.2053099557358160E-011
  -2.8549999999999999E-002     3.5988379296280997E-011
  -2.8500000000000001E-002     6.8636274846434317E-011
  -2.8450000000000000E-002     1.1057951403257480E-010
  -2.8400000000000002E-002     1.6168288769888616E-010
  -2.8350000000000000E-002     2.2098450855116010E-010
  -2.8299999999999999E-002     2.8673239204237242E-010
  -2.8250000000000001E-002     3.5658940661498540E-010
  -2.8200000000000003E-002     4.2798050904090869E-010
  -2.8150000000000001E-002     4.9850877839851889E-010
  -2.8100000000000000E-002     5.6633591910072496E-010
  -2.8049999999999999E-002     6.3042749874545848E-010
  -2.8000000000000001E-002     6.9060065974092136E-010
  -2.7950000000000003E-002     7.4737303390830321E-010
  -2.7900000000000001E-002     8.0167490587932444E-010
  -2.7850000000000000E-002     8.5452467574300951E-010
  -2.7799999999999998E-002     9.0677237747764219E-010
  -2.7750000000000000E-002     9.5898317053516082E-010
  -2.7700000000000002E-002     1.0114770106811444E-009
  -2.7650000000000001E-002     1.0644820167779979E-009
  -2.7600000000000000E-002     1.1183248971124318E-009
  -2.7549999999999998E-002     1.1735701066943406E-009
  -2.7500000000000000E-002     1.2310493467652358E-009
  -2.7450000000000002E-002     1.2917592953228924E-009
  -2.7400000000000001E-002     1.3566549555516440E-009
  -2.7349999999999999E-002     1.4263948234261648E-009
  -2.7299999999999998E-002     1.5011092486004648E-009
  -2.7250000000000000E-002     1.5802560121518035E-009
  -2.7200000000000002E-002     1.6626049586607853E-009
  -2.7150000000000001E-002     1.7463664502686668E-009
  -2.7099999999999999E-002     1.8294459785614597E-009
  -2.7049999999999998E-002     1.9097859683514248E-009
  -2.7000000000000000E-002     1.9857322107340401E-009
  -2.6950000000000002E-002     2.0563567887402983E-009
  -2.6900000000000000E-002     2.1216705044644310E-009
  -2.6849999999999999E-002     2.1826741464975088E-009
  -2.6800000000000001E-002     2.2412347295574930E-009
  -2.6749999999999999E-002     2.2998014930957934E-009
  -2.6700000000000002E-002     2.3610189567500790E-009
  -2.6650000000000000E-002     2.4273114986443610E-009
  -2.6599999999999999E-002     2.5005227477797013E-009
  -2.6550000000000001E-002     2.5816767399099838E-009
  -2.6500000000000003E-002     2.6708993903435007E-009
  -2.6450000000000001E-002     2.7675007134365192E-009
  -2.6400000000000000E-002     2.8701838406438876E-009
  -2.6349999999999998E-002     2.9773243355391226E-009
  -2.6300000000000000E-002     3.0872522792497673E-009
  -2.6250000000000002E-002     3.1984792035019449E-009
  -2.6200000000000001E-002     3.3098339621312881E-009
  -2.6150000000000000E-002     3.4205042074333937E-009
  -2.6099999999999998E-002     3.5300084235815488E-009
  -2.6050000000000000E-002     3.6381431219695955E-009
  -2.6000000000000002E-002     3.7449501128573377E-009
  -2.5950000000000001E-002     3.8507296434784567E-009
  -2.5899999999999999E-002     3.9560921396606563E-009
  -2.5849999999999998E-002     4.0620197081320009E-009
  -2.5800000000000000E-002     4.1698876371388131E-009
  -2.5750000000000002E-002     4.2814078987943972E-009
  -2.5700000000000001E-002     4.3984825587694825E-009
  -2.5649999999999999E-002     4.5229872842028036E-009
  -2.5599999999999998E-002     4.6565249269617675E-009
  -2.5550000000000000E-002     4.8001991555651948E-009
  -2.5500000000000002E-002     4.9544373191145488E-009
  -2.5450000000000000E-002     5.1188792305541185E-009
  -2.5399999999999999E-002     5.2923443104844937E-009
  -2.5349999999999998E-002     5.4728828851316166E-009
  -2.5300000000000000E-002     5.6579362366575855E-009
  -2.5250000000000002E-002     5.8446198703848827E-009
  -2.5200000000000000E-002     6.0301358382365548E-009
  -2.5149999999999999E-002     6.2122642358323238E-009
  -2.5100000000000001E-002     6.3898258653360869E-009
  -2.5049999999999999E-002     6.5629992317722840E-009
  -2.5000000000000001E-002     6.7333704679937041E-009
  -2.4950000000000000E-002     6.9036779817286276E-009
  -2.4899999999999999E-002     7.0773099797121636E-009
  -2.4850000000000001E-002     7.2577029722105720E-009
  -2.4800000000000003E-002     7.4478159165996181E-009
  -2.4750000000000001E-002     7.6498306972610111E-009
  -2.4700000000000000E-002     7.8650996212818268E-009
  -2.4649999999999998E-002     8.0942852956870384E-009
  -2.4600000000000000E-002     8.3375362610956967E-009
  -2.4550000000000002E-002     8.5945711067617672E-009
  -2.4500000000000001E-002     8.8646097344822149E-009
  -2.4450000000000000E-002     9.1462150280647529E-009
  -2.4399999999999998E-002     9.4371760116336471E-009
  -2.4350000000000000E-002     9.7345887821546921E-009
  -2.4299999999999999E-002     1.0035199542964842E-008
  -2.4250000000000001E-002     1.0335965092831641E-008
  -2.4199999999999999E-002     1.0634667896418146E-008
  -2.4150000000000001E-002     1.0930378301284630E-008
  -2.4100000000000000E-002     1.1223629246263179E-008
  -2.4049999999999998E-002     1.1516256800969235E-008
  -2.4000000000000000E-002     1.1811019536647049E-008
  -2.3949999999999999E-002     1.2111150363523575E-008
  -2.3900000000000001E-002     1.2419991754705008E-008
  -2.3850000000000000E-002     1.2740784710076202E-008
  -2.3800000000000002E-002     1.3076571607832276E-008
  -2.3750000000000000E-002     1.3430089840691318E-008
  -2.3699999999999999E-002     1.3803581147496499E-008
  -2.3650000000000001E-002     1.4198469550521100E-008
  -2.3599999999999999E-002     1.4615013591852933E-008
  -2.3550000000000001E-002     1.5052081241302446E-008
  -2.3500000000000000E-002     1.5507194357470191E-008
  -2.3449999999999999E-002     1.5976892853905915E-008
  -2.3400000000000001E-002     1.6457373061733723E-008
  -2.3349999999999999E-002     1.6945201984251697E-008
  -2.3300000000000001E-002     1.7437906824855573E-008
  -2.3250000000000000E-002     1.7934264324262571E-008
  -2.3199999999999998E-002     1.8434274701995634E-008
  -2.3150000000000000E-002     1.8938869842656516E-008
  -2.3099999999999999E-002     1.9449546627968164E-008
  -2.3050000000000001E-002     1.9968070159493048E-008
  -2.3000000000000000E-002     2.0496349493887417E-008
  -2.2950000000000002E-002     2.1036485862932281E-008
  -2.2900000000000000E-002     2.1590843868791838E-008
  -2.2849999999999999E-002     2.2162048223609967E-008
  -2.2800000000000001E-002     2.2752764444895548E-008
  -2.2749999999999999E-002     2.3365304111292151E-008
  -2.2700000000000001E-002     2.4001155152678593E-008
  -2.2650000000000000E-002     2.4660603803802616E-008
  -2.2599999999999999E-002     2.5342640863109542E-008
  -2.2550000000000001E-002     2.6045194162434782E-008
  -2.2499999999999999E-002     2.6765659635726738E-008
  -2.2450000000000001E-002     2.7501532537631327E-008
  -2.2400000000000000E-002     2.8250923419984192E-008
  -2.2349999999999998E-002     2.9012820870010197E-008
  -2.2300000000000000E-002     2.9787061188128324E-008
  -2.2249999999999999E-002     3.0574147739656126E-008
  -2.2200000000000001E-002     3.1375059575545895E-008
  -2.2150000000000000E-002     3.2191253057373762E-008
  -2.2100000000000002E-002     3.3024848596950702E-008
  -2.2050000000000000E-002     3.3878861282917105E-008
  -2.1999999999999999E-002     3.4757269002791948E-008
  -2.1950000000000001E-002     3.5664711674034957E-008
  -2.1899999999999999E-002     3.6605814311269445E-008
  -2.1850000000000001E-002     3.7584276095703403E-008
  -2.1800000000000000E-002     3.8602065738398353E-008
  -2.1749999999999999E-002     3.9659056909381033E-008
  -2.1700000000000001E-002     4.0753244147392739E-008
  -2.1649999999999999E-002     4.1881501724776983E-008
  -2.1600000000000001E-002     4.3040512041759371E-008
  -2.1550000000000000E-002     4.4227539909688225E-008
  -2.1499999999999998E-002     4.5440716170582223E-008
  -2.1450000000000000E-002     4.6678797948967270E-008
  -2.1399999999999999E-002     4.7940659068615611E-008
  -2.1350000000000001E-002     4.9224835967427897E-008
  -2.1299999999999999E-002     5.0529470294313575E-008
  -2.1250000000000002E-002     5.1852716582564403E-008
  -2.1200000000000000E-002     5.3193449347788267E-008
  -2.1149999999999999E-002     5.4551886258333979E-008
  -2.1100000000000001E-002     5.5929842400361168E-008
  -2.1049999999999999E-002     5.7330417812454126E-008
  -2.1000000000000001E-002     5.8757270085336744E-008
  -2.0950000000000000E-002     6.0213830250382785E-008
  -2.0899999999999998E-002     6.1702794278692766E-008
  -2.0850000000000000E-002     6.3226150598354782E-008
  -2.0799999999999999E-002     6.4785628819090901E-008
  -2.0750000000000001E-002     6.6383269838127312E-008
  -2.0700000000000000E-002     6.8021768191887960E-008
  -2.0649999999999998E-002     6.9704336511441512E-008
  -2.0600000000000000E-002     7.1434058387615434E-008
  -2.0549999999999999E-002     7.3213201172666564E-008
  -2.0500000000000001E-002     7.5042681569395002E-008
  -2.0449999999999999E-002     7.6922184828680799E-008
  -2.0400000000000001E-002     7.8850896977907971E-008
  -2.0350000000000000E-002     8.0828550749135524E-008
  -2.0299999999999999E-002     8.2856389576162100E-008
  -2.0250000000000001E-002     8.4937547761366272E-008
  -2.0199999999999999E-002     8.7076622627859557E-008
  -2.0150000000000001E-002     8.9278761672740587E-008
  -2.0100000000000000E-002     9.1548508983297556E-008
  -2.0049999999999998E-002     9.3889006718120035E-008
  -2.0000000000000000E-002     9.6301837819113817E-008
  -1.9949999999999999E-002     9.8787438774939906E-008
  -1.9900000000000001E-002     1.0134587028997637E-007
  -1.9850000000000000E-002     1.0397729282542305E-007
  -1.9799999999999998E-002     1.0668200262623995E-007
  -1.9750000000000000E-002     1.0945983184775441E-007
  -1.9699999999999999E-002     1.1230927082210289E-007
  -1.9650000000000001E-002     1.1522676829329054E-007
  -1.9599999999999999E-002     1.1820667687422502E-007
  -1.9550000000000001E-002     1.2124193784134753E-007
  -1.9500000000000000E-002     1.2432527718160698E-007
  -1.9449999999999999E-002     1.2745051625946529E-007
  -1.9400000000000001E-002     1.3061324649751012E-007
  -1.9349999999999999E-002     1.3381080326740383E-007
  -1.9300000000000001E-002     1.3704147499974302E-007
  -1.9250000000000000E-002     1.4030360309665437E-007
  -1.9199999999999998E-002     1.4359509333913667E-007
  -1.9150000000000000E-002     1.4691368170851865E-007
  -1.9099999999999999E-002     1.5025807903628286E-007
  -1.9050000000000001E-002     1.5362938875161893E-007
  -1.9000000000000000E-002     1.5703198376221424E-007
  -1.8949999999999998E-002     1.6047335007373079E-007
  -1.8900000000000000E-002     1.6396267093516934E-007
  -1.8849999999999999E-002     1.6750863201787140E-007
  -1.8800000000000001E-002     1.7111748340253768E-007
  -1.8749999999999999E-002     1.7479208584049140E-007
  -1.8700000000000001E-002     1.7853243327458355E-007
  -1.8650000000000000E-002     1.8233751724392756E-007
  -1.8599999999999998E-002     1.8620749342230838E-007
  -1.8550000000000001E-002     1.9014518592850534E-007
  -1.8499999999999999E-002     1.9415615740805449E-007
  -1.8450000000000001E-002     1.9824735896170090E-007
  -1.8400000000000000E-002     2.0242497994124878E-007
  -1.8349999999999998E-002     2.0669291525465044E-007
  -1.8300000000000000E-002     2.1105246358644772E-007
  -1.8249999999999999E-002     2.1550368830212784E-007
  -1.8200000000000001E-002     2.2004772187550189E-007
  -1.8149999999999999E-002     2.2468894350614026E-007
  -1.8100000000000002E-002     2.2943567219993053E-007
  -1.8050000000000000E-002     2.3429894521669603E-007
  -1.7999999999999999E-002     2.3928976255513312E-007
  -1.7950000000000001E-002     2.4441596458287697E-007
  -1.7899999999999999E-002     2.4968022737666600E-007
  -1.7850000000000001E-002     2.5507992933026390E-007
  -1.7800000000000000E-002     2.6060917216773213E-007
  -1.7749999999999998E-002     2.6626194637368131E-007
  -1.7700000000000000E-002     2.7203499501016365E-007
  -1.7649999999999999E-002     2.7792888816545242E-007
  -1.7600000000000001E-002     2.8394713866198070E-007
  -1.7550000000000000E-002     2.9009378563119190E-007
  -1.7499999999999998E-002     2.9637055214290578E-007
  -1.7450000000000000E-002     3.0277533102562965E-007
  -1.7399999999999999E-002     3.0930275368713407E-007
  -1.7350000000000001E-002     3.1594656958889692E-007
  -1.7299999999999999E-002     3.2270306467414759E-007
  -1.7250000000000001E-002     3.2957363914181166E-007
  -1.7200000000000000E-002     3.3656572813534778E-007
  -1.7149999999999999E-002     3.4369075950869117E-007
  -1.7100000000000001E-002     3.5096083463649192E-007
  -1.7049999999999999E-002     3.5838492200001479E-007
  -1.7000000000000001E-002     3.6596672651144757E-007
  -1.6950000000000000E-002     3.7370476987988910E-007
  -1.6899999999999998E-002     3.8159486277869748E-007
  -1.6850000000000000E-002     3.8963358951553689E-007
  -1.6799999999999999E-002     3.9782118402436988E-007
  -1.6750000000000001E-002     4.0616205305180254E-007
  -1.6700000000000000E-002     4.1466286224703471E-007
  -1.6649999999999998E-002     4.2332904082821635E-007
  -1.6600000000000000E-002     4.3216134157735695E-007
  -1.6549999999999999E-002     4.4115430966063961E-007
  -1.6500000000000001E-002     4.5029748390862000E-007
  -1.6449999999999999E-002     4.5957945693692128E-007
  -1.6400000000000001E-002     4.6899236456910568E-007
  -1.6350000000000000E-002     4.7853565817685457E-007
  -1.6299999999999999E-002     4.8821667364411134E-007
  -1.6250000000000001E-002     4.9804820912831036E-007
  -1.6199999999999999E-002     5.0804373892157989E-007
  -1.6150000000000001E-002     5.1821287948958557E-007
  -1.6100000000000000E-002     5.2855877303051517E-007
  -1.6049999999999998E-002     5.3907848206635998E-007
  -1.6000000000000000E-002     5.4976619062121119E-007
  -1.5949999999999999E-002     5.6061778479556575E-007
  -1.5900000000000001E-002     5.7163398523012858E-007
  -1.5850000000000000E-002     5.8282129733012635E-007
  -1.5799999999999998E-002     5.9418941595871339E-007
  -1.5750000000000000E-002     6.0574717318365537E-007
  -1.5699999999999999E-002     6.1749852333263000E-007
  -1.5650000000000001E-002     6.2944086931623602E-007
  -1.5599999999999999E-002     6.4156659230808215E-007
  -1.5550000000000001E-002     6.5386730054312607E-007
  -1.5500000000000000E-002     6.6633852952641666E-007
  -1.5449999999999998E-002     6.7898318217682264E-007
  -1.5400000000000000E-002     6.9181178187792662E-007
  -1.5349999999999999E-002     7.0483974635685274E-007
  -1.5300000000000001E-002     7.1808292340356551E-007
  -1.5250000000000000E-002     7.3155277547477628E-007
  -1.5199999999999998E-002     7.4525428308832029E-007
  -1.5150000000000000E-002     7.5918637242398973E-007
  -1.5099999999999999E-002     7.7334473138401427E-007
  -1.5050000000000001E-002     7.8772565937850292E-007
  -1.4999999999999999E-002     8.0232888172649759E-007
  -1.4949999999999998E-002     8.1715806319934349E-007
  -1.4900000000000000E-002     8.3221906621145603E-007
  -1.4849999999999999E-002     8.4751689116573079E-007
  -1.4800000000000001E-002     8.6305235195291809E-007
  -1.4749999999999999E-002     8.7882051857003036E-007
  -1.4700000000000001E-002     8.9481146800509912E-007
  -1.4650000000000000E-002     9.1101345474697097E-007
  -1.4599999999999998E-002     9.2741633250954279E-007
  -1.4550000000000000E-002     9.4401525433371049E-007
  -1.4499999999999999E-002     9.6081239516843223E-007
  -1.4450000000000001E-002     9.7781614429946330E-007
  -1.4400000000000000E-002     9.9503868552517423E-007
  -1.4349999999999998E-002     1.0124924274444439E-006
  -1.4300000000000000E-002     1.0301864965678708E-006
  -1.4249999999999999E-002     1.0481248254201236E-006
  -1.4200000000000001E-002     1.0663065159574184E-006
  -1.4149999999999999E-002     1.0847282876720601E-006
  -1.4099999999999998E-002     1.1033867123858034E-006
  -1.4050000000000000E-002     1.1222808142069300E-006
  -1.3999999999999999E-002     1.1414129227578599E-006
  -1.3950000000000001E-002     1.1607880214299355E-006
  -1.3899999999999999E-002     1.1804113211164275E-006
  -1.3850000000000001E-002     1.2002862581266269E-006
  -1.3800000000000000E-002     1.2204120424336024E-006
  -1.3749999999999998E-002     1.2407837912985683E-006
  -1.3700000000000000E-002     1.2613938595497430E-006
  -1.3649999999999999E-002     1.2822341922529644E-006
  -1.3600000000000001E-002     1.3032995763852160E-006
  -1.3550000000000000E-002     1.3245900189913928E-006
  -1.3499999999999998E-002     1.3461111375749617E-006
  -1.3450000000000000E-002     1.3678735332750800E-006
  -1.3399999999999999E-002     1.3898892711570183E-006
  -1.3350000000000001E-002     1.4121687515152256E-006
  -1.3299999999999999E-002     1.4347172130688425E-006
  -1.3249999999999998E-002     1.4575330653920348E-006
  -1.3200000000000000E-002     1.4806085644677161E-006
  -1.3149999999999998E-002     1.5039323506347622E-006
  -1.3100000000000001E-002     1.5274933743797987E-006
  -1.3049999999999999E-002     1.5512842985169242E-006
  -1.3000000000000001E-002     1.5753037725388562E-006
  -1.2950000000000000E-002     1.5995556460700383E-006
  -1.2899999999999998E-002     1.6240455044769782E-006
  -1.2850000000000000E-002     1.6487768848048446E-006
  -1.2799999999999999E-002     1.6737474351791718E-006