  -4.0000000000000001E-002     0.0000000000000000     
  -3.9949999999999999E-002     0.0000000000000000     
  -3.9899999999999998E-002     0.0000000000000000     
  -3.9850000000000003E-002     0.0000000000000000     
  -3.9800000000000002E-002     9.9813251664304960E-018
  -3.9750000000000001E-002     2.1834654641663816E-016
  -3.9699999999999999E-002     1.0942721263054227E-015
  -3.9649999999999998E-002     2.1933603341240419E-015
  -3.9600000000000003E-002    -1.2618696942135110E-015
  -3.9550000000000002E-002    -2.1178916651626390E-014
  -3.9500000000000000E-002    -7.0947892844437649E-014
  -3.9449999999999999E-002    -1.4520068439512781E-013
  -3.9399999999999998E-002    -1.9303688589002829E-013
  -3.9350000000000003E-002    -1.1228368819785964E-013
  -3.9300000000000002E-002     2.0425794154138581E-013
  -3.9250000000000000E-002     7.7057966668685165E-013
  -3.9199999999999999E-002     1.4127213671100799E-012
  -3.9150000000000004E-002     1.7689716122803726E-012
  -3.9100000000000003E-002     1.4440278054497662E-012
  -3.9050000000000001E-002     2.7046431698974871E-013
  -3.9000000000000000E-002    -1.4835001962049471E-012
  -3.8949999999999999E-002    -3.1439364718090934E-012
  -3.8900000000000004E-002    -3.9590918317132873E-012
  -3.8850000000000003E-002    -3.5696896751721474E-012
  -3.8800000000000001E-002    -2.3085549651551051E-012
  -3.8750000000000000E-002    -1.0614778782290324E-012
  -3.8699999999999998E-002    -6.8572944524978672E-013
  -3.8650000000000004E-002    -1.3140379973560975E-012
  -3.8600000000000002E-002    -2.0335024183239250E-012
  -3.8550000000000001E-002    -1.2664322438217001E-012
  -3.8500000000000000E-002     2.2494092711657705E-012
  -3.8449999999999998E-002     8.4216904442448054E-012
  -3.8400000000000004E-002     1.5390158787883438E-011
  -3.8350000000000002E-002     2.0133539919693064E-011
  -3.8300000000000001E-002     1.9902184227811015E-011
  -3.8249999999999999E-002     1.3740589604312692E-011
  -3.8199999999999998E-002     3.2174979715145772E-012
  -3.8150000000000003E-002    -8.1459763945804624E-012
  -3.8100000000000002E-002    -1.6556454207239291E-011
  -3.8050000000000000E-002    -1.9903953186501422E-011
  -3.7999999999999999E-002    -1.8951032748387469E-011
  -3.7949999999999998E-002    -1.7055580249920445E-011
  -3.7900000000000003E-002    -1.8442556783782981E-011
  -3.7850000000000002E-002    -2.5768142714169913E-011
  -3.7800000000000000E-002    -3.8120053739907324E-011
  -3.7749999999999999E-002    -5.0499481475703115E-011
  -3.7699999999999997E-002    -5.5268561759089208E-011
  -3.7650000000000003E-002    -4.5218033482988997E-011
  -3.7600000000000001E-002    -1.7108484651837319E-011
  -3.7550000000000000E-002     2.5894502394286155E-011
  -3.7499999999999999E-002     7.4249080575900682E-011
  -3.7449999999999997E-002     1.1494211264035864E-010
  -3.7400000000000003E-002     1.3631720450444407E-010
  -3.7350000000000001E-002     1.3273667386053118E-010
  -3.7300000000000000E-002     1.0678751853561659E-010
  -3.7249999999999998E-002     6.7775513505326302E-011
  -3.7200000000000004E-002     2.7118413134414563E-011
  -3.7150000000000002E-002    -7.0453952808331189E-012
  -3.7100000000000001E-002    -3.3191151283226379E-011
  -3.7050000000000000E-002    -5.5896377105209533E-011
  -3.6999999999999998E-002    -8.1787596915927868E-011
  -3.6950000000000004E-002    -1.1419520178163361E-010
  -3.6900000000000002E-002    -1.4944697020636456E-010
  -3.6850000000000001E-002    -1.7677666774190212E-010
  -3.6799999999999999E-002    -1.8182700067757224E-010
  -3.6749999999999998E-002    -1.5185851251694223E-010
  -3.6700000000000003E-002    -8.0071141268362174E-011
  -3.6650000000000002E-002     3.2803816349508325E-011
  -3.6600000000000001E-002     1.7984777474372982E-010
  -3.6549999999999999E-002     3.5095247358398867E-010
  -3.6499999999999998E-002     5.3567309419842363E-010
  -3.6450000000000003E-002     7.2473230885655494E-010
  -3.6400000000000002E-002     9.1009754074880224E-010
  -3.6350000000000000E-002     1.0843974413619250E-009
  -3.6299999999999999E-002     1.2405310142833741E-009
  -3.6249999999999998E-002     1.3718226992720901E-009
  -3.6200000000000003E-002     1.4725495372387233E-009
  -3.6150000000000002E-002     1.5385672748283277E-009
  -3.6100000000000000E-002     1.5680191985455419E-009
  -3.6049999999999999E-002     1.5622731302401788E-009
  -3.6000000000000004E-002     1.5269549509628555E-009
  -3.5950000000000003E-002     1.4723916026225708E-009
  -3.5900000000000001E-002     1.4125553566330427E-009
  -3.5850000000000000E-002     1.3621717417558637E-009
  -3.5799999999999998E-002     1.3328452097549705E-009
  -3.5750000000000004E-002     1.3300298854759271E-009
  -3.5700000000000003E-002     1.3525657783018278E-009
  -3.5650000000000001E-002     1.3951536644498881E-009
  -3.5600000000000000E-002     1.4523224908811669E-009
  -3.5549999999999998E-002     1.5213850091750550E-009
  -3.5500000000000004E-002     1.6023970793854565E-009
  -3.5450000000000002E-002     1.6950308824338932E-009
  -3.5400000000000001E-002     1.7944132028882322E-009
  -3.5349999999999999E-002     1.8889823564077577E-009
  -3.5299999999999998E-002     1.9625244191505213E-009
  -3.5250000000000004E-002     2.0001360556440221E-009
  -3.5200000000000002E-002     1.9952758417246296E-009
  -3.5150000000000001E-002     1.9539393622678087E-009
  -3.5099999999999999E-002     1.8932068426616996E-009
  -3.5049999999999998E-002     1.8344918256472214E-009
  -3.5000000000000003E-002     1.7949921694830776E-009
  -3.4950000000000002E-002     1.7820912843060031E-009
  -3.4900000000000000E-002     1.7937947235697035E-009
  -3.4849999999999999E-002     1.8246100086158901E-009
  -3.4799999999999998E-002     1.8728613515789812E-009
  -3.4750000000000003E-002     1.9444898046694533E-009
  -3.4700000000000002E-002     2.0505457551026609E-009
  -3.4650000000000000E-002     2.1994425110247972E-009
  -3.4599999999999999E-002     2.3882116354661067E-009
  -3.4549999999999997E-002     2.5976632741575779E-009
  -3.4500000000000003E-002     2.7943914874060329E-009
  -3.4450000000000001E-002     2.9392684904367750E-009
  -3.4400000000000000E-002     2.9991956804928945E-009
  -3.4349999999999999E-002     2.9575227267477342E-009
  -3.4299999999999997E-002     2.8189752586450712E-009
  -3.4250000000000003E-002     2.6068707702080537E-009
  -3.4200000000000001E-002     2.3532736255011379E-009
  -3.4150000000000000E-002     2.0857352262273491E-009
  -3.4099999999999998E-002     1.8161881423895607E-009
  -3.4049999999999997E-002     1.5372519427490489E-009
  -3.4000000000000002E-002     1.2282560964313481E-009
  -3.3950000000000001E-002     8.6869860631904330E-010
  -3.3900000000000000E-002     4.5279105158207016E-010
  -3.3849999999999998E-002    -2.5358323629304533E-012
  -3.3799999999999997E-002    -4.6125585815787403E-010
  -3.3750000000000002E-002    -8.8312637688007039E-010
  -3.3700000000000001E-002    -1.2435615169299125E-009
  -3.3649999999999999E-002    -1.5488753863442973E-009
  -3.3599999999999998E-002    -1.8384449398842164E-009
  -3.3550000000000003E-002    -2.1710047824616079E-009
  -3.3500000000000002E-002    -2.6000845688020235E-009
  -3.3450000000000001E-002    -3.1496687225709932E-009
  -3.3399999999999999E-002    -3.8020130959258236E-009
  -3.3349999999999998E-002    -4.5041514509005429E-009
  -3.3300000000000003E-002    -5.1904114758329383E-009
  -3.3250000000000002E-002    -5.8101340077566613E-009
  -3.3200000000000000E-002    -6.3472454006639524E-009
  -3.3149999999999999E-002    -6.8227587448054093E-009
  -3.3099999999999997E-002    -7.2800084985285035E-009
  -3.3050000000000003E-002    -7.7605917652169921E-009
  -3.3000000000000002E-002    -8.2825693602780645E-009
  -3.2950000000000000E-002    -8.8304924691220560E-009
  -3.2899999999999999E-002    -9.3610470969380027E-009
  -3.2850000000000004E-002    -9.8217016758493067E-009
  -3.2800000000000003E-002    -1.0174818192991830E-008
  -3.2750000000000001E-002    -1.0417573485028468E-008
  -3.2700000000000000E-002    -1.0589112718533158E-008
  -3.2649999999999998E-002    -1.0760632578625883E-008
  -3.2600000000000004E-002    -1.1010752694004483E-008
  -3.2550000000000003E-002    -1.1395279491619324E-008
  -3.2500000000000001E-002    -1.1924071769855195E-008
  -3.2450000000000000E-002    -1.2555780577317101E-008
  -3.2399999999999998E-002    -1.3213908197404118E-008
  -3.2350000000000004E-002    -1.3818105337131553E-008
  -3.2300000000000002E-002    -1.4317436535041369E-008
  -3.2250000000000001E-002    -1.4711097870427666E-008
  -3.2199999999999999E-002    -1.5047378434407498E-008
  -3.2149999999999998E-002    -1.5401189531739872E-008
  -3.2100000000000004E-002    -1.5840036313874891E-008
  -3.2050000000000002E-002    -1.6393642984661107E-008
  -3.2000000000000001E-002    -1.7041003315500256E-008
  -3.1949999999999999E-002    -1.7720807680214664E-008
  -3.1899999999999998E-002    -1.8360318533201082E-008
  -3.1850000000000003E-002    -1.8909241991108115E-008
  -3.1800000000000002E-002    -1.9363062292969247E-008
  -3.1750000000000000E-002    -1.9765958588199835E-008
  -3.1699999999999999E-002    -2.0193237987145644E-008
  -3.1649999999999998E-002    -2.0722110886475838E-008
  -3.1600000000000003E-002    -2.1403289828719717E-008
  -3.1550000000000002E-002    -2.2243703383241892E-008
  -3.1500000000000000E-002    -2.3205203585116341E-008
  -3.1449999999999999E-002    -2.4218541226819445E-008
  -3.1399999999999997E-002    -2.5207753233500051E-008
  -3.1350000000000003E-002    -2.6117290093087480E-008
  -3.1300000000000001E-002    -2.6932756662521469E-008
  -3.1250000000000000E-002    -2.7686912352553506E-008
  -3.1199999999999999E-002    -2.8447115980684410E-008
  -3.1150000000000001E-002    -2.9287820415010472E-008
  -3.1100000000000003E-002    -3.0259350569226395E-008
  -3.1050000000000001E-002    -3.1366916588652924E-008
  -3.1000000000000000E-002    -3.2569929219496955E-008
  -3.0949999999999998E-002    -3.3802095766442700E-008
  -3.0900000000000000E-002    -3.5002981487332819E-008
  -3.0850000000000002E-002    -3.6146461358260337E-008
  -3.0800000000000001E-002    -3.7253466767165713E-008
  -3.0750000000000000E-002    -3.8383923245762586E-008
  -3.0699999999999998E-002    -3.9611963780611544E-008
  -3.0650000000000000E-002    -4.0995407748880448E-008
  -3.0600000000000002E-002    -4.2552199534219752E-008
  -3.0550000000000001E-002    -4.4252881851412794E-008
  -3.0499999999999999E-002    -4.6031048456580477E-008
  -3.0449999999999998E-002    -4.7806447414477922E-008
  -3.0400000000000000E-002    -4.9511207795992795E-008
  -3.0350000000000002E-002    -5.1110048459998541E-008
  -3.0300000000000001E-002    -5.2609138769537700E-008
  -3.0249999999999999E-002    -5.4052658961047663E-008
  -3.0200000000000001E-002    -5.5509128111124911E-008
  -3.0150000000000000E-002    -5.7050959899562988E-008
  -3.0100000000000002E-002    -5.8731968541118928E-008
  -3.0050000000000000E-002    -6.0569421634026697E-008
  -2.9999999999999999E-002    -6.2538208085793096E-008
  -2.9950000000000001E-002    -6.4581963842437913E-008
  -2.9899999999999999E-002    -6.6639067893397622E-008
  -2.9850000000000002E-002    -6.8673087364195097E-008
  -2.9800000000000000E-002    -7.0693050883840426E-008
  -2.9749999999999999E-002    -7.2752566544825545E-008
  -2.9700000000000001E-002    -7.4927317231503109E-008
  -2.9650000000000003E-002    -7.7281282767523718E-008
  -2.9600000000000001E-002    -7.9837870464972498E-008
  -2.9550000000000000E-002    -8.2568671746265118E-008
  -2.9499999999999998E-002    -8.5403818679343495E-008
  -2.9450000000000000E-002    -8.8258216406252987E-008
  -2.9400000000000003E-002    -9.1062379178029752E-008
  -2.9350000000000001E-002    -9.3786670049846604E-008
  -2.9300000000000000E-002    -9.6451335013300646E-008
  -2.9249999999999998E-002    -9.9120143510955228E-008
  -2.9200000000000000E-002    -1.0188050283555667E-007
  -2.9150000000000002E-002    -1.0481660813747073E-007
  -2.9100000000000001E-002    -1.0798405626429040E-007
  -2.9049999999999999E-002    -1.1139391570528845E-007
  -2.8999999999999998E-002    -1.1501157921840887E-007
  -2.8950000000000000E-002    -1.1877111224953258E-007
  -2.8900000000000002E-002    -1.2260070353701350E-007
  -2.8850000000000001E-002    -1.2645077558800771E-007
  -2.8799999999999999E-002    -1.3031380087128247E-007
  -2.8749999999999998E-002    -1.3422725409342381E-007
  -2.8700000000000000E-002    -1.3825701862025836E-007
  -2.8650000000000002E-002    -1.4246701853314762E-007
  -2.8600000000000000E-002    -1.4688858964410294E-007
  -2.8549999999999999E-002    -1.5150366787209476E-007
  -2.8500000000000001E-002    -1.5625044585719439E-007
  -2.8450000000000000E-002    -1.6104892972231474E-007
  -2.8400000000000002E-002    -1.6583472225736948E-007
  -2.8350000000000000E-002    -1.7058582861761929E-007
  -2.8299999999999999E-002    -1.7533233370533311E-007
  -2.8250000000000001E-002    -1.8014714128154572E-007
  -2.8200000000000003E-002    -1.8512386575317799E-007
  -2.8150000000000001E-002    -1.9035050511335978E-007
  -2.8100000000000000E-002    -1.9588698333629204E-007
  -2.8049999999999999E-002    -2.0175121514317544E-007
  -2.8000000000000001E-002    -2.0791682152495180E-007
  -2.7950000000000003E-002    -2.1432314193673232E-007
  -2.7900000000000001E-002    -2.2089594050734996E-007
  -2.7850000000000000E-002    -2.2757336370239208E-007
  -2.7799999999999998E-002    -2.3432787641149798E-007
  -2.7750000000000000E-002    -2.4117526215588690E-007
  -2.7700000000000002E-002    -2.4816569221699689E-007
  -2.7650000000000001E-002    -2.5535985617846983E-007
  -2.7600000000000000E-002    -2.6280069357113528E-007
  -2.7549999999999998E-002    -2.7049410148771107E-007
  -2.7500000000000000E-002    -2.7840723975482998E-007
  -2.7450000000000002E-002    -2.8648555484965741E-007
  -2.7400000000000001E-002    -2.9467971367101972E-007
  -2.7349999999999999E-002    -3.0297020150295594E-007
  -2.7299999999999998E-002    -3.1137840365263264E-007
  -2.7250000000000000E-002    -3.1996154058141410E-007
  -2.7200000000000002E-002    -3.2879515733864778E-007
  -2.7150000000000001E-002    -3.3795175189439345E-007
  -2.7099999999999999E-002    -3.4748314380838840E-007
  -2.7049999999999998E-002    -3.5741014655168947E-007
  -2.7000000000000000E-002    -3.6771971412999857E-007
  -2.6950000000000002E-002    -3.7836912625024569E-007
  -2.6900000000000000E-002    -3.8929663286023240E-007
  -2.6849999999999999E-002    -4.0043865378825388E-007
  -2.6800000000000001E-002    -4.1175031756486605E-007
  -2.6749999999999999E-002    -4.2322291519507522E-007
  -2.6700000000000002E-002    -4.3489001012643103E-007
  -2.6650000000000000E-002    -4.4681717317536540E-007
  -2.6599999999999999E-002    -4.5907752310460282E-007
  -2.6550000000000001E-002    -4.7172307577641854E-007
  -2.6500000000000003E-002    -4.8476549880385777E-007
  -2.6450000000000001E-002    -4.9817660503430473E-007
  -2.6400000000000000E-002    -5.1190863572189517E-007
  -2.6349999999999998E-002    -5.2592418660364965E-007
  -2.6300000000000000E-002    -5.4022042511865418E-007
  -2.6250000000000002E-002    -5.5483613205421239E-007
  -2.6200000000000001E-002    -5.6983931997016098E-007
  -2.6150000000000000E-002    -5.8530285568281731E-007
  -2.6099999999999998E-002    -6.0128140868813430E-007
  -2.6050000000000000E-002    -6.1779784228678476E-007
  -2.6000000000000002E-002    -6.3484209436848237E-007
  -2.5950000000000001E-002    -6.5237792313418088E-007
  -2.5899999999999999E-002    -6.7035362971660957E-007
  -2.5849999999999998E-002    -6.8871424672031277E-007
  -2.5800000000000000E-002    -7.0741548292307601E-007
  -2.5750000000000002E-002    -7.2643873049880260E-007
  -2.5700000000000001E-002    -7.4580150798733314E-007
  -2.5649999999999999E-002    -7.6555724192261786E-007
  -2.5599999999999998E-002    -7.8578085303894156E-007
  -2.5550000000000000E-002    -8.0654414715487392E-007
  -2.5500000000000002E-002    -8.2789202708314140E-007
  -2.5450000000000000E-002    -8.4983107559886263E-007
  -2.5399999999999999E-002    -8.7233627217672047E-007
  -2.5349999999999998E-002    -8.9537189361442768E-007
  -2.5300000000000000E-002    -9.1891610253717937E-007
  -2.5250000000000002E-002    -9.4297773135037721E-007
  -2.5200000000000000E-002    -9.6759789450097154E-007
  -2.5149999999999999E-002    -9.9283761195566937E-007
  -2.5100000000000001E-002    -1.0187569749394642E-006
  -2.5049999999999999E-002    -1.0453955210475181E-006
  -2.5000000000000001E-002    -1.0727627501781923E-006
  -2.4950000000000000E-002    -1.1008391592415553E-006
  -2.4899999999999999E-002    -1.1295878535705949E-006
  -2.4850000000000001E-002    -1.1589681056720383E-006
  -2.4800000000000003E-002    -1.1889479954762080E-006
  -2.4750000000000001E-002    -1.2195150017246890E-006
  -2.4700000000000000E-002    -1.2506830948381664E-006
  -2.4649999999999998E-002    -1.2824967065075107E-006
  -2.4600000000000000E-002    -1.3150263258574555E-006
  -2.4550000000000002E-002    -1.3483537262937901E-006
  -2.4500000000000001E-002    -1.3825484328996657E-006
  -2.4450000000000000E-002    -1.4176463333423311E-006
  -2.4399999999999998E-002    -1.4536415455957019E-006
  -2.4350000000000000E-002    -1.4904982693173000E-006
  -2.4299999999999999E-002    -1.5281775204110192E-006
  -2.4250000000000001E-002    -1.5666629601331632E-006
  -2.4199999999999999E-002    -1.6059729890662150E-006
  -2.4150000000000001E-002    -1.6461546143028373E-006
  -2.4100000000000000E-002    -1.6872660191621117E-006
  -2.4049999999999998E-002    -1.7293577577706582E-006
  -2.4000000000000000E-002    -1.7724623128996901E-006
  -2.3949999999999999E-002    -1.8165921918168926E-006
  -2.3900000000000001E-002    -1.8617422891368751E-006
  -2.3850000000000000E-002    -1.9078967937903695E-006
  -2.3800000000000002E-002    -1.9550368652876364E-006
  -2.3750000000000000E-002    -2.0031525900115437E-006
  -2.3699999999999999E-002    -2.0522528483533058E-006
  -2.3650000000000001E-002    -2.1023738217923991E-006
  -2.3599999999999999E-002    -2.1535760286244902E-006
  -2.3550000000000001E-002    -2.2059348133677079E-006
  -2.3500000000000000E-002    -2.2595228943284556E-006
  -2.3449999999999999E-002    -2.3143917652239940E-006
  -2.3400000000000001E-002    -2.3705621067202488E-006
  -2.3349999999999999E-002    -2.4280218373368567E-006
  -2.3300000000000001E-002    -2.4867415950405679E-006
  -2.3250000000000000E-002    -2.5466956866535642E-006
  -2.3199999999999998E-002    -2.6078844209300247E-006
  -2.3150000000000000E-002    -2.6703433399008317E-006
  -2.3099999999999999E-002    -2.7341324205385762E-006
  -2.3050000000000001E-002    -2.7993159237195404E-006
  -2.3000000000000000E-002    -2.8659413869485189E-006
  -2.2950000000000002E-002    -2.9340319788104085E-006
  -2.2900000000000000E-002    -3.0035939779313136E-006
  -2.2849999999999999E-002    -3.0746295687687678E-006
  -2.2800000000000001E-002    -3.1471442076013831E-006
  -2.2749999999999999E-002    -3.2211477328439327E-006
  -2.2700000000000001E-002    -3.2966516834148643E-006
  -2.2650000000000000E-002    -3.3736729666337809E-006
  -2.2599999999999999E-002    -3.4522438462298405E-006
  -2.2550000000000001E-002    -3.5324206902053675E-006
  -2.2499999999999999E-002    -3.6142788834832831E-006
  -2.2450000000000001E-002    -3.6978965057777699E-006
  -2.2400000000000000E-002    -3.7833333251387579E-006
  -2.2349999999999998E-002    -3.8706147461597451E-006
  -2.2300000000000000E-002    -3.9597367661734869E-006
  -2.2249999999999999E-002    -4.0506799787872951E-006
  -2.2200000000000001E-002    -4.1434338583319706E-006
  -2.2150000000000000E-002    -4.2380112314089701E-006
  -2.2100000000000002E-002    -4.3344515362823348E-006
  -2.2050000000000000E-002    -4.4328172559153798E-006
  -2.1999999999999999E-002    -4.5331759866659136E-006
  -2.1950000000000001E-002    -4.6355877252628491E-006
  -2.1899999999999999E-002    -4.7400935485544394E-006
  -2.1850000000000001E-002    -4.8467180239313453E-006
  -2.1800000000000000E-002    -4.9554768927580723E-006
  -2.1749999999999999E-002    -5.0663881756517989E-006
  -2.1700000000000001E-002    -5.1794770173336667E-006
  -2.1649999999999999E-002    -5.2947765658672213E-006
  -2.1600000000000001E-002    -5.4123246749444614E-006
  -2.1550000000000000E-002    -5.5321653091009439E-006
  -2.1499999999999998E-002    -5.6543536664238221E-006
  -2.1450000000000000E-002    -5.7789570272462657E-006
  -2.1399999999999999E-002    -5.9060430460613933E-006
  -2.1350000000000001E-002    -6.0356657733067664E-006
  -2.1299999999999999E-002    -6.1678532180904167E-006
  -2.1250000000000002E-002    -6.3026074636417368E-006
  -2.1200000000000000E-002    -6.4399227776557262E-006
  -2.1149999999999999E-002    -6.5798082008644431E-006
  -2.1100000000000001E-002    -6.7223029140502614E-006
  -2.1049999999999999E-002    -6.8674706842355538E-006
  -2.1000000000000001E-002    -7.0153838633365628E-006
  -2.0950000000000000E-002    -7.1661084118413858E-006
  -2.0899999999999998E-002    -7.3196931761804928E-006
  -2.0850000000000000E-002    -7.4761773199340564E-006
  -2.0799999999999999E-002    -7.6355933074863424E-006
  -2.0750000000000001E-002    -7.7979727700967691E-006
  -2.0700000000000000E-002    -7.9633505656624822E-006
  -2.0649999999999998E-002    -8.1317611355247741E-006
  -2.0600000000000000E-002    -8.3032456224797409E-006
  -2.0549999999999999E-002    -8.4778496876916209E-006
  -2.0500000000000001E-002    -8.6556290513852012E-006
  -2.0449999999999999E-002    -8.8366478498978596E-006
  -2.0400000000000001E-002    -9.0209768355122674E-006
  -2.0350000000000000E-002    -9.2086851113509388E-006
  -2.0299999999999999E-002    -9.3998287818254500E-006
  -2.0250000000000001E-002    -9.5944428965659829E-006
  -2.0199999999999999E-002    -9.7925471149984175E-006
  -2.0150000000000001E-002    -9.9941500284448705E-006
  -2.0100000000000000E-002    -1.0199274473470138E-005
  -2.0049999999999998E-002    -1.0407967176697936E-005
  -2.0000000000000000E-002    -1.0620301038590631E-005
  -1.9949999999999999E-002    -1.0836358965017019E-005
  -1.9900000000000001E-002    -1.1056218584288564E-005
  -1.9850000000000000E-002    -1.1279940240989515E-005
  -1.9799999999999998E-002    -1.1507569475081036E-005
  -1.9750000000000000E-002    -1.1739148532924203E-005
  -1.9699999999999999E-002    -1.1974724122667938E-005
  -1.9650000000000001E-002    -1.2214350382114629E-005
  -1.9599999999999999E-002    -1.2458078476407100E-005
  -1.9550000000000001E-002    -1.2705956925643007E-005
  -1.9500000000000000E-002    -1.2958037458213172E-005
  -1.9449999999999999E-002    -1.3214380623821433E-005
  -1.9400000000000001E-002    -1.3475060835274940E-005
  -1.9349999999999999E-002    -1.3740154377503349E-005
  -1.9300000000000001E-002    -1.4009730973605004E-005
  -1.9250000000000000E-002    -1.4283844364224913E-005
  -1.9199999999999998E-002    -1.4562527791313872E-005
  -1.9150000000000000E-002    -1.4845803054173782E-005
  -1.9099999999999999E-002    -1.5133694528935989E-005
  -1.9050000000000001E-002    -1.5426249361102440E-005
  -1.9000000000000000E-002    -1.5723530984761323E-005
  -1.8949999999999998E-002    -1.6025629907224308E-005
  -1.8900000000000000E-002    -1.6332635401556720E-005
  -1.8849999999999999E-002    -1.6644625407396534E-005
  -1.8800000000000001E-002    -1.6961656025107493E-005
  -1.8749999999999999E-002    -1.7283767586261059E-005
  -1.8700000000000001E-002    -1.7610999581149947E-005
  -1.8650000000000000E-002    -1.7943399450881193E-005
  -1.8599999999999998E-002    -1.8281030764760012E-005
  -1.8550000000000001E-002    -1.8623959993298981E-005
  -1.8499999999999999E-002    -1.8972243823094494E-005
  -1.8450000000000001E-002    -1.9325935505578503E-005
  -1.8400000000000000E-002    -1.9685093265104053E-005
  -1.8349999999999998E-002    -2.0049780836507276E-005
  -1.8300000000000000E-002    -2.0420074175457874E-005
  -1.8249999999999999E-002    -2.0796054057157831E-005
  -1.8200000000000001E-002    -2.1177781874268398E-005
  -1.8149999999999999E-002    -2.1565302975670259E-005
  -1.8100000000000002E-002    -2.1958645019773513E-005
  -1.8050000000000000E-002    -2.2357845381076516E-005
  -1.7999999999999999E-002    -2.2762956622445223E-005
  -1.7950000000000001E-002    -2.3174051452646158E-005
  -1.7899999999999999E-002    -2.3591219769064327E-005
  -1.7850000000000001E-002    -2.4014552082930527E-005
  -1.7800000000000000E-002    -2.4444134116654772E-005
  -1.7749999999999998E-002    -2.4880037142940215E-005
  -1.7700000000000000E-002    -2.5322314169592874E-005
  -1.7649999999999999E-002    -2.5771001649422326E-005
  -1.7600000000000001E-002    -2.6226133701822457E-005
  -1.7550000000000000E-002    -2.6687755694399950E-005
  -1.7499999999999998E-002    -2.7155916325613518E-005
  -1.7450000000000000E-002    -2.7630676062002656E-005
  -1.7399999999999999E-002    -2.8112097410593444E-005
  -1.7350000000000001E-002    -2.8600252385640440E-005
  -1.7299999999999999E-002    -2.9095220867745769E-005
  -1.7250000000000001E-002    -2.9597077952432623E-005
  -1.7200000000000000E-002    -3.0105899547661976E-005
  -1.7149999999999999E-002    -3.0621737474299507E-005
  -1.7100000000000001E-002    -3.1144627511244158E-005
  -1.7049999999999999E-002    -3.1674577185845331E-005
  -1.7000000000000001E-002    -3.2211614574787247E-005
  -1.6950000000000000E-002    -3.2755800795598080E-005
  -1.6899999999999998E-002    -3.3307232905715945E-005
  -1.6850000000000000E-002    -3.3866010557845048E-005
  -1.6799999999999999E-002    -3.4432227406965341E-005
  -1.6750000000000001E-002    -3.5005944268087368E-005
  -1.6700000000000000E-002    -3.5587193592778998E-005
  -1.6649999999999998E-002    -3.6175997757234315E-005
  -1.6600000000000000E-002    -3.6772390365061219E-005
  -1.6549999999999999E-002    -3.7376415793968865E-005
  -1.6500000000000001E-002    -3.7988129353109444E-005
  -1.6449999999999999E-002    -3.8607581210430680E-005
  -1.6400000000000001E-002    -3.9234824315782927E-005
  -1.6350000000000000E-002    -3.9869913730922889E-005
  -1.6299999999999999E-002    -4.0512897612173969E-005
  -1.6250000000000001E-002    -4.1163841081298777E-005
  -1.6199999999999999E-002    -4.1822804444358180E-005
  -1.6150000000000001E-002    -4.2489845565939796E-005
  -1.6100000000000000E-002    -4.3165011227831847E-005
  -1.6049999999999998E-002    -4.3848335221043657E-005
  -1.6000000000000000E-002    -4.4539840062525552E-005
  -1.5949999999999999E-002    -4.5239542518558362E-005
  -1.5900000000000001E-002    -4.5947480963703271E-005
  -1.5850000000000000E-002    -4.6663715440428767E-005
  -1.5799999999999998E-002    -4.7388334849462801E-005
  -1.5750000000000000E-002    -4.8121413496490570E-005
  -1.5699999999999999E-002    -4.8862995716074026E-005
  -1.5650000000000001E-002    -4.9613085770023856E-005
  -1.5599999999999999E-002    -5.0371684722601165E-005
  -1.5550000000000001E-002    -5.1138794567682900E-005
  -1.5500000000000000E-002    -5.1914448170405807E-005
  -1.5449999999999998E-002    -5.2698700288880611E-005
  -1.5400000000000000E-002    -5.3491594748897233E-005
  -1.5349999999999999E-002    -5.4293157417612044E-005
  -1.5300000000000001E-002    -5.5103409608738994E-005
  -1.5250000000000000E-002    -5.5922380425179325E-005
  -1.5199999999999998E-002    -5.6750109589487967E-005
  -1.5150000000000000E-002    -5.7586647451822164E-005
  -1.5099999999999999E-002    -5.8432025286770466E-005
  -1.5050000000000001E-002    -5.9286264389974474E-005
  -1.4999999999999999E-002    -6.0149357639734582E-005
  -1.4949999999999998E-002    -6.1021309605848497E-005
  -1.4900000000000000E-002    -6.1902134323130829E-005
  -1.4849999999999999E-002    -6.2791851430777705E-005
  -1.4800000000000001E-002    -6.3690497665912246E-005
  -1.4749999999999999E-002    -6.4598094302096467E-005
  -1.4700000000000001E-002    -6.5514661071749598E-005
  -1.4650000000000000E-002    -6.6440212581730303E-005
  -1.4599999999999998E-002    -6.7374735884722213E-005
  -1.4550000000000000E-002    -6.8318217582916479E-005
  -1.4499999999999999E-002    -6.9270642834282528E-005
  -1.4450000000000001E-002    -7.0232022251584745E-005
  -1.4400000000000000E-002    -7.1202366524160279E-005
  -1.4349999999999998E-002    -7.2181696377970946E-005
  -1.4300000000000000E-002    -7.3170007688349380E-005
  -1.4249999999999999E-002    -7.4167268324866703E-005
  -1.4200000000000001E-002    -7.5173447417909884E-005
  -1.4149999999999999E-002    -7.6188528356740517E-005
  -1.4099999999999998E-002    -7.7212528710879268E-005
  -1.4050000000000000E-002    -7.8245473690286588E-005
  -1.3999999999999999E-002    -7.9287363273794023E-005
  -1.3950000000000001E-002    -8.0338171729238295E-005
  -1.3899999999999999E-002    -8.1397833496711774E-005
  -1.3850000000000001E-002    -8.2466296929157863E-005
  -1.3800000000000000E-002    -8.3543525317099278E-005
  -1.3749999999999998E-002    -8.4629499674027461E-005
  -1.3700000000000000E-002    -8.5724201441899668E-005
  -1.3649999999999999E-002    -8.6827611271533595E-005
  -1.3600000000000001E-002    -8.7939706250089348E-005
  -1.3550000000000000E-002    -8.9060429308739347E-005
  -1.3499999999999998E-002    -9.0189743955620727E-005
  -1.3450000000000000E-002    -9.1327605214778319E-005
  -1.3399999999999999E-002    -9.2473958159177441E-005
  -1.3350000000000001E-002    -9.3628728572763269E-005
  -1.3299999999999999E-002    -9.4791848114094898E-005
  -1.3249999999999998E-002    -9.5963272599968656E-005
  -1.3200000000000000E-002    -9.7142945093759396E-005
  -1.3149999999999998E-002    -9.8330815683884493E-005
  -1.3100000000000001E-002    -9.9526839528547899E-005
  -1.3049999999999999E-002    -1.0073096151849836E-004
  -1.3000000000000001E-002    -1.0194312347892637E-004
  -1.2950000000000000E-002    -1.0316323910853939E-004
  -1.2899999999999998E-002    -1.0439120423780528E-004
  -1.2850000000000000E-002    -1.0562691151185208E-004
  -1.2799999999999999E-002    -1.0687025144675189E-004