  -4.0000000000000001E-002     0.0000000000000000     
  -3.9949999999999999E-002     0.0000000000000000     
  -3.9899999999999998E-002    -2.3465255318186440E-013
  -3.9850000000000003E-002    -1.5303810901463772E-012
  -3.9800000000000002E-002    -5.2606287198038437E-012
  -3.9750000000000001E-002    -1.2385168772503342E-011
  -3.9699999999999999E-002    -2.2164731676859376E-011
  -3.9649999999999998E-002    -3.1885815032450302E-011
  -3.9600000000000003E-002    -3.8284958200141185E-011
  -3.9550000000000002E-002    -3.9713339248313383E-011
  -3.9500000000000000E-002    -3.7034366978659310E-011
  -3.9449999999999999E-002    -3.2077637110871134E-011
  -3.9399999999999998E-002    -2.4722103701730513E-011
  -3.9350000000000003E-002    -1.1343460274235321E-011
  -3.9300000000000002E-002     1.3334079250431990E-011
  -3.9250000000000000E-002     5.1743599493626425E-011
  -3.9199999999999999E-002     9.9714178679931845E-011
  -3.9150000000000004E-002     1.4680793403505958E-010
  -3.9100000000000003E-002     1.8115413264408596E-010
  -3.9050000000000001E-002     1.9552629681688273E-010
  -3.9000000000000000E-002     1.9014993391432687E-010
  -3.8949999999999999E-002     1.7011600685356474E-010
  -3.8900000000000004E-002     1.3953904511835621E-010
  -3.8850000000000003E-002     9.7303459639379261E-011
  -3.8800000000000001E-002     3.8095516713036059E-011
  -3.8750000000000000E-002    -4.1784078508575959E-011
  -3.8699999999999998E-002    -1.3829762898807598E-010
  -3.8650000000000004E-002    -2.3826312056900162E-010
  -3.8600000000000002E-002    -3.2431791236223077E-010
  -3.8550000000000001E-002    -3.8316222812726336E-010
  -3.8500000000000000E-002    -4.1147556954960478E-010
  -3.8449999999999998E-002    -4.1548797702710861E-010
  -3.8400000000000004E-002    -4.0466049326179348E-010
  -3.8350000000000002E-002    -3.8397340925395584E-010
  -3.8300000000000001E-002    -3.5007834479135958E-010
  -3.8249999999999999E-002    -2.9368231103900416E-010
  -3.8199999999999998E-002    -2.0623803973500665E-010
  -3.8150000000000003E-002    -8.6355303255623633E-011
  -3.8100000000000002E-002     5.8038895729666464E-011
  -3.8050000000000000E-002     2.1264575703064248E-010
  -3.7999999999999999E-002     3.6244336203005965E-010
  -3.7949999999999998E-002     4.9638875023403762E-010
  -3.7900000000000003E-002     6.0878664246982301E-010
  -3.7850000000000002E-002     6.9748925614379395E-010
  -3.7800000000000000E-002     7.6106720049752254E-010
  -3.7749999999999999E-002     7.9732860207929646E-010
  -3.7699999999999997E-002     8.0419213792473558E-010
  -3.7650000000000003E-002     7.8203764771617252E-010
  -3.7600000000000001E-002     7.3548910151785144E-010
  -3.7550000000000000E-002     6.7279617029251990E-010
  -3.7499999999999999E-002     6.0243886426096960E-010
  -3.7449999999999997E-002     5.2850303887886213E-010
  -3.7400000000000003E-002     4.4766833173943755E-010
  -3.7350000000000001E-002     3.5035792742151125E-010
  -3.7300000000000000E-002     2.2650202548862362E-010
  -3.7249999999999998E-002     7.3378116049670678E-011
  -3.7200000000000004E-002    -9.9047335129467986E-011
  -3.7150000000000002E-002    -2.6921125481159333E-010
  -3.7100000000000001E-002    -4.1189561934883693E-010
  -3.7050000000000000E-002    -5.0896553524593084E-010
  -3.6999999999999998E-002    -5.5654436082540135E-010
  -3.6950000000000004E-002    -5.6417039691370998E-010
  -3.6900000000000002E-002    -5.4673026244678966E-010
  -3.6850000000000001E-002    -5.1495908585316164E-010
  -3.6799999999999999E-002    -4.7121008175075270E-010
  -3.6749999999999998E-002    -4.1301644317452992E-010
  -3.6700000000000003E-002    -3.4067332679751026E-010
  -3.6650000000000002E-002    -2.6157230167283038E-010
  -3.6600000000000001E-002    -1.8637152094418241E-010
  -3.6549999999999999E-002    -1.1878531462018573E-010
  -3.6499999999999998E-002    -4.6687666396583840E-011
  -3.6450000000000003E-002     5.7560393146325220E-011
  -3.6400000000000002E-002     2.2577956609420139E-010
  -3.6350000000000000E-002     4.7800365104470629E-010
  -3.6299999999999999E-002     8.1223208459169567E-010
  -3.6249999999999998E-002     1.2068705529168462E-009
  -3.6200000000000003E-002     1.6343036774116756E-009
  -3.6150000000000002E-002     2.0765148790798018E-009
  -3.6100000000000000E-002     2.5325277559543486E-009
  -3.6049999999999999E-002     3.0133678177361048E-009
  -3.6000000000000004E-002     3.5288341377624425E-009
  -3.5950000000000003E-002     4.0755071751179486E-009
  -3.5900000000000001E-002     4.6337786248526697E-009
  -3.5850000000000000E-002     5.1749212376032011E-009
  -3.5799999999999998E-002     5.6723927998763503E-009
  -3.5750000000000004E-002     6.1094472859909624E-009
  -3.5700000000000003E-002     6.4786792740837341E-009
  -3.5650000000000001E-002     6.7754392592017206E-009
  -3.5600000000000000E-002     6.9913795413036523E-009
  -3.5549999999999998E-002     7.1138813964939870E-009
  -3.5500000000000004E-002     7.1323649140953854E-009
  -3.5450000000000002E-002     7.0470253205207264E-009
  -3.5400000000000001E-002     6.8732429006394779E-009
  -3.5349999999999999E-002     6.6373952885947713E-009
  -3.5299999999999998E-002     6.3653992082508860E-009
  -3.5250000000000004E-002     6.0703662785799447E-009
  -3.5200000000000002E-002     5.7468482307169729E-009
  -3.5150000000000001E-002     5.3754192729530971E-009
  -3.5099999999999999E-002     4.9350767576447913E-009
  -3.5049999999999998E-002     4.4160679697556015E-009
  -3.5000000000000003E-002     3.8255380406377794E-009
  -3.4950000000000002E-002     3.1830749221633394E-009
  -3.4900000000000000E-002     2.5098352777256154E-009
  -3.4849999999999999E-002     1.8189788450634319E-009
  -3.4799999999999998E-002     1.1138783212043070E-009
  -3.4750000000000003E-002     3.9463989995765142E-010
  -3.4700000000000002E-002    -3.3291618410511754E-010
  -3.4650000000000000E-002    -1.0538616060120856E-009
  -3.4599999999999999E-002    -1.7504311926342835E-009
  -3.4549999999999997E-002    -2.4144867063569663E-009
  -3.4500000000000003E-002    -3.0570276240655421E-009
  -3.4450000000000001E-002    -3.7063132450856712E-009
  -3.4400000000000000E-002    -4.3934437721078635E-009
  -3.4349999999999999E-002    -5.1333199986678684E-009
  -3.4299999999999997E-002    -5.9131664989548439E-009
  -3.4250000000000003E-002    -6.6968670084422708E-009
  -3.4200000000000001E-002    -7.4432557526325905E-009
  -3.4150000000000000E-002    -8.1272481725490290E-009
  -3.4099999999999998E-002    -8.7507339289325738E-009
  -3.4049999999999997E-002    -9.3370760607172462E-009
  -3.4000000000000002E-002    -9.9141440913185144E-009
  -3.3950000000000001E-002    -1.0498150117441964E-008
  -3.3900000000000000E-002    -1.1089078938402831E-008
  -3.3849999999999998E-002    -1.1679371908290377E-008
  -3.3799999999999997E-002    -1.2267665826591925E-008
  -3.3750000000000002E-002    -1.2865930053580818E-008
  -3.3700000000000001E-002    -1.3493938877067209E-008
  -3.3649999999999999E-002    -1.4165187745972399E-008
  -3.3599999999999998E-002    -1.4875505288968590E-008
  -3.3550000000000003E-002    -1.5604246171801037E-008
  -3.3500000000000002E-002    -1.6328836349795114E-008
  -3.3450000000000001E-002    -1.7043375424049803E-008
  -3.3399999999999999E-002    -1.7768149716830906E-008
  -3.3349999999999998E-002    -1.8542518284762257E-008
  -3.3300000000000003E-002    -1.9404634695244249E-008
  -3.3250000000000002E-002    -2.0370422943091134E-008
  -3.3200000000000000E-002    -2.1424923504782082E-008
  -3.3149999999999999E-002    -2.2531053868371810E-008
  -3.3099999999999997E-002    -2.3649672501269616E-008
  -3.3050000000000003E-002    -2.4758072527917240E-008
  -3.3000000000000002E-002    -2.5855910255205324E-008
  -3.2950000000000000E-002    -2.6956676909469364E-008
  -3.2899999999999999E-002    -2.8072477192142381E-008
  -3.2850000000000004E-002    -2.9203829116342678E-008
  -3.2800000000000003E-002    -3.0341784785360987E-008
  -3.2750000000000001E-002    -3.1480172668864421E-008
  -3.2700000000000000E-002    -3.2627981557247700E-008
  -3.2649999999999998E-002    -3.3811311695224904E-008
  -3.2600000000000004E-002    -3.5061523497731896E-008
  -3.2550000000000003E-002    -3.6396240147044001E-008
  -3.2500000000000001E-002    -3.7805969465614409E-008
  -3.2450000000000000E-002    -3.9256542905258156E-008
  -3.2399999999999998E-002    -4.0707595119686367E-008
  -3.2350000000000004E-002    -4.2136549314536884E-008
  -3.2300000000000002E-002    -4.3553034148568074E-008
  -3.2250000000000001E-002    -4.4994277385837793E-008
  -3.2199999999999999E-002    -4.6503828797704120E-008
  -3.2149999999999998E-002    -4.8107058122952372E-008
  -3.2100000000000004E-002    -4.9798970752046307E-008
  -3.2050000000000002E-002    -5.1551933024704503E-008
  -3.2000000000000001E-002    -5.3337648596058400E-008
  -3.1949999999999999E-002    -5.5148341758468590E-008
  -3.1899999999999998E-002    -5.7002863096821230E-008
  -3.1850000000000003E-002    -5.8934033651239393E-008
  -3.1800000000000002E-002    -6.0966598547597314E-008
  -3.1750000000000000E-002    -6.3101474443212216E-008
  -3.1699999999999999E-002    -6.5317591039017926E-008
  -3.1649999999999998E-002    -6.7589865828306728E-008
  -3.1600000000000003E-002    -6.9910354907630395E-008
  -3.1550000000000002E-002    -7.2297140736328686E-008
  -3.1500000000000000E-002    -7.4784266411480852E-008
  -3.1449999999999999E-002    -7.7399184846115183E-008
  -3.1399999999999997E-002    -8.0143513505331373E-008
  -3.1350000000000003E-002    -8.2990851676073529E-008
  -3.1300000000000001E-002    -8.5903645315532540E-008
  -3.1250000000000000E-002    -8.8857888256991733E-008
  -3.1199999999999999E-002    -9.1859023146985700E-008
  -3.1150000000000001E-002    -9.4938155678003095E-008
  -3.1100000000000003E-002    -9.8131231271039066E-008
  -3.1050000000000001E-002    -1.0145552780814192E-007
  -3.1000000000000000E-002    -1.0489925579668588E-007
  -3.0949999999999998E-002    -1.0843131910408435E-007
  -3.0900000000000000E-002    -1.1202414961416835E-007
  -3.0850000000000002E-002    -1.1567399269044277E-007
  -3.0800000000000001E-002    -1.1940481171504547E-007
  -3.0750000000000000E-002    -1.2325348111456777E-007
  -3.0699999999999998E-002    -1.2724635895273080E-007
  -3.0650000000000000E-002    -1.3138352426463223E-007
  -3.0600000000000002E-002    -1.3564114092041461E-007
  -3.0550000000000001E-002    -1.3999014605595886E-007
  -3.0499999999999999E-002    -1.4441852903163684E-007
  -3.0449999999999998E-002    -1.4894164852950486E-007
  -3.0400000000000000E-002    -1.5359376456171428E-007
  -3.0350000000000002E-002    -1.5840628768913407E-007
  -3.0300000000000001E-002    -1.6338756894630150E-007
  -3.0249999999999999E-002    -1.6851831520214796E-007
  -3.0200000000000001E-002    -1.7376619386504172E-007
  -3.0150000000000000E-002    -1.7911030102507022E-007
  -3.0100000000000002E-002    -1.8455948803664349E-007
  -3.0050000000000000E-002    -1.9015196895115562E-007
  -2.9999999999999999E-002    -1.9593604494563964E-007
  -2.9950000000000001E-002    -2.0194406098975348E-007
  -2.9899999999999999E-002    -2.0817634549500894E-007
  -2.9850000000000002E-002    -2.1460579809234273E-007
  -2.9800000000000000E-002    -2.2119980951884806E-007
  -2.9749999999999999E-002    -2.2794571790362174E-007
  -2.9700000000000001E-002    -2.3486220133501446E-007
  -2.9650000000000003E-002    -2.4198992972080595E-007
  -2.9600000000000001E-002    -2.4936757582799102E-007
  -2.9550000000000000E-002    -2.5700937934058138E-007
  -2.9499999999999998E-002    -2.6489950748746810E-007
  -2.9450000000000000E-002    -2.7300675405413008E-007
  -2.9400000000000003E-002    -2.8130946007330686E-007
  -2.9350000000000001E-002    -2.8981349560127729E-007
  -2.9300000000000000E-002    -2.9855075045163691E-007
  -2.9249999999999998E-002    -3.0755978393097575E-007
  -2.9200000000000000E-002    -3.1686179152528407E-007
  -2.9150000000000002E-002    -3.2644904273043503E-007
  -2.9100000000000001E-002    -3.3629415049837271E-007
  -2.9049999999999999E-002    -3.4637387912373244E-007
  -2.8999999999999998E-002    -3.5669105956412170E-007
  -2.8950000000000000E-002    -3.6727924878636523E-007
  -2.8900000000000002E-002    -3.7818653028400293E-007
  -2.8850000000000001E-002    -3.8944912052331296E-007
  -2.8799999999999999E-002    -4.0107258077466417E-007
  -2.8749999999999998E-002    -4.1303319883536109E-007
  -2.8700000000000000E-002    -4.2529853984537506E-007
  -2.8650000000000002E-002    -4.3785363453114452E-007
  -2.8600000000000000E-002    -4.5071416049787791E-007
  -2.8549999999999999E-002    -4.6391901356483668E-007
  -2.8500000000000001E-002    -4.7750731483351233E-007
  -2.8450000000000000E-002    -4.9149591586456196E-007
  -2.8400000000000002E-002    -5.0587297199719304E-007
  -2.8350000000000000E-002    -5.2061212234359836E-007
  -2.8299999999999999E-002    -5.3569728537994267E-007
  -2.8250000000000001E-002    -5.5114125538955400E-007
  -2.8200000000000003E-002    -5.6698494525142834E-007
  -2.8150000000000001E-002    -5.8327751050703280E-007
  -2.8100000000000000E-002    -6.0005027721091907E-007
  -2.8049999999999999E-002    -6.1730242260318889E-007
  -2.8000000000000001E-002    -6.3500785786218221E-007
  -2.7950000000000003E-002    -6.5313927950532293E-007
  -2.7900000000000001E-002    -6.7169365572507717E-007
  -2.7850000000000000E-002    -6.9070134104667205E-007
  -2.7799999999999998E-002    -7.1021364924407387E-007
  -2.7750000000000000E-002    -7.3027596816290305E-007
  -2.7700000000000002E-002    -7.5090484542861909E-007
  -2.7650000000000001E-002    -7.7208496839687748E-007
  -2.7600000000000000E-002    -7.9378767874779151E-007
  -2.7549999999999998E-002    -8.1599968235392193E-007
  -2.7500000000000000E-002    -8.3874184557374939E-007
  -2.7450000000000002E-002    -8.6206571610178828E-007
  -2.7400000000000001E-002    -8.8602896109701258E-007
  -2.7349999999999999E-002    -9.1066703756247709E-007
  -2.7299999999999998E-002    -9.3597982465011250E-007
  -2.7250000000000000E-002    -9.6194329529716127E-007
  -2.7200000000000002E-002    -9.8853781727116045E-007
  -2.7150000000000001E-002    -1.0157750595275911E-006
  -2.7099999999999999E-002    -1.0437038345722622E-006
  -2.7049999999999998E-002    -1.0723906226105750E-006
  -2.7000000000000000E-002    -1.1018881124758159E-006
  -2.6950000000000002E-002    -1.1322117730207737E-006
  -2.6900000000000000E-002    -1.1633416738622582E-006
  -2.6849999999999999E-002    -1.1952478428810239E-006
  -2.6800000000000001E-002    -1.2279217144776287E-006
  -2.6749999999999999E-002    -1.2613923611469183E-006
  -2.6700000000000002E-002    -1.2957170340811135E-006
  -2.6650000000000000E-002    -1.3309519404549960E-006
  -2.6599999999999999E-002    -1.3671238712869482E-006
  -2.6550000000000001E-002    -1.4042237049732286E-006
  -2.6500000000000003E-002    -1.4422250255481264E-006
  -2.6450000000000001E-002    -1.4811164504060221E-006
  -2.6400000000000000E-002    -1.5209245999393160E-006
  -2.6349999999999998E-002    -1.5617102628802002E-006
  -2.6300000000000000E-002    -1.6035413533309069E-006
  -2.6250000000000002E-002    -1.6464606995705979E-006
  -2.6200000000000001E-002    -1.6904701895672011E-006
  -2.6150000000000000E-002    -1.7355424681716259E-006
  -2.6099999999999998E-002    -1.7816543648059619E-006
  -2.6050000000000000E-002    -1.8288170502582959E-006
  -2.6000000000000002E-002    -1.8770854829583079E-006
  -2.5950000000000001E-002    -1.9265371530769382E-006
  -2.5899999999999999E-002    -1.9772368206337556E-006
  -2.5849999999999998E-002    -2.0292094221017474E-006
  -2.5800000000000000E-002    -2.0824393715728682E-006
  -2.5750000000000002E-002    -2.1368984736323957E-006
  -2.5700000000000001E-002    -2.1925807657853876E-006
  -2.5649999999999999E-002    -2.2495253271582726E-006
  -2.5599999999999998E-002    -2.3078075992252319E-006
  -2.5550000000000000E-002    -2.3675086962790046E-006
  -2.5500000000000002E-002    -2.4286810928044981E-006
  -2.5450000000000000E-002    -2.4913345273974462E-006
  -2.5399999999999999E-002    -2.5554519932700787E-006
  -2.5349999999999998E-002    -2.6210243409697026E-006
  -2.5300000000000000E-002    -2.6880829540684914E-006
  -2.5250000000000002E-002    -2.7567027263972671E-006
  -2.5200000000000000E-002    -2.8269782346213222E-006
  -2.5149999999999999E-002    -2.8989846775057925E-006
  -2.5100000000000001E-002    -2.9727510806586724E-006
  -2.5049999999999999E-002    -3.0482648152388269E-006
  -2.5000000000000001E-002    -3.1255036335725069E-006
  -2.4950000000000000E-002    -3.2044749057792893E-006
  -2.4899999999999999E-002    -3.2852361545144869E-006
  -2.4850000000000001E-002    -3.3678811567730652E-006
  -2.4800000000000003E-002    -3.4525040407363137E-006
  -2.4750000000000001E-002    -3.5391607204303069E-006
  -2.4700000000000000E-002    -3.6278583058851794E-006
  -2.4649999999999998E-002    -3.7185771433020588E-006
  -2.4600000000000000E-002    -3.8113074636756315E-006
  -2.4550000000000002E-002    -3.9060833178591736E-006
  -2.4500000000000001E-002    -4.0029857834163678E-006
  -2.4450000000000000E-002    -4.1021127576682494E-006
  -2.4399999999999998E-002    -4.2035426281717534E-006
  -2.4350000000000000E-002    -4.3073082021803021E-006
  -2.4299999999999999E-002    -4.4134050137267621E-006
  -2.4250000000000001E-002    -4.5218236839302625E-006
  -2.4199999999999999E-002    -4.6325854276276778E-006
  -2.4150000000000001E-002    -4.7457597617376560E-006
  -2.4100000000000000E-002    -4.8614463222583669E-006
  -2.4049999999999998E-002    -4.9797396236192025E-006
  -2.4000000000000000E-002    -5.1006978439448729E-006
  -2.3949999999999999E-002    -5.2243349447059764E-006
  -2.3900000000000001E-002    -5.3506455889530034E-006
  -2.3850000000000000E-002    -5.4796426127386627E-006
  -2.3800000000000002E-002    -5.6113821889363809E-006
  -2.3750000000000000E-002    -5.7459625338812210E-006
  -2.3699999999999999E-002    -5.8834956427822296E-006
  -2.3650000000000001E-002    -6.0240687673496979E-006
  -2.3599999999999999E-002    -6.1677261312121422E-006
  -2.3550000000000001E-002    -6.3144773792142990E-006
  -2.3500000000000000E-002    -6.4643276663791720E-006
  -2.3449999999999999E-002    -6.6173137951970253E-006
  -2.3400000000000001E-002    -6.7735155815677375E-006
  -2.3349999999999999E-002    -6.9330456770601528E-006
  -2.3300000000000001E-002    -7.0960126494496736E-006
  -2.3250000000000000E-002    -7.2624942110069734E-006
  -2.3199999999999998E-002    -7.4325285337618795E-006
  -2.3150000000000000E-002    -7.6061344354638746E-006
  -2.3099999999999999E-002    -7.7833398436237130E-006
  -2.3050000000000001E-002    -7.9642095742940120E-006
  -2.3000000000000000E-002    -8.1488460850874375E-006
  -2.2950000000000002E-002    -8.3373653202854141E-006
  -2.2900000000000000E-002    -8.5298681262530562E-006
  -2.2849999999999999E-002    -8.7264197927333601E-006
  -2.2800000000000001E-002    -8.9270542856264204E-006
  -2.2749999999999999E-002    -9.1317963192206058E-006
  -2.2700000000000001E-002    -9.3406951254049489E-006
  -2.2650000000000000E-002    -9.5538354718957894E-006
  -2.2599999999999999E-002    -9.7713317650032059E-006
  -2.2550000000000001E-002    -9.9933006127382212E-006
  -2.2499999999999999E-002    -1.0219837150300277E-005
  -2.2450000000000001E-002    -1.0450998470703990E-005
  -2.2400000000000000E-002    -1.0686817140273532E-005
  -2.2349999999999998E-002    -1.0927329278412790E-005
  -2.2300000000000000E-002    -1.1172601842157053E-005
  -2.2249999999999999E-002    -1.1422738707889567E-005
  -2.2200000000000001E-002    -1.1677863479043974E-005
  -2.2150000000000000E-002    -1.1938093619853274E-005
  -2.2100000000000002E-002    -1.2203524233034969E-005
  -2.2050000000000000E-002    -1.2474219076425962E-005
  -2.1999999999999999E-002    -1.2750229145711901E-005
  -2.1950000000000001E-002    -1.3031615741241019E-005
  -2.1899999999999999E-002    -1.3318465189964356E-005
  -2.1850000000000001E-002    -1.3610894555872736E-005
  -2.1800000000000000E-002    -1.3909030467925348E-005
  -2.1749999999999999E-002    -1.4212990263510375E-005
  -2.1700000000000001E-002    -1.4522871515504269E-005
  -2.1649999999999999E-002    -1.4838747132336649E-005
  -2.1600000000000001E-002    -1.5160679176796506E-005
  -2.1550000000000000E-002    -1.5488744758819490E-005
  -2.1499999999999998E-002    -1.5823044383156392E-005
  -2.1450000000000000E-002    -1.6163700338924817E-005
  -2.1399999999999999E-002    -1.6510843176267321E-005
  -2.1350000000000001E-002    -1.6864590517208655E-005
  -2.1299999999999999E-002    -1.7225032094047992E-005
  -2.1250000000000002E-002    -1.7592245181748887E-005
  -2.1200000000000000E-002    -1.7966310166097935E-005
  -2.1149999999999999E-002    -1.8347310710776510E-005
  -2.1100000000000001E-002    -1.8735364245182270E-005
  -2.1049999999999999E-002    -1.9130613856029554E-005
  -2.1000000000000001E-002    -1.9533199724663858E-005
  -2.0950000000000000E-002    -1.9943249634947454E-005
  -2.0899999999999998E-002    -2.0360863584674513E-005
  -2.0850000000000000E-002    -2.0786124607290280E-005
  -2.0799999999999999E-002    -2.1219107014582411E-005
  -2.0750000000000001E-002    -2.1659905392130938E-005
  -2.0700000000000000E-002    -2.2108644856885893E-005
  -2.0649999999999998E-002    -2.2565471516404865E-005
  -2.0600000000000000E-002    -2.3030538988733431E-005
  -2.0549999999999999E-002    -2.3503981136370589E-005
  -2.0500000000000001E-002    -2.3985899244168754E-005
  -2.0449999999999999E-002    -2.4476376021050533E-005
  -2.0400000000000001E-002    -2.4975494250636106E-005
  -2.0350000000000000E-002    -2.5483364249039303E-005
  -2.0299999999999999E-002    -2.6000133367767210E-005
  -2.0250000000000001E-002    -2.6525972106402862E-005
  -2.0199999999999999E-002    -2.7061051808489347E-005
  -2.0150000000000001E-002    -2.7605508328653521E-005
  -2.0100000000000000E-002    -2.8159449689510231E-005
  -2.0049999999999998E-002    -2.8722955717008490E-005
  -2.0000000000000000E-002    -2.9296112529778158E-005
  -1.9949999999999999E-002    -2.9879052964787168E-005
  -1.9900000000000001E-002    -3.0471946943634332E-005
  -1.9850000000000000E-002    -3.1074977816100497E-005
  -1.9799999999999998E-002    -3.1688325011989786E-005
  -1.9750000000000000E-002    -3.2312120834494312E-005
  -1.9699999999999999E-002    -3.2946463419688860E-005
  -1.9650000000000001E-002    -3.3591425206457315E-005
  -1.9599999999999999E-002    -3.4247104993944433E-005
  -1.9550000000000001E-002    -3.4913648379605962E-005
  -1.9500000000000000E-002    -3.5591243703462838E-005
  -1.9449999999999999E-002    -3.6280104473554162E-005
  -1.9400000000000001E-002    -3.6980402623923379E-005
  -1.9349999999999999E-002    -3.7692261749756280E-005
  -1.9300000000000001E-002    -3.8415753296410144E-005
  -1.9250000000000000E-002    -3.9150955382468730E-005
  -1.9199999999999998E-002    -3.9897992368496203E-005
  -1.9150000000000000E-002    -4.0657037294276127E-005
  -1.9099999999999999E-002    -4.1428307510404575E-005
  -1.9050000000000001E-002    -4.2212014000327544E-005
  -1.9000000000000000E-002    -4.3008320704372861E-005
  -1.8949999999999998E-002    -4.3817330707871546E-005
  -1.8900000000000000E-002    -4.4639104310593553E-005
  -1.8849999999999999E-002    -4.5473717524736773E-005
  -1.8800000000000001E-002    -4.6321320547885618E-005
  -1.8749999999999999E-002    -4.7182115817275180E-005
  -1.8700000000000001E-002    -4.8056339371050930E-005
  -1.8650000000000000E-002    -4.8944200147602089E-005
  -1.8599999999999998E-002    -4.9845821874785921E-005
  -1.8550000000000001E-002    -5.0761288498345152E-005
  -1.8499999999999999E-002    -5.1690660472890289E-005
  -1.8450000000000001E-002    -5.2634053985967767E-005
  -1.8400000000000000E-002    -5.3591651840622124E-005
  -1.8349999999999998E-002    -5.4563699822991643E-005
  -1.8300000000000000E-002    -5.5550433250201904E-005
  -1.8249999999999999E-002    -5.6552037107307661E-005
  -1.8200000000000001E-002    -5.7568604836363992E-005
  -1.8149999999999999E-002    -5.8600212006043636E-005
  -1.8100000000000002E-002    -5.9646936122405238E-005
  -1.8050000000000000E-002    -6.0708925495996980E-005
  -1.7999999999999999E-002    -6.1786398375130892E-005
  -1.7950000000000001E-002    -6.2879611502748427E-005
  -1.7899999999999999E-002    -6.3988791323217292E-005
  -1.7850000000000001E-002    -6.5114089665335825E-005
  -1.7800000000000000E-002    -6.6255570768565856E-005
  -1.7749999999999998E-002    -6.7413271093770817E-005
  -1.7700000000000000E-002    -6.8587292975577147E-005
  -1.7649999999999999E-002    -6.9777805766882870E-005
  -1.7600000000000001E-002    -7.0985075776424983E-005
  -1.7550000000000000E-002    -7.2209365642844032E-005
  -1.7499999999999998E-002    -7.3450882809468807E-005
  -1.7450000000000000E-002    -7.4709731377904466E-005
  -1.7399999999999999E-002    -7.5985941596419526E-005
  -1.7350000000000001E-002    -7.7279558983610460E-005
  -1.7299999999999999E-002    -7.8590718343855473E-005
  -1.7250000000000001E-002    -7.9919642491342076E-005
  -1.7200000000000000E-002    -8.1266591664337238E-005
  -1.7149999999999999E-002    -8.2631815390810266E-005
  -1.7100000000000001E-002    -8.4015447067935272E-005
  -1.7049999999999999E-002    -8.5417542099423008E-005
  -1.7000000000000001E-002    -8.6838123798115853E-005
  -1.6950000000000000E-002    -8.8277259727338915E-005
  -1.6899999999999998E-002    -8.9735108195488044E-005
  -1.6850000000000000E-002    -9.1211928940269682E-005
  -1.6799999999999999E-002    -9.2707998830129587E-005
  -1.6750000000000001E-002    -9.4223507867121522E-005
  -1.6700000000000000E-002    -9.5758544382016476E-005
  -1.6649999999999998E-002    -9.7313115210613410E-005
  -1.6600000000000000E-002    -9.8887240009514301E-005
  -1.6549999999999999E-002    -1.0048101886673289E-004
  -1.6500000000000001E-002    -1.0209465550307465E-004
  -1.6449999999999999E-002    -1.0372843300536955E-004
  -1.6400000000000001E-002    -1.0538258195668700E-004
  -1.6350000000000000E-002    -1.0705722414681396E-004
  -1.6299999999999999E-002    -1.0875239758733756E-004
  -1.6250000000000001E-002    -1.1046808699600053E-004
  -1.6199999999999999E-002    -1.1220433936982488E-004
  -1.6150000000000001E-002    -1.1396130316052158E-004
  -1.6100000000000000E-002    -1.1573923084820553E-004
  -1.6049999999999998E-002    -1.1753834066057918E-004
  -1.6000000000000000E-002    -1.1935882410871060E-004
  -1.5949999999999999E-002    -1.2120071263298454E-004
  -1.5900000000000001E-002    -1.2306402215712630E-004
  -1.5850000000000000E-002    -1.2494873283266380E-004
  -1.5799999999999998E-002    -1.2685493734159451E-004
  -1.5750000000000000E-002    -1.2878282228448269E-004
  -1.5699999999999999E-002    -1.3073261259657562E-004
  -1.5650000000000001E-002    -1.3270450251103103E-004
  -1.5599999999999999E-002    -1.3469858166341531E-004
  -1.5550000000000001E-002    -1.3671483979322657E-004
  -1.5500000000000000E-002    -1.3875325863433726E-004
  -1.5449999999999998E-002    -1.4081386987666652E-004
  -1.5400000000000000E-002    -1.4289677800621077E-004
  -1.5349999999999999E-002    -1.4500215581467248E-004
  -1.5300000000000001E-002    -1.4713021380746417E-004
  -1.5250000000000000E-002    -1.4928105602364275E-004
  -1.5199999999999998E-002    -1.5145469023145064E-004
  -1.5150000000000000E-002    -1.5365109245982353E-004
  -1.5099999999999999E-002    -1.5587023831837115E-004
  -1.5050000000000001E-002    -1.5811218037146475E-004
  -1.4999999999999999E-002    -1.6037704303938416E-004
  -1.4949999999999998E-002    -1.6266498866830757E-004
  -1.4900000000000000E-002    -1.6497611527122112E-004
  -1.4849999999999999E-002    -1.6731045177586354E-004
  -1.4800000000000001E-002    -1.6966796582127346E-004
  -1.4749999999999999E-002    -1.7204859210717159E-004
  -1.4700000000000001E-002    -1.7445233375000513E-004
  -1.4650000000000000E-002    -1.7687925874431182E-004
  -1.4599999999999998E-002    -1.7932947539886745E-004
  -1.4550000000000000E-002    -1.8180306312873506E-004
  -1.4499999999999999E-002    -1.8430009089187278E-004
  -1.4450000000000001E-002    -1.8682051387887021E-004
  -1.4400000000000000E-002    -1.8936425135723296E-004
  -1.4349999999999998E-002    -1.9193124579790715E-004
  -1.4300000000000000E-002    -1.9452149275750821E-004
  -1.4249999999999999E-002    -1.9713500589643262E-004
  -1.4200000000000001E-002    -1.9977186066973070E-004
  -1.4149999999999999E-002    -2.0243208334550699E-004
  -1.4099999999999998E-002    -2.0511564172229571E-004
  -1.4050000000000000E-002    -2.0782243720063526E-004
  -1.3999999999999999E-002    -2.1055238294817564E-004
  -1.3950000000000001E-002    -2.1330537558981094E-004
  -1.3899999999999999E-002    -2.1608142892102621E-004
  -1.3850000000000001E-002    -2.1888053518173559E-004
  -1.3800000000000000E-002    -2.2170270699078265E-004
  -1.3749999999999998E-002    -2.2454789457658806E-004
  -1.3700000000000000E-002    -2.2741599337388794E-004
  -1.3649999999999999E-002    -2.3030685986359190E-004
  -1.3600000000000001E-002    -2.3322040274727506E-004
  -1.3550000000000000E-002    -2.3615655547517248E-004
  -1.3499999999999998E-002    -2.3911522433726256E-004
  -1.3450000000000000E-002    -2.4209639917149449E-004
  -1.3399999999999999E-002    -2.4509995578870337E-004
  -1.3350000000000001E-002    -2.4812573176242450E-004
  -1.3299999999999999E-002    -2.5117360535232734E-004
  -1.3249999999999998E-002    -2.5424344097323717E-004
  -1.3200000000000000E-002    -2.5733505452145373E-004
  -1.3149999999999998E-002    -2.6044838654969019E-004
  -1.3100000000000001E-002    -2.6358328516341454E-004
  -1.3049999999999999E-002    -2.6673966455695921E-004
  -1.3000000000000001E-002    -2.6991730706633530E-004
  -1.2950000000000000E-002    -2.7311603234850235E-004
  -1.2899999999999998E-002    -2.7633559252143697E-004
  -1.2850000000000000E-002    -2.7957579410176433E-004
  -1.2799999999999999E-002    -2.8283654482570328E-004