  -4.0000000000000001E-002     0.0000000000000000     
  -3.9949999999999999E-002     0.0000000000000000     
  -3.9899999999999998E-002     0.0000000000000000     
  -3.9850000000000003E-002     0.0000000000000000     
  -3.9800000000000002E-002     0.0000000000000000     
  -3.9750000000000001E-002     0.0000000000000000     
  -3.9699999999999999E-002     0.0000000000000000     
  -3.9649999999999998E-002     0.0000000000000000     
  -3.9600000000000003E-002     0.0000000000000000     
  -3.9550000000000002E-002     0.0000000000000000     
  -3.9500000000000000E-002     0.0000000000000000     
  -3.9449999999999999E-002     0.0000000000000000     
  -3.9399999999999998E-002     0.0000000000000000     
  -3.9350000000000003E-002     0.0000000000000000     
  -3.9300000000000002E-002     0.0000000000000000     
  -3.9250000000000000E-002     0.0000000000000000     
  -3.9199999999999999E-002     0.0000000000000000     
  -3.9150000000000004E-002     0.0000000000000000     
  -3.9100000000000003E-002     0.0000000000000000     
  -3.9050000000000001E-002     0.0000000000000000     
  -3.9000000000000000E-002     0.0000000000000000     
  -3.8949999999999999E-002     0.0000000000000000     
  -3.8900000000000004E-002     0.0000000000000000     
  -3.8850000000000003E-002     0.0000000000000000     
  -3.8800000000000001E-002     0.0000000000000000     
  -3.8750000000000000E-002     0.0000000000000000     
  -3.8699999999999998E-002     0.0000000000000000     
  -3.8650000000000004E-002     0.0000000000000000     
  -3.8600000000000002E-002     0.0000000000000000     
  -3.8550000000000001E-002     0.0000000000000000     
  -3.8500000000000000E-002     0.0000000000000000     
  -3.8449999999999998E-002     0.0000000000000000     
  -3.8400000000000004E-002     0.0000000000000000     
  -3.8350000000000002E-002     0.0000000000000000     
  -3.8300000000000001E-002     0.0000000000000000     
  -3.8249999999999999E-002     0.0000000000000000     
  -3.8199999999999998E-002     0.0000000000000000     
  -3.8150000000000003E-002     0.0000000000000000     
  -3.8100000000000002E-002     0.0000000000000000     
  -3.8050000000000000E-002     0.0000000000000000     
  -3.7999999999999999E-002     0.0000000000000000     
  -3.7949999999999998E-002     0.0000000000000000     
  -3.7900000000000003E-002     0.0000000000000000     
  -3.7850000000000002E-002     0.0000000000000000     
  -3.7800000000000000E-002     0.0000000000000000     
  -3.7749999999999999E-002     0.0000000000000000     
  -3.7699999999999997E-002     0.0000000000000000     
  -3.7650000000000003E-002     0.0000000000000000     
  -3.7600000000000001E-002     0.0000000000000000     
  -3.7550000000000000E-002     0.0000000000000000     
  -3.7499999999999999E-002    -7.9586838483341389E-040
  -3.7449999999999997E-002    -2.2982035154000247E-039
  -3.7400000000000003E-002    -2.5438258453337943E-039
  -3.7350000000000001E-002     3.2792568644223578E-039
  -3.7300000000000000E-002     2.3698928178633437E-038
  -3.7249999999999998E-002     4.8991355860962489E-038
  -3.7200000000000004E-002     5.4094952769616464E-038
  -3.7150000000000002E-002    -5.5135874665887289E-039
  -3.7100000000000001E-002    -1.3168889096267743E-037
  -3.7050000000000000E-002    -3.5309715548162439E-037
  -3.6999999999999998E-002    -6.0807940121954341E-037
  -3.6950000000000004E-002    -6.6118099568376782E-037
  -3.6900000000000002E-002    -6.6272129222939127E-038
  -3.6850000000000001E-002     1.6714560877754686E-036
  -3.6799999999999999E-002     4.6087976336942034E-036
  -3.6749999999999998E-002     7.5776737800949319E-036
  -3.6700000000000003E-002     7.5310063240507975E-036
  -3.6650000000000002E-002    -5.0917379198513928E-038
  -3.6600000000000001E-002    -1.8586183973705030E-035
  -3.6549999999999999E-002    -4.5342684846823370E-035
  -3.6499999999999998E-002    -6.5896182412015649E-035
  -3.6450000000000003E-002    -5.3258668845753920E-035
  -3.6400000000000002E-002     2.1438997865846039E-035
  -3.6350000000000000E-002     1.6340185373735257E-034
  -3.6299999999999999E-002     3.2202320687953766E-034
  -3.6249999999999998E-002     3.7701626764369917E-034
  -3.6200000000000003E-002     1.7725476649338685E-034
  -3.6150000000000002E-002    -3.4928867908125860E-034
  -3.6100000000000000E-002    -1.0492634317567536E-033
  -3.6049999999999999E-002    -1.4701348981196008E-033
  -3.6000000000000004E-002    -1.0061979759163165E-033
  -3.5950000000000003E-002     6.6323855641256352E-034
  -3.5900000000000001E-002     2.9970573207602620E-033
  -3.5850000000000000E-002     4.3222939196124064E-033
  -3.5799999999999998E-002     2.4353611443292792E-033
  -3.5750000000000004E-002    -3.7034313414664699E-033
  -3.5700000000000003E-002    -1.1847647899700480E-032
  -3.5650000000000001E-002    -1.5612962631900812E-032
  -3.5600000000000000E-002    -6.8621658026804764E-033
  -3.5549999999999998E-002     1.8141147926394842E-032
  -3.5500000000000004E-002     5.1449007866574686E-032
  -3.5450000000000002E-002     7.0888428211905843E-032
  -3.5400000000000001E-002     4.8317996429741749E-032
  -3.5349999999999999E-002    -3.0735828435538219E-032
  -3.5299999999999998E-002    -1.4566221735295588E-031
  -3.5250000000000004E-002    -2.3569543194960382E-031
  -3.5200000000000002E-002    -2.2653432649487876E-031
  -3.5150000000000001E-002    -8.4150594564132990E-032
  -3.5099999999999999E-002     1.3855302874788297E-031
  -3.5049999999999998E-002     3.1355397542443108E-031
  -3.5000000000000003E-002     3.3569573539819799E-031
  -3.4950000000000002E-002     2.6235401217390765E-031
  -3.4900000000000000E-002     3.6576931474775563E-031
  -3.4849999999999999E-002     9.5192775931754472E-031
  -3.4799999999999998E-002     1.9276889291339334E-030
  -3.4750000000000003E-002     2.3646479256328574E-030
  -3.4700000000000002E-002     5.5987359555010141E-031
  -3.4650000000000000E-002    -4.9427423598921778E-030
  -3.4599999999999999E-002    -1.3452741725591255E-029
  -3.4549999999999997E-002    -2.0403002683810571E-029
  -3.4500000000000003E-002    -1.7651267638029199E-029
  -3.4450000000000001E-002     2.5674162789032383E-030
  -3.4400000000000000E-002     4.0376644400727145E-029
  -3.4349999999999999E-002     8.1306655261829171E-029
  -3.4299999999999997E-002     9.5987744363938897E-029
  -3.4250000000000003E-002     5.2101321030302789E-029
  -3.4200000000000001E-002    -6.1941255360820904E-029
  -3.4150000000000000E-002    -2.1241762232173513E-028
  -3.4099999999999998E-002    -3.1430202425175783E-028
  -3.4049999999999997E-002    -2.6187347940445904E-028
  -3.4000000000000002E-002     3.5540256589081249E-030
  -3.3950000000000001E-002     4.1814832304697376E-028
  -3.3900000000000000E-002     7.6752762101546720E-028
  -3.3849999999999998E-002     7.5910793155347363E-028
  -3.3799999999999997E-002     2.0086405359324140E-028
  -3.3750000000000002E-002    -7.8931022618754831E-028
  -3.3700000000000001E-002    -1.6915770397109777E-027
  -3.3649999999999999E-002    -1.7548990152772753E-027
  -3.3599999999999998E-002    -4.5439621333038643E-028
  -3.3550000000000003E-002     1.9562867116987841E-027
  -3.3500000000000002E-002     4.1814525584973367E-027
  -3.3450000000000001E-002     4.2924144496573515E-027
  -3.3399999999999999E-002     8.8514247984381795E-028
  -3.3349999999999998E-002    -5.4885998700518168E-027
  -3.3300000000000003E-002    -1.1588498086514553E-026
  -3.3250000000000002E-002    -1.2436965107989762E-026
  -3.3200000000000000E-002    -4.1806662114244641E-027
  -3.3149999999999999E-002     1.2285198946290325E-026
  -3.3099999999999997E-002     2.9326091818343468E-026
  -3.3050000000000003E-002     3.4672360727682710E-026
  -3.3000000000000002E-002     1.8245407492961052E-026
  -3.2950000000000000E-002    -1.9016007522667809E-026
  -3.2899999999999999E-002    -6.0116275568895607E-026
  -3.2850000000000004E-002    -7.6745458322431065E-026
  -3.2800000000000003E-002    -4.5402495296708332E-026
  -3.2750000000000001E-002     3.1598354629588850E-026
  -3.2700000000000000E-002     1.1421806449558039E-025
  -3.2649999999999998E-002     1.3650884255947233E-025
  -3.2600000000000004E-002     4.6273933821605759E-026
  -3.2550000000000003E-002    -1.4303090622735932E-025
  -3.2500000000000001E-002    -3.2251977447732814E-025
  -3.2450000000000000E-002    -3.1736368936378802E-025
  -3.2399999999999998E-002     1.1648931756286779E-026
  -3.2350000000000004E-002     6.2978961049694083E-025
  -3.2300000000000002E-002     1.2375605705246026E-024
  -3.2250000000000001E-002     1.3254276158500959E-024
  -3.2199999999999999E-002     4.2149914392515634E-025
  -3.2149999999999998E-002    -1.5336968583809073E-024
  -3.2100000000000004E-002    -3.8791925453567219E-024
  -3.2050000000000002E-002    -5.2464254687234806E-024
  -3.2000000000000001E-002    -4.0631913676804892E-024
  -3.1949999999999999E-002     5.2346333456188112E-025
  -3.1899999999999998E-002     7.6920373467730824E-024
  -3.1850000000000003E-002     1.4557325814220217E-023
  -3.1800000000000002E-002     1.6868694463708162E-023
  -3.1750000000000000E-002     1.0874484791913733E-023
  -3.1699999999999999E-002    -4.2523522722095838E-024
  -3.1649999999999998E-002    -2.4626023538960681E-023
  -3.1600000000000003E-002    -4.1796150391791432E-023
  -3.1550000000000002E-002    -4.5492164405156440E-023
  -3.1500000000000000E-002    -2.8366342605528369E-023
  -3.1449999999999999E-002     9.1931477657284204E-024
  -3.1399999999999997E-002     5.6745205310411113E-023
  -3.1350000000000003E-002     9.5900467051488467E-023
  -3.1300000000000001E-002     1.0687277983013059E-022
  -3.1250000000000000E-002     7.7128867641195945E-023
  -3.1199999999999999E-002     8.2231363707699665E-024
  -3.1150000000000001E-002    -8.2748463266143851E-023
  -3.1100000000000003E-002    -1.6821052544102734E-022
  -3.1050000000000001E-002    -2.1942096228747810E-022
  -3.1000000000000000E-002    -2.1539956119809931E-022
  -3.0949999999999998E-002    -1.4726447963424504E-022
  -3.0900000000000000E-002    -1.7221400515084904E-023
  -3.0850000000000002E-002     1.6401630019755189E-022
  -3.0800000000000001E-002     3.7539641075026779E-022
  -3.0750000000000000E-002     5.7628695113022840E-022
  -3.0699999999999998E-002     6.9488016870640204E-022
  -3.0650000000000000E-002     6.2813071449957573E-022
  -3.0600000000000002E-002     2.6957938365019792E-022
  -3.0550000000000001E-002    -4.2856563299021703E-022
  -3.0499999999999999E-002    -1.3751174276463584E-021
  -3.0449999999999998E-002    -2.2831828028887058E-021
  -3.0400000000000000E-002    -2.6917527883599345E-021
  -3.0350000000000002E-002    -2.1044717473303094E-021
  -3.0300000000000001E-002    -2.3463520770587073E-022
  -3.0249999999999999E-002     2.7242770320750578E-021
  -3.0200000000000001E-002     5.9402925383980361E-021
  -3.0150000000000000E-002     8.0394716583135770E-021
  -3.0100000000000002E-002     7.5267966106732261E-021
  -3.0050000000000000E-002     3.4583373997357346E-021
  -2.9999999999999999E-002    -3.8700541114515792E-021
  -2.9950000000000001E-002    -1.2553385565206655E-020
  -2.9899999999999999E-002    -1.9329050536807704E-020
  -2.9850000000000002E-002    -2.0552557370355164E-020
  -2.9800000000000000E-002    -1.3686448894545473E-020
  -2.9749999999999999E-002     1.2178373368304676E-021
  -2.9700000000000001E-002     2.0716616385638136E-020
  -2.9650000000000003E-002     3.8398645241129594E-020
  -2.9600000000000001E-002     4.6682032632646383E-020
  -2.9550000000000000E-002     3.9562473499207445E-020
  -2.9499999999999998E-002     1.5391961074578786E-020
  -2.9450000000000000E-002    -2.1430602226825140E-020
  -2.9400000000000003E-002    -6.0733532475962183E-020
  -2.9350000000000001E-002    -8.9048726602485330E-020
  -2.9300000000000000E-002    -9.3716414937964386E-020
  -2.9249999999999998E-002    -6.7381877748381439E-020
  -2.9200000000000000E-002    -1.1408842958174357E-020
  -2.9150000000000002E-002     6.2985054025619735E-020
  -2.9100000000000001E-002     1.3639095940744953E-019
  -2.9049999999999999E-002     1.8540738618450117E-019
  -2.8999999999999998E-002     1.8850736598748676E-019
  -2.8950000000000000E-002     1.3241180670407891E-019
  -2.8900000000000002E-002     1.7744623305889560E-020
  -2.8850000000000001E-002    -1.3728828852131020E-019
  -2.8799999999999999E-002    -2.9657944993579951E-019
  -2.8749999999999998E-002    -4.1062312023461321E-019
  -2.8700000000000000E-002    -4.2690998726740033E-019
  -2.8650000000000002E-002    -3.0591901217466702E-019
  -2.8600000000000000E-002    -3.9934952771409258E-020
  -2.8549999999999999E-002     3.3108252790966385E-019
  -2.8500000000000001E-002     7.1448851235331137E-019
  -2.8450000000000000E-002     9.7820217428628124E-019
  -2.8400000000000002E-002     9.8519158983030402E-019
  -2.8350000000000000E-002     6.4408015491161063E-019
  -2.8299999999999999E-002    -3.8676869337836219E-020
  -2.8250000000000001E-002    -9.2630584886408685E-019
  -2.8200000000000003E-002    -1.7598253545458141E-018
  -2.8150000000000001E-002    -2.2177094786606709E-018
  -2.8100000000000000E-002    -2.0197481883899537E-018
  -2.8049999999999999E-002    -1.0466622079200442E-018
  -2.8000000000000001E-002     5.6817792334321041E-019
  -2.7950000000000003E-002     2.4194613566091843E-018
  -2.7900000000000001E-002     3.9099041316149924E-018
  -2.7850000000000000E-002     4.4229546312241467E-018
  -2.7799999999999998E-002     3.5432669267687836E-018
  -2.7750000000000000E-002     1.2514756450793435E-018
  -2.7700000000000002E-002    -1.9849628438802401E-018
  -2.7650000000000001E-002    -5.2778857991957965E-018
  -2.7600000000000000E-002    -7.5446473978223088E-018
  -2.7549999999999998E-002    -7.8392921741515608E-018
  -2.7500000000000000E-002    -5.6885234013836226E-018
  -2.7450000000000002E-002    -1.3192161384270700E-018
  -2.7400000000000001E-002     4.3095315964580536E-018
  -2.7349999999999999E-002     9.6988079491526163E-018
  -2.7299999999999998E-002     1.3185980946612320E-017
  -2.7250000000000000E-002     1.3406590590959336E-017
  -2.7200000000000002E-002     9.7181935951584873E-018
  -2.7150000000000001E-002     2.4729762405660697E-018
  -2.7099999999999999E-002    -6.9353489556471256E-018
  -2.7049999999999998E-002    -1.6274878934397269E-017
  -2.7000000000000000E-002    -2.2907106715512702E-017
  -2.6950000000000002E-002    -2.4387529904224029E-017
  -2.6900000000000000E-002    -1.9143277823242239E-017
  -2.6849999999999999E-002    -7.1001874251937942E-018
  -2.6800000000000001E-002     9.9054227071007584E-018
  -2.6749999999999999E-002     2.8115448500151057E-017
  -2.6700000000000002E-002     4.2395631375568851E-017
  -2.6650000000000000E-002     4.7386219594562701E-017
  -2.6599999999999999E-002     3.9113668847715536E-017
  -2.6550000000000001E-002     1.6684401978313375E-017
  -2.6500000000000003E-002    -1.6507853348200829E-017
  -2.6450000000000001E-002    -5.2664943380306641E-017
  -2.6400000000000000E-002    -8.0960783476291614E-017
  -2.6349999999999998E-002    -9.0375516357536848E-017
  -2.6300000000000000E-002    -7.3380168415295257E-017
  -2.6250000000000002E-002    -2.9361218449117456E-017
  -2.6200000000000001E-002     3.3528366300279841E-017
  -2.6150000000000000E-002     9.9143457571755097E-017
  -2.6099999999999998E-002     1.4706256834625364E-016
  -2.6050000000000000E-002     1.5854036979009485E-016
  -2.6000000000000002E-002     1.2303306429914199E-016
  -2.5950000000000001E-002     4.3122929800715962E-017
  -2.5899999999999999E-002    -6.4117706062608570E-017
  -2.5849999999999998E-002    -1.7031823442558129E-016
  -2.5800000000000000E-002    -2.4310367844909189E-016
  -2.5750000000000002E-002    -2.5558754395114891E-016
  -2.5700000000000001E-002    -1.9524219266385052E-016
  -2.5649999999999999E-002    -6.9306296202039759E-017
  -2.5599999999999998E-002     9.5181349915857906E-017
  -2.5550000000000000E-002     2.5705646687544780E-016
  -2.5500000000000002E-002     3.7106044374652115E-016
  -2.5450000000000000E-002     3.9963944030781286E-016
  -2.5399999999999999E-002     3.2349343605236478E-016
  -2.5349999999999998E-002     1.4827157508871708E-016
  -2.5300000000000000E-002    -9.4197743421559001E-017
  -2.5250000000000002E-002    -3.5057733886853336E-016
  -2.5200000000000000E-002    -5.5598718693439768E-016
  -2.5149999999999999E-002    -6.4785382023731201E-016
  -2.5100000000000001E-002    -5.8154518668633448E-016
  -2.5049999999999999E-002    -3.4498247463209547E-016
  -2.5000000000000001E-002     3.1281379833288236E-017
  -2.4950000000000000E-002     4.7235242158465751E-016
  -2.4899999999999999E-002     8.6884102918619309E-016
  -2.4850000000000001E-002     1.0992898188342957E-015
  -2.4800000000000003E-002     1.0625252497535904E-015
  -2.4750000000000001E-002     7.1285883663614744E-016
  -2.4700000000000000E-002     8.7509546730823342E-017
  -2.4649999999999998E-002    -6.8518151863266517E-016
  -2.4600000000000000E-002    -1.4048444190896490E-015
  -2.4550000000000002E-002    -1.8461073294174223E-015
  -2.4500000000000001E-002    -1.8243446884547200E-015
  -2.4450000000000000E-002    -1.2620240423021022E-015
  -2.4399999999999998E-002    -2.3328564601220935E-016
  -2.4350000000000000E-002     1.0324935820204803E-015
  -2.4299999999999999E-002     2.1966349580316933E-015
  -2.4250000000000001E-002     2.8993708018576628E-015
  -2.4199999999999999E-002     2.8675514205893406E-015
  -2.4150000000000001E-002     2.0094210295649787E-015
  -2.4100000000000000E-002     4.6454651741481906E-016
  -2.4049999999999998E-002    -1.4115013290331012E-015
  -2.4000000000000000E-002    -3.1287557412372261E-015
  -2.3949999999999999E-002    -4.1908871026857293E-015
  -2.3900000000000001E-002    -4.2344401801219013E-015
  -2.3850000000000000E-002    -3.1395492818123977E-015
  -2.3800000000000002E-002    -1.0801494419292549E-015
  -2.3750000000000000E-002     1.5011866364306084E-015
  -2.3699999999999999E-002     3.9881432487485861E-015
  -2.3650000000000001E-002     5.7322145435083272E-015
  -2.3599999999999999E-002     6.2080473941461654E-015
  -2.3550000000000001E-002     5.1486501685259335E-015
  -2.3500000000000000E-002     2.6322685516189453E-015
  -2.3449999999999999E-002    -8.9820646873555113E-016
  -2.3400000000000001E-002    -4.6924753825901689E-015
  -2.3349999999999999E-002    -7.8255244667556196E-015
  -2.3300000000000001E-002    -9.3923096230914455E-015
  -2.3250000000000000E-002    -8.7356055901994145E-015
  -2.3199999999999998E-002    -5.6611622991671351E-015
  -2.3150000000000000E-002    -5.8123767361056960E-016
  -2.3099999999999999E-002     5.4731673769631003E-015
  -2.3050000000000001E-002     1.1011601106192410E-014
  -2.3000000000000000E-002     1.4413633880980315E-014
  -2.2950000000000002E-002     1.4370934383739117E-014
  -2.2900000000000000E-002     1.0330485772078090E-014
  -2.2849999999999999E-002     2.7981710834386945E-015
  -2.2800000000000001E-002    -6.6244490496901567E-015
  -2.2749999999999999E-002    -1.5534883862713750E-014
  -2.2700000000000001E-002    -2.1321727644944144E-014
  -2.2650000000000000E-002    -2.1913831750911555E-014
  -2.2599999999999999E-002    -1.6471397371839593E-014
  -2.2550000000000001E-002    -5.7918959330601911E-015
  -2.2499999999999999E-002     7.7319906203342722E-015
  -2.2450000000000001E-002     2.0638195688112965E-014
  -2.2400000000000000E-002     2.9289327640325347E-014
  -2.2349999999999998E-002     3.0894101099807901E-014
  -2.2300000000000000E-002     2.4360299641694627E-014
  -2.2249999999999999E-002     1.0720437059739528E-014
  -2.2200000000000001E-002    -7.0098520932904490E-015
  -2.2150000000000000E-002    -2.4518428090542935E-014
  -2.2100000000000002E-002    -3.7252454278627192E-014
  -2.2050000000000000E-002    -4.1569927805823081E-014
  -2.1999999999999999E-002    -3.5696337571359299E-014
  -2.1950000000000001E-002    -2.0256063419774675E-014
  -2.1899999999999999E-002     1.7419775998242777E-015
  -2.1850000000000001E-002     2.5461366703258746E-014
  -2.1800000000000000E-002     4.5228455690176710E-014
  -2.1749999999999999E-002     5.5771613737127652E-014
  -2.1700000000000001E-002     5.3481370522508851E-014
  -2.1649999999999999E-002     3.7443872746205416E-014
  -2.1600000000000001E-002     1.0004858235431130E-014
  -2.1550000000000000E-002    -2.3338768438602412E-014
  -2.1499999999999998E-002    -5.4828208840924449E-014
  -2.1450000000000000E-002    -7.6062501235022784E-014
  -2.1399999999999999E-002    -8.0089949029241678E-014
  -2.1350000000000001E-002    -6.3505333755053608E-014
  -2.1299999999999999E-002    -2.7958859655058003E-014
  -2.1250000000000002E-002     1.9489032539479085E-014
  -2.1200000000000000E-002     6.7505607648983696E-014
  -2.1149999999999999E-002     1.0305640932200267E-013
  -2.1100000000000001E-002     1.1487862128983621E-013
  -2.1049999999999999E-002     9.6941970230597548E-014
  -2.1000000000000001E-002     5.0835500308977502E-014
  -2.0950000000000000E-002    -1.3795177853619967E-014
  -2.0899999999999998E-002    -8.1131108073189764E-014
  -2.0850000000000000E-002    -1.3306500799176969E-013
  -2.0799999999999999E-002    -1.5411165376270756E-013
  -2.0750000000000001E-002    -1.3596656715180821E-013
  -2.0700000000000000E-002    -8.0346604537396445E-014
  -2.0649999999999998E-002     8.1274702843495458E-016
  -2.0600000000000000E-002     8.7983473361382956E-014
  -2.0549999999999999E-002     1.5885911679964901E-013
  -2.0500000000000001E-002     1.9409005203945069E-013
  -2.0449999999999999E-002     1.8241709373724767E-013
  -2.0400000000000001E-002     1.2385980031984341E-013
  -2.0350000000000000E-002     3.0151526488922426E-014
  -2.0299999999999999E-002    -7.7675732918561062E-014
  -2.0250000000000001E-002    -1.7397399603873878E-013
  -2.0199999999999999E-002    -2.3436183106985388E-013
  -2.0150000000000001E-002    -2.4152449293357444E-013
  -2.0100000000000000E-002    -1.8969523276267526E-013
  -2.0049999999999998E-002    -8.6829931533350916E-014
  -2.0000000000000000E-002     4.6124425054678147E-014
  -1.9949999999999999E-002     1.7897506254162377E-013
  -1.9900000000000001E-002     2.7857969786324353E-013
  -1.9850000000000000E-002     3.1662372028282878E-013
  -1.9799999999999998E-002     2.7726646953395878E-013
  -1.9750000000000000E-002     1.6273644068394721E-013
  -1.9699999999999999E-002    -4.9302695711811942E-015
  -1.9650000000000001E-002    -1.8715188233924711E-013
  -1.9599999999999999E-002    -3.3702525183395177E-013
  -1.9550000000000001E-002    -4.1101902104688012E-013
  -1.9500000000000000E-002    -3.8133253769704433E-013
  -1.9449999999999999E-002    -2.4543618737620345E-013
  -1.9400000000000001E-002    -2.9618118888062425E-014
  -1.9349999999999999E-002     2.1526082937010858E-013
  -1.9300000000000001E-002     4.2545729302932014E-013
  -1.9250000000000000E-002     5.4082848940834401E-013
  -1.9199999999999998E-002     5.2174285861213509E-013
  -1.9150000000000000E-002     3.6155379849492300E-013
  -1.9099999999999999E-002     9.0745910148871946E-014
  -1.9050000000000001E-002    -2.2890684347364107E-013
  -1.9000000000000000E-002    -5.1899797995312646E-013
  -1.8949999999999998E-002    -7.0422269797344864E-013
  -1.8900000000000000E-002    -7.3194538094839138E-013
  -1.8849999999999999E-002    -5.8636482592628708E-013
  -1.8800000000000001E-002    -2.9352108435470324E-013
  -1.8749999999999999E-002     8.4142326622011932E-014
  -1.8700000000000001E-002     4.6224174484775809E-013
  -1.8650000000000000E-002     7.5432611802849571E-013
  -1.8599999999999998E-002     8.9237156999405284E-013
  -1.8550000000000001E-002     8.4313137742484912E-013
  -1.8499999999999999E-002     6.1663404844699696E-013
  -1.8450000000000001E-002     2.6486053029933289E-013
  -1.8400000000000000E-002    -1.2933917719944908E-013
  -1.8349999999999998E-002    -4.7105244802031779E-013
  -1.8300000000000000E-002    -6.7612046238938016E-013
  -1.8249999999999999E-002    -6.9310747234838229E-013
  -1.8200000000000001E-002    -5.1918933262207670E-013
  -1.8149999999999999E-002    -2.0538209479017485E-013
  -1.8100000000000002E-002     1.5163757434368172E-013
  -1.8050000000000000E-002     4.3094904830728055E-013
  -1.7999999999999999E-002     5.1835224166087962E-013
  -1.7950000000000001E-002     3.3993529905887746E-013
  -1.7899999999999999E-002    -1.1061590039465224E-013
  -1.7850000000000001E-002    -7.5950859831631169E-013
  -1.7800000000000000E-002    -1.4607368369766272E-012
  -1.7749999999999998E-002    -2.0248897312894291E-012
  -1.7700000000000000E-002    -2.2634077909334339E-012
  -1.7649999999999999E-002    -2.0377502148107169E-012
  -1.7600000000000001E-002    -1.3004841480184019E-012
  -1.7550000000000000E-002    -1.1654392616984934E-013
  -1.7499999999999998E-002     1.3422728850678090E-012
  -1.7450000000000000E-002     2.8293427268559317E-012
  -1.7399999999999999E-002     4.0741647548590120E-012
  -1.7350000000000001E-002     4.8392459440681510E-012
  -1.7299999999999999E-002     4.9682937850156965E-012
  -1.7250000000000001E-002     4.4136419413600037E-012
  -1.7200000000000000E-002     3.2368024674220832E-012
  -1.7149999999999999E-002     1.5835627876741059E-012
  -1.7100000000000001E-002    -3.5810892237984458E-013
  -1.7049999999999999E-002    -2.4047727729006213E-012
  -1.7000000000000001E-002    -4.4155667842700985E-012
  -1.6950000000000000E-002    -6.3110770021759084E-012
  -1.6899999999999998E-002    -8.0677588717071577E-012
  -1.6850000000000000E-002    -9.6888580064288259E-012
  -1.6799999999999999E-002    -1.1158487380451308E-011
  -1.6750000000000001E-002    -1.2389620749358489E-011
  -1.6700000000000000E-002    -1.3178607088551499E-011
  -1.6649999999999998E-002    -1.3178275508539906E-011
  -1.6600000000000000E-002    -1.1898855420856335E-011
  -1.6549999999999999E-002    -8.7410790067656342E-012
  -1.6500000000000001E-002    -3.0595277688729431E-012
  -1.6449999999999999E-002     5.7525924188036199E-012
  -1.6400000000000001E-002     1.8172230997847565E-011
  -1.6350000000000000E-002     3.4467511910802423E-011
  -1.6299999999999999E-002     5.4649575195986410E-011
  -1.6250000000000001E-002     7.8468870903108861E-011
  -1.6199999999999999E-002     1.0546027996906121E-010
  -1.6150000000000001E-002     1.3502978165137722E-010
  -1.6100000000000000E-002     1.6656387886490402E-010
  -1.6049999999999998E-002     1.9953606972906819E-010
  -1.6000000000000000E-002     2.3358409025812637E-010
  -1.5949999999999999E-002     2.6853852390952400E-010
  -1.5900000000000001E-002     3.0439654920529692E-010
  -1.5850000000000000E-002     3.4125024894507936E-010
  -1.5799999999999998E-002     3.7919243070985598E-010
  -1.5750000000000000E-002     4.1822940883918133E-010
  -1.5699999999999999E-002     4.5822901170294993E-010
  -1.5650000000000001E-002     4.9892106437555666E-010
  -1.5599999999999999E-002     5.3995200299428328E-010
  -1.5550000000000001E-002     5.8097884112157109E-010
  -1.5500000000000000E-002     6.2177546956793522E-010
  -1.5449999999999998E-002     6.6232059128134349E-010
  -1.5400000000000000E-002     7.0284034269433456E-010
  -1.5349999999999999E-002     7.4379168135953607E-010
  -1.5300000000000001E-002     7.8578729283506793E-010
  -1.5250000000000000E-002     8.2947849931647921E-010
  -1.5199999999999998E-002     8.7542260160866515E-010
  -1.5150000000000000E-002     9.2396368449902588E-010
  -1.5099999999999999E-002     9.7515462580234008E-010
  -1.5050000000000001E-002     1.0287368255085578E-009
  -1.4999999999999999E-002     1.0841843202543676E-009
  -1.4949999999999998E-002     1.1408035523409029E-009
  -1.4900000000000000E-002     1.1978713189193791E-009
  -1.4849999999999999E-002     1.2547833451099075E-009
  -1.4800000000000001E-002     1.3111838076961842E-009
  -1.4749999999999999E-002     1.3670471254005023E-009
  -1.4700000000000001E-002     1.4226917337229175E-009
  -1.4650000000000000E-002     1.4787207424762092E-009
  -1.4599999999999998E-002     1.5358968304488365E-009
  -1.4550000000000000E-002     1.5949794615162883E-009
  -1.4499999999999999E-002     1.6565603587894243E-009
  -1.4450000000000001E-002     1.7209394990128227E-009
  -1.4400000000000000E-002     1.7880741065177226E-009
  -1.4349999999999998E-002     1.8576169015598934E-009
  -1.4300000000000000E-002     1.9290367108898005E-009
  -1.4249999999999999E-002     2.0017895053854183E-009
  -1.4200000000000001E-002     2.0754960538608598E-009
  -1.4149999999999999E-002     2.1500718362804299E-009
  -1.4099999999999998E-002     2.2257756528397710E-009
  -1.4050000000000000E-002     2.3031578707542696E-009
  -1.3999999999999999E-002     2.3829236721042758E-009
  -1.3950000000000001E-002     2.4657475733890568E-009
  -1.3899999999999999E-002     2.5520948341701841E-009
  -1.3850000000000001E-002     2.6420998991564232E-009
  -1.3800000000000000E-002     2.7355377105913739E-009
  -1.3749999999999998E-002     2.8318987236463393E-009
  -1.3700000000000000E-002     2.9305464140325716E-009
  -1.3649999999999999E-002     3.0309138258224154E-009
  -1.3600000000000001E-002     3.1326887879930936E-009
  -1.3550000000000000E-002     3.2359351871566926E-009
  -1.3499999999999998E-002     3.3411206315210030E-009
  -1.3450000000000000E-002     3.4490403516002897E-009
  -1.3399999999999999E-002     3.5606558749921901E-009
  -1.3350000000000001E-002     3.6768877705025998E-009
  -1.3299999999999999E-002     3.7984083617333707E-009
  -1.3249999999999998E-002     3.9254833282816879E-009
  -1.3200000000000000E-002     4.0579011678769080E-009
  -1.3149999999999998E-002     4.1950047179124691E-009
  -1.3100000000000001E-002     4.3358229918093483E-009
  -1.3049999999999999E-002     4.4792813675856806E-009
  -1.3000000000000001E-002     4.6244415259597614E-009
  -1.2950000000000000E-002     4.7707264880959551E-009
  -1.2899999999999998E-002     4.9180776408369495E-009
  -1.2850000000000000E-002     5.0670083791684077E-009
  -1.2799999999999999E-002     5.2185349228526049E-009