  -4.0000000000000001E-002     0.0000000000000000     
  -3.9949999999999999E-002     0.0000000000000000     
  -3.9899999999999998E-002     0.0000000000000000     
  -3.9850000000000003E-002     0.0000000000000000     
  -3.9800000000000002E-002     0.0000000000000000     
  -3.9750000000000001E-002     0.0000000000000000     
  -3.9699999999999999E-002     0.0000000000000000     
  -3.9649999999999998E-002     0.0000000000000000     
  -3.9600000000000003E-002     0.0000000000000000     
  -3.9550000000000002E-002     0.0000000000000000     
  -3.9500000000000000E-002     0.0000000000000000     
  -3.9449999999999999E-002     0.0000000000000000     
  -3.9399999999999998E-002     0.0000000000000000     
  -3.9350000000000003E-002     0.0000000000000000     
  -3.9300000000000002E-002     0.0000000000000000     
  -3.9250000000000000E-002     0.0000000000000000     
  -3.9199999999999999E-002     0.0000000000000000     
  -3.9150000000000004E-002     0.0000000000000000     
  -3.9100000000000003E-002     0.0000000000000000     
  -3.9050000000000001E-002     0.0000000000000000     
  -3.9000000000000000E-002     0.0000000000000000     
  -3.8949999999999999E-002     0.0000000000000000     
  -3.8900000000000004E-002     0.0000000000000000     
  -3.8850000000000003E-002     0.0000000000000000     
  -3.8800000000000001E-002     0.0000000000000000     
  -3.8750000000000000E-002     0.0000000000000000     
  -3.8699999999999998E-002     0.0000000000000000     
  -3.8650000000000004E-002     0.0000000000000000     
  -3.8600000000000002E-002     0.0000000000000000     
  -3.8550000000000001E-002     0.0000000000000000     
  -3.8500000000000000E-002     0.0000000000000000     
  -3.8449999999999998E-002     0.0000000000000000     
  -3.8400000000000004E-002     0.0000000000000000     
  -3.8350000000000002E-002     0.0000000000000000     
  -3.8300000000000001E-002     0.0000000000000000     
  -3.8249999999999999E-002     0.0000000000000000     
  -3.8199999999999998E-002     0.0000000000000000     
  -3.8150000000000003E-002     0.0000000000000000     
  -3.8100000000000002E-002     0.0000000000000000     
  -3.8050000000000000E-002     0.0000000000000000     
  -3.7999999999999999E-002     0.0000000000000000     
  -3.7949999999999998E-002     0.0000000000000000     
  -3.7900000000000003E-002     0.0000000000000000     
  -3.7850000000000002E-002     0.0000000000000000     
  -3.7800000000000000E-002     0.0000000000000000     
  -3.7749999999999999E-002     1.0312017460330709E-039
  -3.7699999999999997E-002     2.5674883931544234E-039
  -3.7650000000000003E-002     0.0000000000000000     
  -3.7600000000000001E-002    -1.5928996511750383E-038
  -3.7550000000000000E-002    -3.9481687723851640E-038
  -3.7499999999999999E-002    -1.0240768666755543E-037
  -3.7449999999999997E-002    -2.0507733039449259E-037
  -3.7400000000000003E-002    -3.1153497791880044E-037
  -3.7350000000000001E-002    -2.5215189438951886E-037
  -3.7300000000000000E-002     3.1267057122975112E-037
  -3.7249999999999998E-002     1.7725567659788829E-036
  -3.7200000000000004E-002     4.1406404478137692E-036
  -3.7150000000000002E-002     6.3240994363599638E-036
  -3.7100000000000001E-002     5.4346343743781588E-036
  -3.7050000000000000E-002    -3.0210623031793289E-036
  -3.6999999999999998E-002    -2.2989721045801272E-035
  -3.6950000000000004E-002    -5.3131547392351033E-035
  -3.6900000000000002E-002    -8.0545017215006609E-035
  -3.6850000000000001E-002    -7.6643525237271582E-035
  -3.6799999999999999E-002    -1.2549848408068059E-036
  -3.6749999999999998E-002     1.7898058421932304E-034
  -3.6700000000000003E-002     4.5624427855117025E-034
  -3.6650000000000002E-002     7.3917587709975144E-034
  -3.6600000000000001E-002     8.2420261398701273E-034
  -3.6549999999999999E-002     4.1620119745242239E-034
  -3.6499999999999998E-002    -7.6002231874761776E-034
  -3.6450000000000003E-002    -2.7342157129204834E-033
  -3.6400000000000002E-002    -4.9924966999998997E-033
  -3.6350000000000000E-002    -6.2689774275704729E-033
  -3.6299999999999999E-002    -4.7238545014919315E-033
  -3.6249999999999998E-002     1.1863050434863674E-033
  -3.6200000000000003E-002     1.1161277767431811E-032
  -3.6150000000000002E-002     2.1595353042496963E-032
  -3.6100000000000000E-002     2.5822530674942751E-032
  -3.6049999999999999E-002     1.7748983930682123E-032
  -3.6000000000000004E-002    -1.3444883472120304E-033
  -3.5950000000000003E-002    -1.7127619216186857E-032
  -3.5900000000000001E-002    -6.0104588858341687E-033
  -3.5850000000000000E-002     4.4291071176932296E-032
  -3.5799999999999998E-002     1.0128569676575532E-031
  -3.5750000000000004E-002     6.5586014256203645E-032
  -3.5700000000000003E-002    -1.9899275577855211E-031
  -3.5650000000000001E-002    -7.5283157816516011E-031
  -3.5600000000000000E-002    -1.4114201083948784E-030
  -3.5549999999999998E-002    -1.6352060644894353E-030
  -3.5500000000000004E-002    -6.5445935547509722E-031
  -3.5450000000000002E-002     2.0557075968408211E-030
  -3.5400000000000001E-002     6.0712409578229022E-030
  -3.5349999999999999E-002     9.5386494561016170E-030
  -3.5299999999999998E-002     9.5455142559894543E-030
  -3.5250000000000004E-002     3.6719943165541474E-030
  -3.5200000000000002E-002    -7.8193530557439041E-030
  -3.5150000000000001E-002    -2.0741354381103593E-029
  -3.5099999999999999E-002    -2.8551037388434759E-029
  -3.5049999999999998E-002    -2.7151337611531084E-029
  -3.5000000000000003E-002    -2.0199778850596544E-029
  -3.4950000000000002E-002    -1.9173490402624688E-029
  -3.4900000000000000E-002    -3.2907611427274062E-029
  -3.4849999999999999E-002    -4.8103369346227597E-029
  -3.4799999999999998E-002    -1.4282854384051380E-029
  -3.4750000000000003E-002     1.4361446708762774E-028
  -3.4700000000000002E-002     4.6647408705073130E-028
  -3.4650000000000000E-002     8.6578987639875530E-028
  -3.4599999999999999E-002     1.0483073362857113E-027
  -3.4549999999999997E-002     5.5486399984179221E-028
  -3.4500000000000003E-002    -1.0054984596636188E-027
  -3.4450000000000001E-002    -3.5428022098548656E-027
  -3.4400000000000000E-002    -6.0805797583446246E-027
  -3.4349999999999999E-002    -6.6991829592396685E-027
  -3.4299999999999997E-002    -3.1722405670034141E-027
  -3.4250000000000003E-002     5.6311005088082664E-027
  -3.4200000000000001E-002     1.8040685207360767E-026
  -3.4150000000000000E-002     2.8610619990426817E-026
  -3.4099999999999998E-002     2.9103572046568662E-026
  -3.4049999999999997E-002     1.2078017724061042E-026
  -3.4000000000000002E-002    -2.3711611695687154E-026
  -3.3950000000000001E-002    -6.8652927039029303E-026
  -3.3900000000000000E-002    -1.0190611603018988E-025
  -3.3849999999999998E-002    -9.7962551121173738E-026
  -3.3799999999999997E-002    -3.9511639406867839E-026
  -3.3750000000000002E-002     6.8528805491963887E-026
  -3.3700000000000001E-002     1.9218713539961315E-025
  -3.3649999999999999E-002     2.7615666267273365E-025
  -3.3599999999999998E-002     2.6680171125049905E-025
  -3.3550000000000003E-002     1.4121267924412438E-025
  -3.3500000000000002E-002    -7.4479437222094785E-026
  -3.3450000000000001E-002    -3.1261596982532182E-025
  -3.3399999999999999E-002    -4.9848807611255560E-025
  -3.3349999999999998E-002    -5.9197709160842091E-025
  -3.3300000000000003E-002    -6.0238060049517387E-025
  -3.3250000000000002E-002    -5.5076915903803493E-025
  -3.3200000000000000E-002    -3.9092155773561877E-025
  -3.3149999999999999E-002     4.9770860764600865E-026
  -3.3099999999999997E-002     1.0196794617946553E-024
  -3.3050000000000003E-002     2.6265271704926850E-024
  -3.3000000000000002E-002     4.5092768599107623E-024
  -3.2950000000000000E-002     5.5999064449640229E-024
  -3.2899999999999999E-002     4.2662951676447596E-024
  -3.2850000000000004E-002    -9.5281423931315003E-025
  -3.2800000000000003E-002    -1.0112644887491500E-023
  -3.2750000000000001E-002    -2.0662395560001973E-023
  -3.2700000000000000E-002    -2.7163494138729885E-023
  -3.2649999999999998E-002    -2.2752122133391639E-023
  -3.2600000000000004E-002    -2.5086716518971340E-024
  -3.2550000000000003E-002     3.2268510179703052E-023
  -3.2500000000000001E-002     7.1052065678542507E-023
  -3.2450000000000000E-002     9.4902809503761157E-023
  -3.2399999999999998E-002     8.2666480439440798E-023
  -3.2350000000000004E-002     2.1624592031552762E-023
  -3.2300000000000002E-002    -8.1407985307417755E-023
  -3.2250000000000001E-002    -1.9461446250577242E-022
  -3.2199999999999999E-002    -2.6679005526478120E-022
  -3.2149999999999998E-002    -2.4546313722944062E-022
  -3.2100000000000004E-002    -1.0258312366714672E-022
  -3.2050000000000002E-002     1.4300470492487939E-022
  -3.2000000000000001E-002     4.1885497797900979E-022
  -3.1949999999999999E-002     6.1596993403420733E-022
  -3.1899999999999998E-002     6.2740905545912502E-022
  -3.1850000000000003E-002     3.9477091305150470E-022
  -3.1800000000000002E-002    -5.7774056490193986E-023
  -3.1750000000000000E-002    -6.1916627287348723E-022
  -3.1699999999999999E-002    -1.1212863833862783E-021
  -3.1649999999999998E-002    -1.3907019725451200E-021
  -3.1600000000000003E-002    -1.2992626775448822E-021
  -3.1550000000000002E-002    -7.9329498140375510E-022
  -3.1500000000000000E-002     1.0228066335569738E-022
  -3.1449999999999999E-002     1.2883088051635649E-021
  -3.1399999999999997E-002     2.5797461644385279E-021
  -3.1350000000000003E-002     3.6700825664077606E-021
  -3.1300000000000001E-002     4.1019941344045283E-021
  -3.1250000000000000E-002     3.3113407205432982E-021
  -3.1199999999999999E-002     8.1325551718509413E-022
  -3.1150000000000001E-002    -3.4602601563279909E-021
  -3.1100000000000003E-002    -8.7757589657264791E-021
  -3.1050000000000001E-002    -1.3389573525510035E-020
  -3.1000000000000000E-002    -1.4778782974300639E-020
  -3.0949999999999998E-002    -1.0467186708393555E-020
  -3.0900000000000000E-002     6.6900010034521482E-022
  -3.0850000000000002E-002     1.7078698762673669E-020
  -3.0800000000000001E-002     3.3912223387734440E-020
  -3.0750000000000000E-002     4.3776495177868804E-020
  -3.0699999999999998E-002     3.9119124941413544E-020
  -3.0650000000000000E-002     1.5740814616204117E-020
  -3.0600000000000002E-002    -2.3852220967782651E-020
  -3.0550000000000001E-002    -6.8961129410543962E-020
  -3.0499999999999999E-002    -1.0247345540152359E-019
  -3.0449999999999998E-002    -1.0619844368223813E-019
  -3.0400000000000000E-002    -6.8441054504834074E-020
  -3.0350000000000002E-002     8.9511972840644867E-021
  -3.0300000000000001E-002     1.0736670653977374E-019
  -3.0249999999999999E-002     1.9445356300375538E-019
  -3.0200000000000001E-002     2.3360660085805267E-019
  -3.0150000000000000E-002     1.9736125599635033E-019
  -3.0100000000000002E-002     7.9971272109313875E-020
  -3.0050000000000000E-002    -9.6008175387947248E-020
  -2.9999999999999999E-002    -2.8260210731094274E-019
  -2.9950000000000001E-002    -4.1886117635446249E-019
  -2.9899999999999999E-002    -4.4929115322559985E-019
  -2.9850000000000002E-002    -3.4230462806675190E-019
  -2.9800000000000000E-002    -1.0272236057312668E-019
  -2.9749999999999999E-002     2.2535333533366869E-019
  -2.9700000000000001E-002     5.6558813179003812E-019
  -2.9650000000000003E-002     8.2396915946483053E-019
  -2.9600000000000001E-002     9.0763653082338631E-019
  -2.9550000000000000E-002     7.4577257684174068E-019
  -2.9499999999999998E-002     3.1158812980685123E-019
  -2.9450000000000000E-002    -3.5610217829828432E-019
  -2.9400000000000003E-002    -1.1366557276220535E-018
  -2.9350000000000001E-002    -1.8266863804640181E-018
  -2.9300000000000000E-002    -2.1672674133822295E-018
  -2.9249999999999998E-002    -1.9081445850469298E-018
  -2.9200000000000000E-002    -9.0460300511916808E-019
  -2.9150000000000002E-002     7.7758939384286312E-019
  -2.9100000000000001E-002     2.7927638383010821E-018
  -2.9049999999999999E-002     4.5311665039020092E-018
  -2.8999999999999998E-002     5.2530633091007557E-018
  -2.8950000000000000E-002     4.3331169606560391E-018
  -2.8900000000000002E-002     1.5523428541708522E-018
  -2.8850000000000001E-002    -2.6712682901727295E-018
  -2.8799999999999999E-002    -7.2343684143311168E-018
  -2.8749999999999998E-002    -1.0563342164299701E-017
  -2.8700000000000000E-002    -1.1084893095362664E-017
  -2.8650000000000002E-002    -7.8319782860716416E-018
  -2.8600000000000000E-002    -9.7456526064006404E-019
  -2.8549999999999999E-002     7.9577327378590372E-018
  -2.8500000000000001E-002     1.6322298857864309E-017
  -2.8450000000000000E-002     2.1085142390516273E-017
  -2.8400000000000002E-002     1.9834369083432060E-017
  -2.8350000000000000E-002     1.1754397530319709E-017
  -2.8299999999999999E-002    -1.8082889958880635E-018
  -2.8250000000000001E-002    -1.7453490002974498E-017
  -2.8200000000000003E-002    -3.0555435407415762E-017
  -2.8150000000000001E-002    -3.6597828572680328E-017
  -2.8100000000000000E-002    -3.2606479081376770E-017
  -2.8049999999999999E-002    -1.8217624838991406E-017
  -2.8000000000000001E-002     3.9655746722522615E-018
  -2.7950000000000003E-002     2.8841452940944934E-017
  -2.7900000000000001E-002     4.9959720639616560E-017
  -2.7850000000000000E-002     6.1032915259652157E-017
  -2.7799999999999998E-002     5.7449031086976252E-017
  -2.7750000000000000E-002     3.7502778144553185E-017
  -2.7700000000000002E-002     3.1799859334379405E-018
  -2.7650000000000001E-002    -3.9604226124410702E-017
  -2.7600000000000000E-002    -8.1435783358061626E-017
  -2.7549999999999998E-002    -1.1068529943413110E-016
  -2.7500000000000000E-002    -1.1580689743894901E-016
  -2.7450000000000002E-002    -8.8581521249878366E-017
  -2.7400000000000001E-002    -2.7763743804659523E-017
  -2.7349999999999999E-002     5.7976362687206156E-017
  -2.7299999999999998E-002     1.4929559482720368E-016
  -2.7250000000000000E-002     2.1892107505438069E-016
  -2.7200000000000002E-002     2.3832299310945766E-016
  -2.7150000000000001E-002     1.8724373147007521E-016
  -2.7099999999999999E-002     6.3380021808605980E-017
  -2.7049999999999998E-002    -1.1152138373972823E-016
  -2.7000000000000000E-002    -2.9264918061570119E-016
  -2.6950000000000002E-002    -4.2186761059916212E-016
  -2.6900000000000000E-002    -4.4483586452490527E-016
  -2.6849999999999999E-002    -3.3085248013055992E-016
  -2.6800000000000001E-002    -8.8607037284059499E-017
  -2.6749999999999999E-002     2.2886380993642041E-016
  -2.6700000000000002E-002     5.3390905609940429E-016
  -2.6650000000000000E-002     7.2772705770328456E-016
  -2.6599999999999999E-002     7.3133901207119468E-016
  -2.6550000000000001E-002     5.1422393708209796E-016
  -2.6500000000000003E-002     1.1042185389396841E-016
  -2.6450000000000001E-002    -3.8465985001819582E-016
  -2.6400000000000000E-002    -8.3729579390914400E-016
  -2.6349999999999998E-002    -1.1121342397083315E-015
  -2.6300000000000000E-002    -1.1115233745097201E-015
  -2.6250000000000002E-002    -8.0549715125026584E-016
  -2.6200000000000001E-002    -2.4362656616739996E-016
  -2.6150000000000000E-002     4.5410274678502767E-016
  -2.6099999999999998E-002     1.1239329041752459E-015
  -2.6050000000000000E-002     1.5948059651385560E-015
  -2.6000000000000002E-002     1.7260139879110077E-015
  -2.5950000000000001E-002     1.4392169436540827E-015
  -2.5899999999999999E-002     7.4082844166745152E-016
  -2.5849999999999998E-002    -2.6749194171283434E-016
  -2.5800000000000000E-002    -1.3927737733598249E-015
  -2.5750000000000002E-002    -2.3730096511600937E-015
  -2.5700000000000001E-002    -2.9216616742726370E-015
  -2.5649999999999999E-002    -2.7942948245237803E-015
  -2.5599999999999998E-002    -1.8684396968584041E-015
  -2.5550000000000000E-002    -2.1649855131629866E-016
  -2.5500000000000002E-002     1.8569449116822392E-015
  -2.5450000000000000E-002     3.8414276086397382E-015
  -2.5399999999999999E-002     5.1247418137690427E-015
  -2.5349999999999998E-002     5.1633591946203959E-015
  -2.5300000000000000E-002     3.6773911061580559E-015
  -2.5250000000000002E-002     8.0584397960116945E-016
  -2.5200000000000000E-002    -2.8447081487052520E-015
  -2.5149999999999999E-002    -6.3011360327485527E-015
  -2.5100000000000001E-002    -8.4709588901704272E-015
  -2.5049999999999999E-002    -8.4769377211074641E-015
  -2.5000000000000001E-002    -5.9769599800372263E-015
  -2.4950000000000000E-002    -1.3553531466479277E-015
  -2.4899999999999999E-002     4.2988402191295111E-015
  -2.4850000000000001E-002     9.4462647023223108E-015
  -2.4800000000000003E-002     1.2524357179241929E-014
  -2.4750000000000001E-002     1.2421737438018970E-014
  -2.4700000000000000E-002     8.8490336370753616E-015
  -2.4649999999999998E-002     2.4819824835236323E-015
  -2.4600000000000000E-002    -5.1762810841149907E-015
  -2.4550000000000002E-002    -1.2176583740539680E-014
  -2.4500000000000001E-002    -1.6635148870810081E-014
  -2.4450000000000000E-002    -1.7226213062252624E-014
  -2.4399999999999998E-002    -1.3523053376862282E-014
  -2.4350000000000000E-002    -6.1113214125470873E-015
  -2.4299999999999999E-002     3.5300164362440214E-015
  -2.4250000000000001E-002     1.3327871287650913E-014
  -2.4199999999999999E-002     2.1017327527939920E-014
  -2.4150000000000001E-002     2.4576764817612074E-014
  -2.4100000000000000E-002     2.2645767646191657E-014
  -2.4049999999999998E-002     1.4886351482882129E-014
  -2.4000000000000000E-002     2.2354680088362018E-015
  -2.3949999999999999E-002    -1.3031891205197555E-014
  -2.3900000000000001E-002    -2.7527365441598382E-014
  -2.3850000000000000E-002    -3.7332856068248655E-014
  -2.3800000000000002E-002    -3.8923252765019807E-014
  -2.3750000000000000E-002    -3.0266475441840410E-014
  -2.3699999999999999E-002    -1.1796031227182694E-014
  -2.3650000000000001E-002     1.3120992284771021E-014
  -2.3599999999999999E-002     3.8537226374843093E-014
  -2.3550000000000001E-002     5.7204554976634349E-014
  -2.3500000000000000E-002     6.2567756797654109E-014
  -2.3449999999999999E-002     5.0943837620278419E-014
  -2.3400000000000001E-002     2.3173751596739553E-014
  -2.3349999999999999E-002    -1.4917054688947514E-014
  -2.3300000000000001E-002    -5.3603331631206630E-014
  -2.3250000000000000E-002    -8.1752352645526959E-014
  -2.3199999999999998E-002    -9.0074451221467463E-014
  -2.3150000000000000E-002    -7.4143355365037201E-014
  -2.3099999999999999E-002    -3.6177737913563110E-014
  -2.3050000000000001E-002     1.5088683830506206E-014
  -2.3000000000000000E-002     6.6526436701601863E-014
  -2.2950000000000002E-002     1.0414703221631373E-013
  -2.2900000000000000E-002     1.1701125683653426E-013
  -2.2849999999999999E-002     1.0033828881233398E-013
  -2.2800000000000001E-002     5.6911245926493749E-014
  -2.2749999999999999E-002    -3.5735835795924864E-015
  -2.2700000000000001E-002    -6.6937357671501052E-014
  -2.2650000000000000E-002    -1.1797095964516307E-013
  -2.2599999999999999E-002    -1.4396562862419183E-013
  -2.2550000000000001E-002    -1.3750742314578425E-013
  -2.2499999999999999E-002    -9.8052077948323427E-014
  -2.2450000000000001E-002    -3.2158078846535584E-014
  -2.2400000000000000E-002     4.7502648195705955E-014
  -2.2349999999999998E-002     1.2416029575347480E-013
  -2.2300000000000000E-002     1.7981339682646679E-013
  -2.2249999999999999E-002     1.9875124541947544E-013
  -2.2200000000000001E-002     1.7136773599533460E-013
  -2.2150000000000000E-002     9.7582541570250070E-014
  -2.2100000000000002E-002    -1.1137409127760392E-014
  -2.2050000000000000E-002    -1.3225076980901076E-013
  -2.1999999999999999E-002    -2.3584257925806862E-013
  -2.1950000000000001E-002    -2.9142721941489873E-013
  -2.1899999999999999E-002    -2.7656457361600309E-013
  -2.1850000000000001E-002    -1.8494770885094620E-013
  -2.1800000000000000E-002    -3.1168035786978899E-014
  -2.1749999999999999E-002     1.5013464684021065E-013
  -2.1700000000000001E-002     3.1154368291981402E-013
  -2.1649999999999999E-002     4.0527693597517869E-013
  -2.1600000000000001E-002     3.9746369305684781E-013
  -2.1550000000000000E-002     2.7989133364049355E-013
  -2.1499999999999998E-002     7.5121335192806509E-014
  -2.1450000000000000E-002    -1.6734975971751389E-013
  -2.1399999999999999E-002    -3.8344737531546262E-013
  -2.1350000000000001E-002    -5.1212577631258098E-013
  -2.1299999999999999E-002    -5.1305931166910308E-013
  -2.1250000000000002E-002    -3.7900885026000629E-013
  -2.1200000000000000E-002    -1.3899813033707300E-013
  -2.1149999999999999E-002     1.4874034103529292E-013
  -2.1100000000000001E-002     4.1195697444226773E-013
  -2.1049999999999999E-002     5.8324802141850125E-013
  -2.1000000000000001E-002     6.1726710068475671E-013
  -2.0950000000000000E-002     5.0179583030228443E-013
  -2.0899999999999998E-002     2.6026875801157527E-013
  -2.0850000000000000E-002    -5.4150921697717689E-014
  -2.0799999999999999E-002    -3.7079762181956975E-013
  -2.0750000000000001E-002    -6.1682795346563629E-013
  -2.0700000000000000E-002    -7.3243138965492619E-013
  -2.0649999999999998E-002    -6.8338337914490844E-013
  -2.0600000000000000E-002    -4.6920015263284970E-013
  -2.0549999999999999E-002    -1.2571896467824264E-013
  -2.0500000000000001E-002     2.7876577390022947E-013
  -2.0449999999999999E-002     6.5428987808274044E-013
  -2.0400000000000001E-002     9.0649671985964315E-013
  -2.0350000000000000E-002     9.5832787996241341E-013
  -2.0299999999999999E-002     7.7197602118130892E-013
  -2.0250000000000001E-002     3.6525316343281754E-013
  -2.0199999999999999E-002    -1.8375750467045454E-013
  -2.0150000000000001E-002    -7.4800843656437428E-013
  -2.0100000000000000E-002    -1.1789240768539964E-012
  -2.0049999999999998E-002    -1.3448555019402816E-012
  -2.0000000000000000E-002    -1.1707034613228015E-012
  -1.9949999999999999E-002    -6.6658978822190973E-013
  -1.9900000000000001E-002     6.4969889162413070E-014
  -1.9850000000000000E-002     8.4846919478136978E-013
  -1.9799999999999998E-002     1.4784824766708216E-012
  -1.9750000000000000E-002     1.7755350923252639E-012
  -1.9699999999999999E-002     1.6387795187348653E-012
  -1.9650000000000001E-002     1.0792380166958091E-012
  -1.9599999999999999E-002     2.2244818979173230E-013
  -1.9550000000000001E-002    -7.2167595257849382E-013
  -1.9500000000000000E-002    -1.5139452713265536E-012
  -1.9449999999999999E-002    -1.9503964572923385E-012
  -1.9400000000000001E-002    -1.9177136258125163E-012
  -1.9349999999999999E-002    -1.4239124391628426E-012
  -1.9300000000000001E-002    -5.9612309182630895E-013
  -1.9250000000000000E-002     3.5307697429605851E-013
  -1.9199999999999998E-002     1.1807251684878027E-012
  -1.9150000000000000E-002     1.6747899341032349E-012
  -1.9099999999999999E-002     1.7061701415551389E-012
  -1.9050000000000001E-002     1.2595259699633309E-012
  -1.9000000000000000E-002     4.3722442982275525E-013
  -1.8949999999999998E-002    -5.6287323889170185E-013
  -1.8900000000000000E-002    -1.4899609603594298E-012
  -1.8849999999999999E-002    -2.0943470369586391E-012
  -1.8800000000000001E-002    -2.1830559700523031E-012
  -1.8749999999999999E-002    -1.6670948407395384E-012
  -1.8700000000000001E-002    -5.9133015677434865E-013
  -1.8650000000000000E-002     8.6048920807016969E-013
  -1.8599999999999998E-002     2.3900617985341817E-012
  -1.8550000000000001E-002     3.6378784641875128E-012
  -1.8499999999999999E-002     4.2586057638725440E-012
  -1.8450000000000001E-002     4.0043671559980270E-012
  -1.8400000000000000E-002     2.7963795285173973E-012
  -1.8349999999999998E-002     7.6436570719211020E-013
  -1.8300000000000000E-002    -1.7617199744315135E-012
  -1.8249999999999999E-002    -4.3119609714022008E-012
  -1.8200000000000001E-002    -6.3782857650080046E-012
  -1.8149999999999999E-002    -7.5334095127363382E-012
  -1.8100000000000002E-002    -7.5342324184814356E-012
  -1.8050000000000000E-002    -6.3781519299979094E-012
  -1.7999999999999999E-002    -4.2920575415272213E-012
  -1.7950000000000001E-002    -1.6527283699168263E-012
  -1.7899999999999999E-002     1.1417173019746277E-012
  -1.7850000000000001E-002     3.8134030734432437E-012
  -1.7800000000000000E-002     6.3173839756971099E-012
  -1.7749999999999998E-002     8.8902614281272558E-012
  -1.7700000000000000E-002     1.2017299490074239E-011
  -1.7649999999999999E-002     1.6324096297119971E-011
  -1.7600000000000001E-002     2.2420817054150395E-011
  -1.7550000000000000E-002     3.0740775286671911E-011
  -1.7499999999999998E-002     4.1416676400897198E-011
  -1.7450000000000000E-002     5.4227145619631610E-011
  -1.7399999999999999E-002     6.8626951095440827E-011
  -1.7350000000000001E-002     8.3852462197106722E-011
  -1.7299999999999999E-002     9.9075642414924135E-011
  -1.7250000000000001E-002     1.1356966710001920E-010
  -1.7200000000000000E-002     1.2684881560096018E-010
  -1.7149999999999999E-002     1.3875365718431931E-010
  -1.7100000000000001E-002     1.4946558968332683E-010
  -1.7049999999999999E-002     1.5945074429897897E-010
  -1.7000000000000001E-002     1.6934658298043086E-010
  -1.6950000000000000E-002     1.7981526578291170E-010
  -1.6899999999999998E-002     1.9139344173642405E-010
  -1.6850000000000000E-002     2.0436963209458046E-010
  -1.6799999999999999E-002     2.1871597417972612E-010
  -1.6750000000000001E-002     2.3409192086437829E-010
  -1.6700000000000000E-002     2.4992400738363189E-010
  -1.6649999999999998E-002     2.6554847446635302E-010
  -1.6600000000000000E-002     2.8038700740776410E-010
  -1.6549999999999999E-002     2.9411420093389945E-010
  -1.6500000000000001E-002     3.0677121002877061E-010
  -1.6449999999999999E-002     3.1879009029994373E-010
  -1.6400000000000001E-002     3.3091216330691227E-010
  -1.6350000000000000E-002     3.4401261092290855E-010
  -1.6299999999999999E-002     3.5887139519479269E-010
  -1.6250000000000001E-002     3.7594951533457532E-010
  -1.6199999999999999E-002     3.9523414611846709E-010
  -1.6150000000000001E-002     4.1620189421521046E-010
  -1.6100000000000000E-002     4.3791897938151502E-010
  -1.6049999999999998E-002     4.5926044908069443E-010
  -1.6000000000000000E-002     4.7919478048286996E-010
  -1.5949999999999999E-002     4.9705949934765185E-010
  -1.5900000000000001E-002     5.1275254305806124E-010
  -1.5850000000000000E-002     5.2678618263122693E-010
  -1.5799999999999998E-002     5.4018432996730728E-010
  -1.5750000000000000E-002     5.5424839507916781E-010
  -1.5699999999999999E-002     5.7025041441178758E-010
  -1.5650000000000001E-002     5.8913141988256024E-010
  -1.5599999999999999E-002     6.1128129725785489E-010
  -1.5550000000000001E-002     6.3645302207403846E-010
  -1.5500000000000000E-002     6.6383193316699982E-010
  -1.5449999999999998E-002     6.9223782274380378E-010
  -1.5400000000000000E-002     7.2041030130689200E-010
  -1.5349999999999999E-002     7.4730649064949979E-010
  -1.5300000000000001E-002     7.7234235434937012E-010
  -1.5250000000000000E-002     7.9552271197032833E-010
  -1.5199999999999998E-002     8.1743377754325592E-010
  -1.5150000000000000E-002     8.3910329295347164E-010
  -1.5099999999999999E-002     8.6176158842512316E-010
  -1.5050000000000001E-002     8.8655921749567567E-010
  -1.4999999999999999E-002     9.1430501689643537E-010
  -1.4949999999999998E-002     9.4528409833449720E-010
  -1.4900000000000000E-002     9.7919836679878897E-010
  -1.4849999999999999E-002     1.0152451434176130E-009
  -1.4800000000000001E-002     1.0523204041014560E-009
  -1.4749999999999999E-002     1.0892991834895121E-009
  -1.4700000000000001E-002     1.1253288043763538E-009
  -1.4650000000000000E-002     1.1600630943581557E-009
  -1.4599999999999998E-002     1.1937767957055349E-009
  -1.4550000000000000E-002     1.2273217197755030E-009
  -1.4499999999999999E-002     1.2619310124327845E-009
  -1.4450000000000001E-002     1.2989100382306917E-009
  -1.4400000000000000E-002     1.3392921596894155E-009
  -1.4349999999999998E-002     1.3835465199998758E-009
  -1.4300000000000000E-002     1.4314192830089494E-009
  -1.4249999999999999E-002     1.4819588394726497E-009
  -1.4200000000000001E-002     1.5337273337475316E-009
  -1.4149999999999999E-002     1.5851533250932599E-009
  -1.4099999999999998E-002     1.6349384383826311E-009
  -1.4050000000000000E-002     1.6824149821201680E-009
  -1.3999999999999999E-002     1.7277595394195711E-009
  -1.3950000000000001E-002     1.7720020285332614E-009
  -1.3899999999999999E-002     1.8168226021174421E-009
  -1.3850000000000001E-002     1.8641828891071763E-009
  -1.3800000000000000E-002     1.9158822078979049E-009
  -1.3749999999999998E-002     1.9731490766595535E-009
  -1.3700000000000000E-002     2.0363673692780849E-009
  -1.3649999999999999E-002     2.1050011792827281E-009
  -1.3600000000000001E-002     2.1777359151475372E-009
  -1.3550000000000000E-002     2.2527967648792191E-009
  -1.3499999999999998E-002     2.3283640709269210E-009
  -1.3450000000000000E-002     2.4029829440431180E-009
  -1.3399999999999999E-002     2.4758769166984598E-009
  -1.3350000000000001E-002     2.5470922405657371E-009
  -1.3299999999999999E-002     2.6174496107310941E-009
  -1.3249999999999998E-002     2.6883210776282833E-009
  -1.3200000000000000E-002     2.7612961043355795E-009
  -1.3149999999999998E-002     2.8378149276108844E-009
  -1.3100000000000001E-002     2.9188604970381038E-009
  -1.3049999999999999E-002     3.0047740931641908E-009
  -1.3000000000000001E-002     3.0952370413107609E-009
  -1.2950000000000000E-002     3.1894144318782821E-009
  -1.2899999999999998E-002     3.2862248085344452E-009
  -1.2850000000000000E-002     3.3846648163374342E-009
  -1.2799999999999999E-002     3.4841067433815774E-009