  -4.0000000000000001E-002     0.0000000000000000     
  -3.9949999999999999E-002     0.0000000000000000     
  -3.9899999999999998E-002     0.0000000000000000     
  -3.9850000000000003E-002     0.0000000000000000     
  -3.9800000000000002E-002     0.0000000000000000     
  -3.9750000000000001E-002     0.0000000000000000     
  -3.9699999999999999E-002     0.0000000000000000     
  -3.9649999999999998E-002     0.0000000000000000     
  -3.9600000000000003E-002     0.0000000000000000     
  -3.9550000000000002E-002     0.0000000000000000     
  -3.9500000000000000E-002     0.0000000000000000     
  -3.9449999999999999E-002     0.0000000000000000     
  -3.9399999999999998E-002     0.0000000000000000     
  -3.9350000000000003E-002     0.0000000000000000     
  -3.9300000000000002E-002     0.0000000000000000     
  -3.9250000000000000E-002     0.0000000000000000     
  -3.9199999999999999E-002     0.0000000000000000     
  -3.9150000000000004E-002    -2.0122723277662497E-039
  -3.9100000000000003E-002    -1.7655366102135135E-038
  -3.9050000000000001E-002    -1.1193665841888658E-037
  -3.9000000000000000E-002    -5.5037721233959060E-037
  -3.8949999999999999E-002    -2.1660059313804931E-036
  -3.8900000000000004E-002    -6.9779903359388989E-036
  -3.8850000000000003E-002    -1.8016265598687191E-035
  -3.8800000000000001E-002    -3.4417572489002336E-035
  -3.8750000000000000E-002    -3.1225023912468588E-035
  -3.8699999999999998E-002     9.5549424145124207E-035
  -3.8650000000000004E-002     6.4022347891027058E-034
  -3.8600000000000002E-002     2.2469578791991562E-033
  -3.8550000000000001E-002     6.0016325161273824E-033
  -3.8500000000000000E-002     1.3098144653560150E-032
  -3.8449999999999998E-002     2.3321633006967950E-032
  -3.8400000000000004E-002     3.1144713802930214E-032
  -3.8350000000000002E-002     1.8159508117220643E-032
  -3.8300000000000001E-002    -5.8167551450341681E-032
  -3.8249999999999999E-002    -2.7515954759377071E-031
  -3.8199999999999998E-002    -7.4142413262471617E-031
  -3.8150000000000003E-002    -1.5503775722360057E-030
  -3.8100000000000002E-002    -2.6451329710296412E-030
  -3.8050000000000000E-002    -3.5460197514244264E-030
  -3.7999999999999999E-002    -2.9348562020471141E-030
  -3.7949999999999998E-002     1.7755865749227522E-030
  -3.7900000000000003E-002     1.4498863856348018E-029
  -3.7850000000000002E-002     3.9420843413462393E-029
  -3.7800000000000000E-002     7.7841244032059336E-029
  -3.7749999999999999E-002     1.2215144904697757E-028
  -3.7699999999999997E-002     1.4745705315630430E-028
  -3.7650000000000003E-002     1.0407036417116414E-028
  -3.7600000000000001E-002    -8.1999673536669995E-029
  -3.7550000000000000E-002    -4.8993935971274258E-028
  -3.7499999999999999E-002    -1.1559516353656340E-027
  -3.7449999999999997E-002    -1.9936388926208851E-027
  -3.7400000000000003E-002    -2.6996563636882404E-027
  -3.7350000000000001E-002    -2.6897725845212284E-027
  -3.7300000000000000E-002    -1.1383312823141353E-027
  -3.7249999999999998E-002     2.7977186186287159E-027
  -3.7200000000000004E-002     9.5240631831034514E-027
  -3.7150000000000002E-002     1.8371598122891710E-026
  -3.7100000000000001E-002     2.6969768191013663E-026
  -3.7050000000000000E-002     3.0974796796602967E-026
  -3.6999999999999998E-002     2.4569970583163536E-026
  -3.6950000000000004E-002     2.0542152076156874E-027
  -3.6900000000000002E-002    -3.9500415330185717E-026
  -3.6850000000000001E-002    -9.7080185736613638E-026
  -3.6799999999999999E-002    -1.5918709908185801E-025
  -3.6749999999999998E-002    -2.0540349393798450E-025
  -3.6700000000000003E-002    -2.0935642144202367E-025
  -3.6650000000000002E-002    -1.4548536542204260E-025
  -3.6600000000000001E-002     1.4640405521247573E-027
  -3.6549999999999999E-002     2.2690480589503318E-025
  -3.6499999999999998E-002     5.0052710150092994E-025
  -3.6450000000000003E-002     7.6746297427022733E-025
  -3.6400000000000002E-002     9.5792772557404359E-025
  -3.6350000000000000E-002     1.0035052527180428E-024
  -3.6299999999999999E-002     8.5481292701002510E-025
  -3.6249999999999998E-002     4.9332072027376956E-025
  -3.6200000000000003E-002    -6.8866793656852089E-026
  -3.6150000000000002E-002    -8.0279081577142337E-025
  -3.6100000000000000E-002    -1.6840783570310237E-024
  -3.6049999999999999E-002    -2.7084559855945274E-024
  -3.6000000000000004E-002    -3.8835368685261170E-024
  -3.5950000000000003E-002    -5.1820647403749810E-024
  -3.5900000000000001E-002    -6.4543711323250714E-024
  -3.5850000000000000E-002    -7.3193652620256085E-024
  -3.5799999999999998E-002    -7.0793662955974782E-024
  -3.5750000000000004E-002    -4.7256293982431582E-024
  -3.5700000000000003E-002     8.9345893509239119E-025
  -3.5650000000000001E-002     1.0693058461843724E-023
  -3.5600000000000000E-002     2.4772761368976596E-023
  -3.5549999999999998E-002     4.1742045850758474E-023
  -3.5500000000000004E-002     5.8162104766016446E-023
  -3.5450000000000002E-002     6.8400956188083283E-023
  -3.5400000000000001E-002     6.5213099542319029E-023
  -3.5349999999999999E-002     4.1252541963880677E-023
  -3.5299999999999998E-002    -8.5129184024563824E-024
  -3.5250000000000004E-002    -8.3871567010615719E-023
  -3.5200000000000002E-002    -1.7668737422976186E-022
  -3.5150000000000001E-002    -2.6950506410313319E-022
  -3.5099999999999999E-002    -3.3648353485191360E-022
  -3.5049999999999998E-002    -3.4733637397136950E-022
  -3.5000000000000003E-002    -2.7421803974880014E-022
  -3.4950000000000002E-002    -1.0052080389640727E-022
  -3.4900000000000000E-002     1.7038437030985388E-022
  -3.4849999999999999E-002     5.0898331816350657E-022
  -3.4799999999999998E-002     8.5844473826702928E-022
  -3.4750000000000003E-002     1.1399949362578027E-021
  -3.4700000000000002E-002     1.2649588268160954E-021
  -3.4650000000000000E-002     1.1519609431437483E-021
  -3.4599999999999999E-002     7.4648001607087427E-022
  -3.4549999999999997E-002     3.9356498636910261E-023
  -3.4500000000000003E-002    -9.1895183720911033E-022
  -3.4450000000000001E-002    -2.0108994730007993E-021
  -3.4400000000000000E-002    -3.0530968498743677E-021
  -3.4349999999999999E-002    -3.8081873185100464E-021
  -3.4299999999999997E-002    -4.0098676512171106E-021
  -3.4250000000000003E-002    -3.4040749301423369E-021
  -3.4200000000000001E-002    -1.8083809520604004E-021
  -3.4150000000000000E-002     8.1240280283607188E-022
  -3.4099999999999998E-002     4.2643629203743590E-021
  -3.4049999999999997E-002     8.0572736236553956E-021
  -3.4000000000000002E-002     1.1383619480564889E-020
  -3.3950000000000001E-002     1.3180408189082960E-020
  -3.3900000000000000E-002     1.2303418295681252E-020
  -3.3849999999999998E-002     7.8202822371757769E-021
  -3.3799999999999997E-002    -6.1052947690986430E-022
  -3.3750000000000002E-002    -1.2356132582175562E-020
  -3.3700000000000001E-002    -2.5545595543961339E-020
  -3.3649999999999999E-002    -3.7069901319755756E-020
  -3.3599999999999998E-002    -4.2966381811825572E-020
  -3.3550000000000003E-002    -3.9233323153829451E-020
  -3.3500000000000002E-002    -2.2998569466207363E-020
  -3.3450000000000001E-002     6.1796524020534827E-021
  -3.3399999999999999E-002     4.5229439828534558E-020
  -3.3349999999999998E-002     8.7111085848829290E-020
  -3.3300000000000003E-002     1.2135603367136514E-019
  -3.3250000000000002E-002     1.3578559388607890E-019
  -3.3200000000000000E-002     1.1930386833106144E-019
  -3.3149999999999999E-002     6.5310256094524762E-020
  -3.3099999999999997E-002    -2.5040097599647270E-020
  -3.3050000000000003E-002    -1.4067975928312044E-019
  -3.3000000000000002E-002    -2.6048182178616012E-019
  -3.2950000000000000E-002    -3.5571715546178959E-019
  -3.2899999999999999E-002    -3.9515736654265732E-019
  -3.2850000000000004E-002    -3.5217672031997600E-019
  -3.2800000000000003E-002    -2.1253854626001519E-019
  -3.2750000000000001E-002     1.8910829953772640E-020
  -3.2700000000000000E-002     3.1451497944384995E-019
  -3.2649999999999998E-002     6.2457674739263513E-019
  -3.2600000000000004E-002     8.8337758210875956E-019
  -3.2550000000000003E-002     1.0201291766559719E-018
  -3.2500000000000001E-002     9.7337935929927715E-019
  -3.2450000000000000E-002     7.0640783281738965E-019
  -3.2399999999999998E-002     2.2055073083181936E-019
  -3.2350000000000004E-002    -4.3665193450296414E-019
  -3.2300000000000002E-002    -1.1710403067477771E-018
  -3.2250000000000001E-002    -1.8506218878750981E-018
  -3.2199999999999999E-002    -2.3235805545844573E-018
  -3.2149999999999998E-002    -2.4438901505680290E-018
  -3.2100000000000004E-002    -2.1013321815878574E-018
  -3.2050000000000002E-002    -1.2513722984147521E-018
  -3.2000000000000001E-002     6.0551730417296426E-020
  -3.1949999999999999E-002     1.6860571607625247E-018
  -3.1899999999999998E-002     3.3773319439252781E-018
  -3.1850000000000003E-002     4.8107665608010298E-018
  -3.1800000000000002E-002     5.6316443786199084E-018
  -3.1750000000000000E-002     5.5170874258995484E-018
  -3.1699999999999999E-002     4.2499658498041340E-018
  -3.1649999999999998E-002     1.7918822798201766E-018
  -3.1600000000000003E-002    -1.6602476017474927E-018
  -3.1550000000000002E-002    -5.6509257962906282E-018
  -3.1500000000000000E-002    -9.4910622563089974E-018
  -3.1449999999999999E-002    -1.2340038284327750E-017
  -3.1399999999999997E-002    -1.3343471275948263E-017
  -3.1350000000000003E-002    -1.1812170194571845E-017
  -3.1300000000000001E-002    -7.4140699546459095E-018
  -3.1250000000000000E-002    -3.3982201849572558E-019
  -3.1199999999999999E-002     8.6021716690167673E-018
  -3.1150000000000001E-002     1.8001223021572026E-017
  -3.1100000000000003E-002     2.5995502935578509E-017
  -3.1050000000000001E-002     3.0559443804898925E-017
  -3.1000000000000000E-002     2.9897040935384515E-017
  -3.0949999999999998E-002     2.2879618571733714E-017
  -3.0900000000000000E-002     9.4421837650102608E-018
  -3.0850000000000002E-002    -9.1575647145682134E-018
  -3.0800000000000001E-002    -3.0304128181738984E-017
  -3.0750000000000000E-002    -5.0268555025511308E-017
  -3.0699999999999998E-002    -6.4738709538021339E-017
  -3.0650000000000000E-002    -6.9581312527236506E-017
  -3.0600000000000002E-002    -6.1722086658513557E-017
  -3.0550000000000001E-002    -3.9984055627266023E-017
  -3.0499999999999999E-002    -5.7039849501370353E-018
  -3.0449999999999998E-002     3.7039022514881550E-017
  -3.0400000000000000E-002     8.1697954596080832E-017
  -3.0350000000000002E-002     1.2006881924813407E-016
  -3.0300000000000001E-002     1.4357054883052040E-016
  -3.0249999999999999E-002     1.4482382431641491E-016
  -3.0200000000000001E-002     1.1927505469268064E-016
  -3.0150000000000000E-002     6.6564321054686571E-017
  -3.0100000000000002E-002    -8.6606543321530271E-018
  -3.0050000000000000E-002    -9.6725005984434125E-017
  -2.9999999999999999E-002    -1.8383179904338757E-016
  -2.9950000000000001E-002    -2.5387417104168566E-016
  -2.9899999999999999E-002    -2.9097282105045246E-016
  -2.9850000000000002E-002    -2.8240023319271254E-016
  -2.9800000000000000E-002    -2.2143295991924371E-016
  -2.9749999999999999E-002    -1.0961389808353728E-016
  -2.9700000000000001E-002     4.2075188849908015E-017
  -2.9650000000000003E-002     2.1352400357887855E-016
  -2.9600000000000001E-002     3.7748616306489427E-016
  -2.9550000000000000E-002     5.0319843274419491E-016
  -2.9499999999999998E-002     5.6127239834881247E-016
  -2.9450000000000000E-002     5.2921714640576598E-016
  -2.9400000000000003E-002     3.9672100391732280E-016
  -2.9350000000000001E-002     1.6969833838555028E-016
  -2.9300000000000000E-002    -1.2785410194999942E-016
  -2.9249999999999998E-002    -4.5493822995305940E-016
  -2.9200000000000000E-002    -7.5791770148592356E-016
  -2.9150000000000002E-002    -9.7797123424096136E-016
  -2.9100000000000001E-002    -1.0608408298385667E-015
  -2.9049999999999999E-002    -9.6749499771015388E-016
  -2.8999999999999998E-002    -6.8390782457294473E-016
  -2.8950000000000000E-002    -2.2798521856389061E-016
  -2.8900000000000002E-002     3.4814718509530511E-016
  -2.8850000000000001E-002     9.6172214440478688E-016
  -2.8799999999999999E-002     1.5091225047241281E-015
  -2.8749999999999998E-002     1.8811216315229786E-015
  -2.8700000000000000E-002     1.9816682699727993E-015
  -2.8650000000000002E-002     1.7473403300800170E-015
  -2.8600000000000000E-002     1.1640165720995053E-015
  -2.8549999999999999E-002     2.7729374077018495E-016
  -2.8500000000000001E-002    -8.0619033126631239E-016
  -2.8450000000000000E-002    -1.9281391877124611E-015
  -2.8400000000000002E-002    -2.8985768313990776E-015
  -2.8350000000000000E-002    -3.5244022604075790E-015
  -2.8299999999999999E-002    -3.6426908181411178E-015
  -2.8250000000000001E-002    -3.1535583776411207E-015
  -2.8200000000000003E-002    -2.0467839451437736E-015
  -2.8150000000000001E-002    -4.1672666274858602E-016
  -2.8100000000000000E-002     1.5386392852475574E-015
  -2.8049999999999999E-002     3.5365519000802941E-015
  -2.8000000000000001E-002     5.2453740003796404E-015
  -2.7950000000000003E-002     6.3338055620707657E-015
  -2.7900000000000001E-002     6.5269264251482763E-015
  -2.7850000000000000E-002     5.6605746231411814E-015
  -2.7799999999999998E-002     3.7247313302645656E-015
  -2.7750000000000000E-002     8.8714682483685568E-016
  -2.7700000000000002E-002    -2.5094908680246847E-015
  -2.7650000000000001E-002    -5.9800957489675391E-015
  -2.7600000000000000E-002    -8.9582033005272231E-015
  -2.7549999999999998E-002    -1.0879332095502802E-014
  -2.7500000000000000E-002    -1.1275891818062433E-014
  -2.7450000000000002E-002    -9.8693424481478334E-015
  -2.7400000000000001E-002    -6.6436190987624277E-015
  -2.7349999999999999E-002    -1.8846337127080658E-015
  -2.7299999999999998E-002     3.8258049082255369E-015
  -2.7250000000000000E-002     9.6671950601740999E-015
  -2.7200000000000002E-002     1.4686204151528644E-014
  -2.7150000000000001E-002     1.7939847458484626E-014
  -2.7099999999999999E-002     1.8656472508450032E-014
  -2.7049999999999998E-002     1.6389115001108995E-014
  -2.7000000000000000E-002     1.1133542129684749E-014
  -2.6950000000000002E-002     3.3857572024537666E-015
  -2.6900000000000000E-002    -5.8789076273305376E-015
  -2.6849999999999999E-002    -1.5311409091410480E-014
  -2.6800000000000001E-002    -2.3371383595787100E-014
  -2.6749999999999999E-002    -2.8563833110678388E-014
  -2.6700000000000002E-002    -2.9695407076334488E-014
  -2.6650000000000000E-002    -2.6108300300849542E-014
  -2.6599999999999999E-002    -1.7849193717683116E-014
  -2.6550000000000001E-002    -5.7377157737824765E-015
  -2.6500000000000003E-002     8.6871767633900783E-015
  -2.6450000000000001E-002     2.3345501896602435E-014
  -2.6400000000000000E-002     3.5900793012188450E-014
  -2.6349999999999998E-002     4.4113152516497490E-014
  -2.6300000000000000E-002     4.6208755540633707E-014
  -2.6250000000000002E-002     4.1207275278586948E-014
  -2.6200000000000001E-002     2.9151628424443888E-014
  -2.6150000000000000E-002     1.1196276386828036E-014
  -2.6099999999999998E-002    -1.0469957897396964E-014
  -2.6050000000000000E-002    -3.2866964864572374E-014
  -2.6000000000000002E-002    -5.2607361924086613E-014
  -2.5950000000000001E-002    -6.6374522608251118E-014
  -2.5899999999999999E-002    -7.1431093535320736E-014
  -2.5849999999999998E-002    -6.6086416189911435E-014
  -2.5800000000000000E-002    -5.0051975996603502E-014
  -2.5750000000000002E-002    -2.4624507802034506E-014
  -2.5700000000000001E-002     7.3451671320876343E-015
  -2.5649999999999999E-002     4.1714110119350501E-014
  -2.5599999999999998E-002     7.3526909143661982E-014
  -2.5550000000000000E-002     9.7668393757986462E-014
  -2.5500000000000002E-002     1.0961547736765436E-013
  -2.5450000000000000E-002     1.0619033355900553E-013
  -2.5399999999999999E-002     8.6202962938446589E-014
  -2.5349999999999998E-002     5.0871137718682254E-014
  -2.5300000000000000E-002     3.9223848052721629E-015
  -2.5250000000000002E-002    -4.8682953510228915E-014
  -2.5200000000000000E-002    -9.9417204805221419E-014
  -2.5149999999999999E-002    -1.4018766908704671E-013
  -2.5100000000000001E-002    -1.6355910230359546E-013
  -2.5049999999999999E-002    -1.6402465750632850E-013
  -2.5000000000000001E-002    -1.3911875607110483E-013
  -2.4950000000000000E-002    -9.0163129891401163E-014
  -2.4899999999999999E-002    -2.2470880200222488E-014
  -2.4850000000000001E-002     5.5093248027313259E-014
  -2.4800000000000003E-002     1.3119740256348179E-013
  -2.4750000000000001E-002     1.9365765537653934E-013
  -2.4700000000000000E-002     2.3136008280801749E-013
  -2.4649999999999998E-002     2.3618749341622055E-013
  -2.4600000000000000E-002     2.0461651295167050E-013
  -2.4550000000000002E-002     1.3867849541206486E-013
  -2.4500000000000001E-002     4.6065589131606793E-014
  -2.4450000000000000E-002    -6.0700407354837201E-014
  -2.4399999999999998E-002    -1.6595910898839992E-013
  -2.4350000000000000E-002    -2.5322627227504239E-013
  -2.4299999999999999E-002    -3.0777606448880298E-013
  -2.4250000000000001E-002    -3.1907054597872010E-013
  -2.4199999999999999E-002    -2.8262871069655183E-013
  -2.4150000000000001E-002    -2.0101155794619772E-013
  -2.4100000000000000E-002    -8.3742660078902252E-014
  -2.4049999999999998E-002     5.3842094652428903E-014
  -2.4000000000000000E-002     1.9264873696959958E-013
  -2.3949999999999999E-002     3.1247663669785652E-013
  -2.3900000000000001E-002     3.9487537762167119E-013
  -2.3850000000000000E-002     4.2579783407071560E-013
  -2.3800000000000002E-002     3.9768647967776137E-013
  -2.3750000000000000E-002     3.1072525646137465E-013
  -2.3699999999999999E-002     1.7310978179739438E-013
  -2.3650000000000001E-002     3.1599974988121772E-016
  -2.3599999999999999E-002    -1.8654516969854360E-013
  -2.3550000000000001E-002    -3.6311001255345419E-013
  -2.3500000000000000E-002    -5.0464338622225929E-013
  -2.3449999999999999E-002    -5.8913976691591048E-013
  -2.3400000000000001E-002    -6.0033196949419199E-013
  -2.3349999999999999E-002    -5.3027524960703844E-013
  -2.3300000000000001E-002    -3.8116657590039915E-013
  -2.3250000000000000E-002    -1.6607607095454982E-013
  -2.3199999999999998E-002     9.1667639300819855E-014
  -2.3150000000000000E-002     3.6057598262184549E-013
  -2.3099999999999999E-002     6.0453595387464914E-013
  -2.3050000000000001E-002     7.8749726174168022E-013
  -2.3000000000000000E-002     8.7877756200869654E-013
  -2.2950000000000002E-002     8.5823012869747729E-013
  -2.2900000000000000E-002     7.2039940246551168E-013
  -2.2849999999999999E-002     4.7680592773742492E-013
  -2.2800000000000001E-002     1.5570234335226120E-013
  -2.2749999999999999E-002    -2.0099028281763600E-013
  -2.2700000000000001E-002    -5.4337218333745670E-013
  -2.2650000000000000E-002    -8.2115734339104601E-013
  -2.2599999999999999E-002    -9.9199449540749351E-013
  -2.2550000000000001E-002    -1.0290648234348911E-012
  -2.2499999999999999E-002    -9.2649716215806797E-013
  -2.2450000000000001E-002    -7.0141923913754662E-013
  -2.2400000000000000E-002    -3.9201654645254608E-013
  -2.2349999999999998E-002    -5.1691297382774388E-014
  -2.2300000000000000E-002     2.5982529769447661E-013
  -2.2249999999999999E-002     4.8692166657017882E-013
  -2.2200000000000001E-002     5.8825808398971232E-013
  -2.2150000000000000E-002     5.4474573093427170E-013
  -2.2100000000000002E-002     3.6383491215439772E-013
  -2.2050000000000000E-002     7.9256023661391482E-014
  -2.1999999999999999E-002    -2.5380763305139152E-013
  -2.1950000000000001E-002    -5.6729657497709608E-013
  -2.1899999999999999E-002    -7.9111824317342599E-013
  -2.1850000000000001E-002    -8.6441354483264227E-013
  -2.1800000000000000E-002    -7.4541598160361383E-013
  -2.1749999999999999E-002    -4.1842110724905221E-013
  -2.1700000000000001E-002     1.0300743700890646E-013
  -2.1649999999999999E-002     7.7678147106792536E-013
  -2.1600000000000001E-002     1.5365216547853082E-012
  -2.1550000000000000E-002     2.2983955084481400E-012
  -2.1499999999999998E-002     2.9694806747113838E-012
  -2.1450000000000000E-002     3.4566510217211481E-012
  -2.1399999999999999E-002     3.6752193257051062E-012
  -2.1350000000000001E-002     3.5568595662611139E-012
  -2.1299999999999999E-002     3.0565624608502556E-012
  -2.1250000000000002E-002     2.1584457705697619E-012
  -2.1200000000000000E-002     8.8016761975062390E-013
  -2.1149999999999999E-002    -7.2450221359666464E-013
  -2.1100000000000001E-002    -2.5655590841187616E-012
  -2.1049999999999999E-002    -4.5197410972370327E-012
  -2.1000000000000001E-002    -6.4370294905614041E-012
  -2.0950000000000000E-002    -8.1506036220580975E-012
  -2.0899999999999998E-002    -9.4894887724978343E-012
  -2.0850000000000000E-002    -1.0292368024214647E-011
  -2.0799999999999999E-002    -1.0420433783535978E-011
  -2.0750000000000001E-002    -9.7668963644693751E-012
  -2.0700000000000000E-002    -8.2610869418748776E-012
  -2.0649999999999998E-002    -5.8659059799440271E-012
  -2.0600000000000000E-002    -2.5686184860330274E-012
  -2.0549999999999999E-002     1.6334587263747652E-012
  -2.0500000000000001E-002     6.7496010574449777E-012
  -2.0449999999999999E-002     1.2810923928213980E-011
  -2.0400000000000001E-002     1.9880497031790525E-011
  -2.0350000000000000E-002     2.8055261210468122E-011
  -2.0299999999999999E-002     3.7458251857357335E-011
  -2.0250000000000001E-002     4.8221596984684079E-011
  -2.0199999999999999E-002     6.0462831718255017E-011
  -2.0150000000000001E-002     7.4258719495303396E-011
  -2.0100000000000000E-002     8.9621602342026572E-011
  -2.0049999999999998E-002     1.0648322651565790E-010
  -2.0000000000000000E-002     1.2468957245449102E-010
  -1.9949999999999999E-002     1.4400845174870565E-010
  -1.9900000000000001E-002     1.6414893794702212E-010
  -1.9850000000000000E-002     1.8478961900085748E-010
  -1.9799999999999998E-002     2.0561100808932552E-010
  -1.9750000000000000E-002     2.2632677104891947E-010
  -1.9699999999999999E-002     2.4670879072785861E-010
  -1.9650000000000001E-002     2.6660270768075324E-010
  -1.9599999999999999E-002     2.8593221741378097E-010
  -1.9550000000000001E-002     3.0469342099127344E-010
  -1.9500000000000000E-002     3.2294122553597344E-010
  -1.9449999999999999E-002     3.4077156557578729E-010
  -1.9400000000000001E-002     3.5830340178378598E-010
  -1.9349999999999999E-002     3.7566308419129128E-010
  -1.9300000000000001E-002     3.9297326430085920E-010
  -1.9250000000000000E-002     4.1034610767538174E-010
  -1.9199999999999998E-002     4.2788031893034003E-010
  -1.9150000000000000E-002     4.4566013890360156E-010
  -1.9099999999999999E-002     4.6375484464821596E-010
  -1.9050000000000001E-002     4.8221789425942090E-010
  -1.9000000000000000E-002     5.0108569457680770E-010
  -1.8949999999999998E-002     5.2037698608053686E-010
  -1.8900000000000000E-002     5.4009436455707316E-010
  -1.8849999999999999E-002     5.6022952475841538E-010
  -1.8800000000000001E-002     5.8077181239895225E-010
  -1.8749999999999999E-002     6.0172072117181277E-010
  -1.8700000000000001E-002     6.2309882539021386E-010
  -1.8650000000000000E-002     6.4496252338774743E-010
  -1.8599999999999998E-002     6.6740723714004907E-010
  -1.8550000000000001E-002     6.9056427310497581E-010
  -1.8499999999999999E-002     7.1458773498923182E-010
  -1.8450000000000001E-002     7.3963338878706398E-010
  -1.8400000000000000E-002     7.6583199279826516E-010
  -1.8349999999999998E-002     7.9326299134125154E-010
  -1.8300000000000000E-002     8.2193391891867845E-010
  -1.8249999999999999E-002     8.5177167848282284E-010
  -1.8200000000000001E-002     8.8262760058695365E-010
  -1.8149999999999999E-002     9.1429837232695627E-010
  -1.8100000000000002E-002     9.4655917778145047E-010
  -1.8050000000000000E-002     9.7920306051127628E-010
  -1.7999999999999999E-002     1.0120801625617188E-009
  -1.7950000000000001E-002     1.0451283494774898E-009
  -1.7899999999999999E-002     1.0783883483812087E-009
  -1.7850000000000001E-002     1.1120021065120209E-009
  -1.7800000000000000E-002     1.1461913416437079E-009
  -1.7749999999999998E-002     1.1812223364573019E-009
  -1.7700000000000000E-002     1.2173634229813400E-009
  -1.7649999999999999E-002     1.2548424474047081E-009
  -1.7600000000000001E-002     1.2938139614844616E-009
  -1.7550000000000000E-002     1.3343413528292466E-009
  -1.7499999999999998E-002     1.3763970030800502E-009
  -1.7450000000000000E-002     1.4198797824575483E-009
  -1.7399999999999999E-002     1.4646457268471979E-009
  -1.7350000000000001E-002     1.5105462764444236E-009
  -1.7299999999999999E-002     1.5574638210502445E-009
  -1.7250000000000001E-002     1.6053406962793387E-009
  -1.7200000000000000E-002     1.6541950960702639E-009
  -1.7149999999999999E-002     1.7041224675156720E-009
  -1.7100000000000001E-002     1.7552830041353901E-009
  -1.7049999999999999E-002     1.8078800783986914E-009
  -1.7000000000000001E-002     1.8621342597625107E-009
  -1.6950000000000000E-002     1.9182571060381855E-009
  -1.6899999999999998E-002     1.9764310333450615E-009
  -1.6850000000000000E-002     2.0367956307638690E-009
  -1.6799999999999999E-002     2.0994432309692121E-009
  -1.6750000000000001E-002     2.1644201706880927E-009
  -1.6700000000000000E-002     2.2317317296530455E-009
  -1.6649999999999998E-002     2.3013495085311165E-009
  -1.6600000000000000E-002     2.3732168465811298E-009
  -1.6549999999999999E-002     2.4472529138500457E-009
  -1.6500000000000001E-002     2.5233572936025010E-009
  -1.6449999999999999E-002     2.6014172085282770E-009
  -1.6400000000000001E-002     2.6813175770402931E-009
  -1.6350000000000000E-002     2.7629562198918183E-009
  -1.6299999999999999E-002     2.8462642231703738E-009
  -1.6250000000000001E-002     2.9312259777749664E-009
  -1.6199999999999999E-002     3.0178981853935305E-009
  -1.6150000000000001E-002     3.1064204848136107E-009
  -1.6100000000000000E-002     3.1970162738682501E-009
  -1.6049999999999998E-002     3.2899785511802484E-009
  -1.6000000000000000E-002     3.3856405693858942E-009
  -1.5949999999999999E-002     3.4843386940039336E-009
  -1.5900000000000001E-002     3.5863720585213666E-009
  -1.5850000000000000E-002     3.6919658251481252E-009
  -1.5799999999999998E-002     3.8012457649238108E-009
  -1.5750000000000000E-002     3.9142316812578068E-009
  -1.5699999999999999E-002     4.0308486417087092E-009
  -1.5650000000000001E-002     4.1509576383123143E-009
  -1.5599999999999999E-002     4.2743975059684242E-009
  -1.5550000000000001E-002     4.4010321899425603E-009
  -1.5500000000000000E-002     4.5307886878218167E-009
  -1.5449999999999998E-002     4.6636869356536672E-009
  -1.5400000000000000E-002     4.7998467162641996E-009
  -1.5349999999999999E-002     4.9394781904415167E-009
  -1.5300000000000001E-002     5.0828520621048088E-009
  -1.5250000000000000E-002     5.2302635432987600E-009
  -1.5199999999999998E-002     5.3819908683606098E-009
  -1.5150000000000000E-002     5.5382585273687969E-009
  -1.5099999999999999E-002     5.6992185095245666E-009
  -1.5050000000000001E-002     5.8649387016090435E-009
  -1.4999999999999999E-002     6.0354136204550949E-009
  -1.4949999999999998E-002     6.2105830998620391E-009
  -1.4900000000000000E-002     6.3903654905200291E-009
  -1.4849999999999999E-002     6.5746857125967217E-009
  -1.4800000000000001E-002     6.7635086769121127E-009
  -1.4749999999999999E-002     6.9568586003398143E-009
  -1.4700000000000001E-002     7.1548329242960861E-009
  -1.4650000000000000E-002     7.3576036510737820E-009
  -1.4599999999999998E-002     7.5654119556190313E-009
  -1.4550000000000000E-002     7.7785543847117203E-009
  -1.4499999999999999E-002     7.9973614607650499E-009
  -1.4450000000000001E-002     8.2221807319301333E-009
  -1.4400000000000000E-002     8.4533521715779942E-009
  -1.4349999999999998E-002     8.6911897338457003E-009
  -1.4300000000000000E-002     8.9359624782672102E-009
  -1.4249999999999999E-002     9.1878858947936964E-009
  -1.4200000000000001E-002     9.4471119920275483E-009
  -1.4149999999999999E-002     9.7137309002316159E-009
  -1.4099999999999998E-002     9.9877821594232075E-009
  -1.4050000000000000E-002     1.0269263150829461E-008
  -1.3999999999999999E-002     1.0558159404690745E-008
  -1.3950000000000001E-002     1.0854459664956502E-008
  -1.3899999999999999E-002     1.1158185301012887E-008
  -1.3850000000000001E-002     1.1469399717865657E-008
  -1.3800000000000000E-002     1.1788226555310491E-008
  -1.3749999999999998E-002     1.2114852874523572E-008
  -1.3700000000000000E-002     1.2449527760815350E-008
  -1.3649999999999999E-002     1.2792552324433375E-008
  -1.3600000000000001E-002     1.3144266399860836E-008
  -1.3550000000000000E-002     1.3505026836434179E-008
  -1.3499999999999998E-002     1.3875189623497645E-008
  -1.3450000000000000E-002     1.4255081643706937E-008
  -1.3399999999999999E-002     1.4644991307032162E-008
  -1.3350000000000001E-002     1.5045148501181243E-008
  -1.3299999999999999E-002     1.5455727390280488E-008
  -1.3249999999999998E-002     1.5876854666140151E-008
  -1.3200000000000000E-002     1.6308621460218490E-008
  -1.3149999999999998E-002     1.6751110632607249E-008
  -1.3100000000000001E-002     1.7204413633222220E-008
  -1.3049999999999999E-002     1.7668659344090384E-008
  -1.3000000000000001E-002     1.8144029477837563E-008
  -1.2950000000000000E-002     1.8630767131075376E-008
  -1.2899999999999998E-002     1.9129186182621533E-008
  -1.2850000000000000E-002     1.9639662936896698E-008
  -1.2799999999999999E-002     2.0162619721419815E-008