  -4.0000000000000001E-002     0.0000000000000000     
  -3.9949999999999999E-002     0.0000000000000000     
  -3.9899999999999998E-002     0.0000000000000000     
  -3.9850000000000003E-002     0.0000000000000000     
  -3.9800000000000002E-002     0.0000000000000000     
  -3.9750000000000001E-002     0.0000000000000000     
  -3.9699999999999999E-002     0.0000000000000000     
  -3.9649999999999998E-002     0.0000000000000000     
  -3.9600000000000003E-002     0.0000000000000000     
  -3.9550000000000002E-002     0.0000000000000000     
  -3.9500000000000000E-002     2.6888008686087029E-030
  -3.9449999999999999E-002     4.1180597895387485E-029
  -3.9399999999999998E-002     3.1364174348851952E-028
  -3.9350000000000003E-002     1.5600177025609048E-027
  -3.9300000000000002E-002     5.5597480891760581E-027
  -3.9250000000000000E-002     1.4398494060070197E-026
  -3.9199999999999999E-002     2.4456414499412488E-026
  -3.9150000000000004E-002     8.2270913077892042E-027
  -3.9100000000000003E-002    -1.2086307385371164E-025
  -3.9050000000000001E-002    -5.5028431035736972E-025
  -3.9000000000000000E-002    -1.5730039036368570E-024
  -3.8949999999999999E-002    -3.4674103920471033E-024
  -3.8900000000000004E-002    -6.1395444596334169E-024
  -3.8850000000000003E-002    -8.4457837181315485E-024
  -3.8800000000000001E-002    -7.2294347352146085E-024
  -3.8750000000000000E-002     3.6888097104971236E-024
  -3.8699999999999998E-002     3.4006727156640186E-023
  -3.8650000000000004E-002     9.5835828138913257E-023
  -3.8600000000000002E-002     1.9905628151036723E-022
  -3.8550000000000001E-002     3.4019566300388117E-022
  -3.8500000000000000E-002     4.8184615893773874E-022
  -3.8449999999999998E-002     5.2294091095991446E-022
  -3.8400000000000004E-002     2.6985046937893531E-022
  -3.8350000000000002E-002    -5.6502292719283198E-022
  -3.8300000000000001E-002    -2.2925993972430470E-021
  -3.8249999999999999E-002    -5.0566110747331324E-021
  -3.8199999999999998E-002    -8.5094176128204726E-021
  -3.8150000000000003E-002    -1.1427982413183324E-020
  -3.8100000000000002E-002    -1.1473671307705158E-020
  -3.8050000000000000E-002    -5.4135246681114737E-021
  -3.7999999999999999E-002     9.8824429311369188E-021
  -3.7949999999999998E-002     3.5577096931745362E-020
  -3.7900000000000003E-002     6.8517800448031697E-020
  -3.7850000000000002E-002     9.9385555189687136E-020
  -3.7800000000000000E-002     1.1274738203825418E-019
  -3.7749999999999999E-002     9.0276735147246649E-020
  -3.7699999999999997E-002     1.7426928997340534E-020
  -3.7650000000000003E-002    -1.0788384186808739E-019
  -3.7600000000000001E-002    -2.6788103782068316E-019
  -3.7550000000000000E-002    -4.2312334739333281E-019
  -3.7499999999999999E-002    -5.1965264176478725E-019
  -3.7449999999999997E-002    -5.0530899566980860E-019
  -3.7400000000000003E-002    -3.5074800514805586E-019
  -3.7350000000000001E-002    -6.6514898576729257E-020
  -3.7300000000000000E-002     2.9363316060582006E-019
  -3.7249999999999998E-002     6.4923417861299093E-019
  -3.7200000000000004E-002     9.2702772772303150E-019
  -3.7150000000000002E-002     1.0993309604239530E-018
  -3.7100000000000001E-002     1.2063846032561188E-018
  -3.7050000000000000E-002     1.3427240007528545E-018
  -3.6999999999999998E-002     1.5991434512335304E-018
  -3.6950000000000004E-002     1.9725752375665729E-018
  -3.6900000000000002E-002     2.2792465384601348E-018
  -3.6850000000000001E-002     2.1213762766884399E-018
  -3.6799999999999999E-002     9.5425243124991515E-019
  -3.6749999999999998E-002    -1.7264335423357105E-018
  -3.6700000000000003E-002    -6.1041477920306453E-018
  -3.6650000000000002E-002    -1.1748997639359846E-017
  -3.6600000000000001E-002    -1.7434477686252681E-017
  -3.6549999999999999E-002    -2.1190090904266906E-017
  -3.6499999999999998E-002    -2.0672309583546167E-017
  -3.6450000000000003E-002    -1.3843175426655250E-017
  -3.6400000000000002E-002     1.7671652899345670E-019
  -3.6350000000000000E-002     2.0328516875248316E-017
  -3.6299999999999999E-002     4.3216116550161561E-017
  -3.6249999999999998E-002     6.3359818627433995E-017
  -3.6200000000000003E-002     7.4227468184856103E-017
  -3.6150000000000002E-002     6.9929825115066312E-017
  -3.6100000000000000E-002     4.7201422884531836E-017
  -3.6049999999999999E-002     7.0860740330016801E-018
  -3.6000000000000004E-002    -4.4299692620778432E-017
  -3.5950000000000003E-002    -9.6386037524156447E-017
  -3.5900000000000001E-002    -1.3624731523378577E-016
  -3.5850000000000000E-002    -1.5179929677855889E-016
  -3.5799999999999998E-002    -1.3528928268573785E-016
  -3.5750000000000004E-002    -8.6053001541075095E-017
  -3.5700000000000003E-002    -1.1615529581261386E-017
  -3.5650000000000001E-002     7.3355124278876276E-017
  -3.5600000000000000E-002     1.5009240923194264E-016
  -3.5549999999999998E-002     1.9999217462914714E-016
  -3.5500000000000004E-002     2.0891928154532949E-016
  -3.5450000000000002E-002     1.7040698479815583E-016
  -3.5400000000000001E-002     8.7029325564675071E-017
  -3.5349999999999999E-002    -3.0088225523639544E-017
  -3.5299999999999998E-002    -1.6301056414028652E-016
  -3.5250000000000004E-002    -2.8907562045638340E-016
  -3.5200000000000002E-002    -3.8262649137182173E-016
  -3.5150000000000001E-002    -4.1639346017948678E-016
  -3.5099999999999999E-002    -3.6338338254921711E-016
  -3.5049999999999998E-002    -2.0068662489345514E-016
  -3.5000000000000003E-002     8.3603302528818681E-017
  -3.4950000000000002E-002     4.8036501455172512E-016
  -3.4900000000000000E-002     9.4833408442976975E-016
  -3.4849999999999999E-002     1.4060763716071254E-015
  -3.4799999999999998E-002     1.7325864370784133E-015
  -3.4750000000000003E-002     1.7816261238293446E-015
  -3.4700000000000002E-002     1.4121295374912955E-015
  -3.4650000000000000E-002     5.3204301584941319E-016
  -3.4599999999999999E-002    -8.5306958589572114E-016
  -3.4549999999999997E-002    -2.6005498495474763E-015
  -3.4500000000000003E-002    -4.4164481061121658E-015
  -3.4450000000000001E-002    -5.8802909596671328E-015
  -3.4400000000000000E-002    -6.5147293052903262E-015
  -3.4349999999999999E-002    -5.8939949944082116E-015
  -3.4299999999999997E-002    -3.7716059674981171E-015
  -3.4250000000000003E-002    -1.9668107748411715E-016
  -3.4200000000000001E-002     4.4164958442691226E-015
  -3.4150000000000000E-002     9.2964899610025126E-015
  -3.4099999999999998E-002     1.3416795102797939E-014
  -3.4049999999999997E-002     1.5686407554022312E-014
  -3.4000000000000002E-002     1.5198446352369522E-014
  -3.3950000000000001E-002     1.1485026690878448E-014
  -3.3900000000000000E-002     4.7152609174107367E-015
  -3.3849999999999998E-002    -4.2233731589507630E-015
  -3.3799999999999997E-002    -1.3800638094844204E-014
  -3.3750000000000002E-002    -2.2083710768377627E-014
  -3.3700000000000001E-002    -2.7110140104773461E-014
  -3.3649999999999999E-002    -2.7324870182013004E-014
  -3.3599999999999998E-002    -2.1987874363494105E-014
  -3.3550000000000003E-002    -1.1454014592309131E-014
  -3.3500000000000002E-002     2.7551156132614599E-015
  -3.3450000000000001E-002     1.8128379002936231E-014
  -3.3399999999999999E-002     3.1579713183088303E-014
  -3.3349999999999998E-002     4.0033944145559558E-014
  -3.3300000000000003E-002     4.1073823511345831E-014
  -3.3250000000000002E-002     3.3516238553662633E-014
  -3.3200000000000000E-002     1.7791259357175354E-014
  -3.3149999999999999E-002    -3.9687069762331674E-015
  -3.3099999999999997E-002    -2.8168066007438147E-014
  -3.3050000000000003E-002    -5.0290151570350509E-014
  -3.3000000000000002E-002    -6.5657415267863324E-014
  -3.2950000000000000E-002    -7.0281842268630654E-014
  -3.2899999999999999E-002    -6.1659277097859682E-014
  -3.2850000000000004E-002    -3.9369370947233555E-014
  -3.2800000000000003E-002    -5.3740397955213827E-015
  -3.2750000000000001E-002     3.6046859031468102E-014
  -3.2700000000000000E-002     7.8732188438526584E-014
  -3.2649999999999998E-002     1.1540921839899609E-013
  -3.2600000000000004E-002     1.3871531064060583E-013
  -3.2550000000000003E-002     1.4235773847267046E-013
  -3.2500000000000001E-002     1.2227249421869305E-013
  -3.2450000000000000E-002     7.7624685615167375E-014
  -3.2399999999999998E-002     1.1483980005105036E-014
  -3.2350000000000004E-002    -6.8986872568870242E-014
  -3.2300000000000002E-002    -1.5296276654776386E-013
  -3.2250000000000001E-002    -2.2707728022482537E-013
  -3.2199999999999999E-002    -2.7720630165598234E-013
  -3.2149999999999998E-002    -2.9075752133565779E-013
  -3.2100000000000004E-002    -2.5916718680725283E-013
  -3.2050000000000002E-002    -1.8018291981465444E-013
  -3.2000000000000001E-002    -5.9444316699842006E-014
  -3.1949999999999999E-002     8.9103762687658165E-014
  -3.1899999999999998E-002     2.4429669866213723E-013
  -3.1850000000000003E-002     3.8042343539680633E-013
  -3.1800000000000002E-002     4.7125956743464924E-013
  -3.1750000000000000E-002     4.9489614199566921E-013
  -3.1699999999999999E-002     4.3852403840105328E-013
  -3.1649999999999998E-002     3.0219174227088857E-013
  -3.1600000000000003E-002     1.0060483305072934E-013
  -3.1550000000000002E-002    -1.3769779177928929E-013
  -3.1500000000000000E-002    -3.7400282593027333E-013
  -3.1449999999999999E-002    -5.6555864943406497E-013
  -3.1399999999999997E-002    -6.7326400879692989E-013
  -3.1350000000000003E-002    -6.6954096903706040E-013
  -3.1300000000000001E-002    -5.4482335584284439E-013
  -3.1250000000000000E-002    -3.1120836354272367E-013
  -3.1199999999999999E-002    -2.2533366094550741E-015
  -3.1150000000000001E-002     3.3140324356090324E-013
  -3.1100000000000003E-002     6.3009450592735328E-013
  -3.1050000000000001E-002     8.3556431736038180E-013
  -3.1000000000000000E-002     9.0193504694298851E-013
  -3.0949999999999998E-002     8.0512037925217396E-013
  -3.0900000000000000E-002     5.4879164780794620E-013
  -3.0850000000000002E-002     1.6558773331845722E-013
  -3.0800000000000001E-002    -2.8687582793483126E-013
  -3.0750000000000000E-002    -7.3466734911144669E-013
  -3.0699999999999998E-002    -1.0994530370941058E-012
  -3.0650000000000000E-002    -1.3116316467630006E-012
  -3.0600000000000002E-002    -1.3224336854503403E-012
  -3.0550000000000001E-002    -1.1129239146670625E-012
  -3.0499999999999999E-002    -6.9841214108328711E-013
  -3.0449999999999998E-002    -1.2757625920114234E-013
  -3.0400000000000000E-002     5.2353225449820694E-013
  -3.0350000000000002E-002     1.1616623872272839E-012
  -3.0300000000000001E-002     1.6892275834419342E-012
  -3.0249999999999999E-002     2.0180967508521469E-012
  -3.0200000000000001E-002     2.0825383506595792E-012
  -3.0150000000000000E-002     1.8497234180305545E-012
  -3.0100000000000002E-002     1.3265058976182677E-012
  -3.0050000000000000E-002     5.6155242631512302E-013
  -2.9999999999999999E-002    -3.5771989334133315E-013
  -2.9950000000000001E-002    -1.3135152151845972E-012
  -2.9899999999999999E-002    -2.1709601144619645E-012
  -2.9850000000000002E-002    -2.7953474671111086E-012
  -2.9800000000000000E-002    -3.0716478602991540E-012
  -2.9749999999999999E-002    -2.9239151824986140E-012
  -2.9700000000000001E-002    -2.3316613327062603E-012
  -2.9650000000000003E-002    -1.3400915656877524E-012
  -2.9600000000000001E-002    -6.1409498222318133E-014
  -2.9550000000000000E-002     1.3346073999116619E-012
  -2.9499999999999998E-002     2.6409787823069416E-012
  -2.9450000000000000E-002     3.6430416500847193E-012
  -2.9400000000000003E-002     4.1532521641494881E-012
  -2.9350000000000001E-002     4.0457182771187384E-012
  -2.9300000000000000E-002     3.2840843996977814E-012
  -2.9249999999999998E-002     1.9367454733989495E-012
  -2.9200000000000000E-002     1.7503659122921058E-013
  -2.9150000000000002E-002    -1.7471497970549912E-012
  -2.9100000000000001E-002    -3.5303888183968938E-012
  -2.9049999999999999E-002    -4.8779805273719995E-012
  -2.8999999999999998E-002    -5.5473177284639397E-012
  -2.8950000000000000E-002    -5.3949459209477074E-012
  -2.8900000000000002E-002    -4.4064481215709403E-012
  -2.8850000000000001E-002    -2.7046824545431517E-012
  -2.8799999999999999E-002    -5.3377895073888471E-013
  -2.8749999999999998E-002     1.7790950024249966E-012
  -2.8700000000000000E-002     3.8777932234057730E-012
  -2.8650000000000002E-002     5.4374264420408748E-012
  -2.8600000000000000E-002     6.2197389859839707E-012
  -2.8549999999999999E-002     6.1134054495110927E-012
  -2.8500000000000001E-002     5.1518704187440647E-012
  -2.8450000000000000E-002     3.5056535765727863E-012
  -2.8400000000000002E-002     1.4508861662635340E-012
  -2.8350000000000000E-002    -6.7979954060257891E-013
  -2.8299999999999999E-002    -2.5548713019337039E-012
  -2.8250000000000001E-002    -3.8996888936420754E-012
  -2.8200000000000003E-002    -4.5410441218001606E-012
  -2.8150000000000001E-002    -4.4335544664076569E-012
  -2.8100000000000000E-002    -3.6645246506452022E-012
  -2.8049999999999999E-002    -2.4376655582004116E-012
  -2.8000000000000001E-002    -1.0392489657802827E-012
  -2.7950000000000003E-002     2.0757038689788392E-013
  -2.7900000000000001E-002     9.9361780920399253E-013
  -2.7850000000000000E-002     1.0733177311264930E-012
  -2.7799999999999998E-002     3.0757363216763082E-013
  -2.7750000000000000E-002    -1.3043366915155832E-012
  -2.7700000000000002E-002    -3.6068758392563735E-012
  -2.7650000000000001E-002    -6.2863905431867400E-012
  -2.7600000000000000E-002    -8.8864409153573948E-012
  -2.7549999999999998E-002    -1.0840430870742025E-011
  -2.7500000000000000E-002    -1.1520353773501676E-011
  -2.7450000000000002E-002    -1.0298441902142816E-011
  -2.7400000000000001E-002    -6.6162930546793668E-012
  -2.7349999999999999E-002    -5.3533854967050221E-014
  -2.7299999999999998E-002     9.6136201311483184E-012
  -2.7250000000000000E-002     2.2374071446267870E-011
  -2.7200000000000002E-002     3.7972479656077659E-011
  -2.7150000000000001E-002     5.5934045763883249E-011
  -2.7099999999999999E-002     7.5623226492002085E-011
  -2.7049999999999998E-002     9.6330085429153150E-011
  -2.7000000000000000E-002     1.1737174128223929E-010
  -2.6950000000000002E-002     1.3819249328041875E-010
  -2.6900000000000000E-002     1.5844466201181882E-010
  -2.6849999999999999E-002     1.7803426145071593E-010
  -2.6800000000000001E-002     1.9712161660694087E-010
  -2.6749999999999999E-002     2.1607463625765339E-010
  -2.6700000000000002E-002     2.3538208371603904E-010
  -2.6650000000000000E-002     2.5554196844184962E-010
  -2.6599999999999999E-002     2.7694640945418042E-010
  -2.6550000000000001E-002     2.9978454098446992E-010
  -2.6500000000000003E-002     3.2398331371185173E-010
  -2.6450000000000001E-002     3.4919858264518854E-010
  -2.6400000000000000E-002     3.7485898792726202E-010
  -2.6349999999999998E-002     4.0025562413171737E-010
  -2.6300000000000000E-002     4.2466097974646230E-010
  -2.6250000000000002E-002     4.4745556469546169E-010
  -2.6200000000000001E-002     4.6823842803430026E-010
  -2.6150000000000000E-002     4.8690257849709199E-010
  -2.6099999999999998E-002     5.0366071235399323E-010
  -2.6050000000000000E-002     5.1901835513695686E-010
  -2.6000000000000002E-002     5.3369902848960620E-010
  -2.5950000000000001E-002     5.4853607545049356E-010
  -2.5899999999999999E-002     5.6434948060835844E-010
  -2.5849999999999998E-002     5.8182892604414421E-010
  -2.5800000000000000E-002     6.0144130896517864E-010
  -2.5750000000000002E-002     6.2337682635813667E-010
  -2.5700000000000001E-002     6.4753901600393161E-010
  -2.5649999999999999E-002     6.7357777010201521E-010
  -2.5599999999999998E-002     7.0095711886807656E-010
  -2.5550000000000000E-002     7.2904557453151170E-010
  -2.5500000000000002E-002     7.5721353750388176E-010
  -2.5450000000000000E-002     7.8492408435373714E-010
  -2.5399999999999999E-002     8.1180570119882065E-010
  -2.5349999999999998E-002     8.3769873107722246E-010
  -2.5300000000000000E-002     8.6267297015570483E-010
  -2.5250000000000002E-002     8.8701597299981572E-010
  -2.5200000000000000E-002     9.1119636643828361E-010
  -2.5149999999999999E-002     9.3580631746766022E-010
  -2.5100000000000001E-002     9.6149119037549728E-010
  -2.5049999999999999E-002     9.8887188755002592E-010
  -2.5000000000000001E-002     1.0184687313611026E-009
  -2.4950000000000000E-002     1.0506339861727837E-009
  -2.4899999999999999E-002     1.0855018474357097E-009
  -2.4850000000000001E-002     1.1229628057898520E-009
  -2.4800000000000003E-002     1.1626689684638336E-009
  -2.4750000000000001E-002     1.2040731869549243E-009
  -2.4700000000000000E-002     1.2465005046715856E-009
  -2.4649999999999998E-002     1.2892459690424395E-009
  -2.4600000000000000E-002     1.3316859454852796E-009
  -2.4550000000000002E-002     1.3733860677247508E-009
  -2.4500000000000001E-002     1.4141893965579454E-009
  -2.4450000000000000E-002     1.4542648906930503E-009
  -2.4399999999999998E-002     1.4941065648348689E-009
  -2.4350000000000000E-002     1.5344784802186384E-009
  -2.4299999999999999E-002     1.5763110053202655E-009
  -2.4250000000000001E-002     1.6205648960103900E-009
  -2.4199999999999999E-002     1.6680856196902847E-009
  -2.4150000000000001E-002     1.7194730362548669E-009
  -2.4100000000000000E-002     1.7749905575029703E-009
  -2.4049999999999998E-002     1.8345314144041475E-009
  -2.4000000000000000E-002     1.8976481806967803E-009
  -2.3949999999999999E-002     1.9636420801097187E-009
  -2.3900000000000001E-002     2.0316933727317879E-009
  -2.3850000000000000E-002     2.1010134275466697E-009
  -2.3800000000000002E-002     2.1709836965474067E-009
  -2.3750000000000000E-002     2.2412636553236969E-009
  -2.3699999999999999E-002     2.3118440152366902E-009
  -2.3650000000000001E-002     2.3830387969572960E-009
  -2.3599999999999999E-002     2.4554188886305355E-009
  -2.3550000000000001E-002     2.5296989468276252E-009
  -2.3500000000000000E-002     2.6066031445175543E-009
  -2.3449999999999999E-002     2.6867294490265574E-009
  -2.3400000000000001E-002     2.7704416585209251E-009
  -2.3349999999999999E-002     2.8578042303652083E-009
  -2.3300000000000001E-002     2.9485738568073650E-009
  -2.3250000000000000E-002     3.0422470708064580E-009
  -2.3199999999999998E-002     3.1381543759731041E-009
  -2.3150000000000000E-002     3.2355846598656268E-009
  -2.3099999999999999E-002     3.3339173369745387E-009
  -2.3050000000000001E-002     3.4327384356100255E-009
  -2.3000000000000000E-002     3.5319237529508869E-009
  -2.2950000000000002E-002     3.6316737192414991E-009
  -2.2900000000000000E-002     3.7324978631229415E-009
  -2.2849999999999999E-002     3.8351546187679991E-009
  -2.2800000000000001E-002     3.9405587547734834E-009
  -2.2749999999999999E-002     4.0496722488471952E-009
  -2.2700000000000001E-002     4.1634014279113581E-009
  -2.2650000000000000E-002     4.2825150898374314E-009
  -2.2599999999999999E-002     4.4075913213888517E-009
  -2.2550000000000001E-002     4.5389995889751532E-009
  -2.2499999999999999E-002     4.6769099073127337E-009
  -2.2450000000000001E-002     4.8213270394909646E-009
  -2.2400000000000000E-002     4.9721336338413082E-009
  -2.2349999999999998E-002     5.1291342055937251E-009
  -2.2300000000000000E-002     5.2920990188729169E-009
  -2.2249999999999999E-002     5.4607983548581371E-009
  -2.2200000000000001E-002     5.6350366333088086E-009
  -2.2150000000000000E-002     5.8146802138088010E-009
  -2.2100000000000002E-002     5.9996827935704134E-009
  -2.2050000000000000E-002     6.1901060509828389E-009
  -2.1999999999999999E-002     6.3861273677872735E-009
  -2.1950000000000001E-002     6.5880235597287781E-009
  -2.1899999999999999E-002     6.7961336728588952E-009
  -2.1850000000000001E-002     7.0107987814269541E-009
  -2.1800000000000000E-002     7.2322798268251245E-009
  -2.1749999999999999E-002     7.4606741745865484E-009
  -2.1700000000000001E-002     7.6958496322796579E-009
  -2.1649999999999999E-002     7.9374152849991377E-009
  -2.1600000000000001E-002     8.1847317579416683E-009
  -2.1550000000000000E-002     8.4369756948699171E-009
  -2.1499999999999998E-002     8.6932507153535766E-009
  -2.1450000000000000E-002     8.9527182153065375E-009
  -2.1399999999999999E-002     9.2147271185808001E-009
  -2.1350000000000001E-002     9.4789174129032385E-009
  -2.1299999999999999E-002     9.7452824008010215E-009
  -2.1250000000000002E-002     1.0014168609221532E-008
  -2.1200000000000000E-002     1.0286226951368004E-008
  -2.1149999999999999E-002     1.0562324607497333E-008
  -2.1100000000000001E-002     1.0843444404856612E-008
  -2.1049999999999999E-002     1.1130584785988489E-008
  -2.1000000000000001E-002     1.1424692701328079E-008
  -2.0950000000000000E-002     1.1726628153408490E-008
  -2.0899999999999998E-002     1.2037161202447550E-008
  -2.0850000000000000E-002     1.2357003933108456E-008
  -2.0799999999999999E-002     1.2686851405695590E-008
  -2.0750000000000001E-002     1.3027427794563427E-008
  -2.0700000000000000E-002     1.3379524245021246E-008
  -2.0649999999999998E-002     1.3744027635860552E-008
  -2.0600000000000000E-002     1.4121925131077632E-008
  -2.0549999999999999E-002     1.4514305622465794E-008
  -2.0500000000000001E-002     1.4922339810857333E-008
  -2.0449999999999999E-002     1.5347247340056717E-008
  -2.0400000000000001E-002     1.5790251133700883E-008
  -2.0350000000000000E-002     1.6252522878560175E-008
  -2.0299999999999999E-002     1.6735104026663701E-008
  -2.0250000000000001E-002     1.7238832231426010E-008
  -2.0199999999999999E-002     1.7764267437081576E-008
  -2.0150000000000001E-002     1.8311644670588465E-008
  -2.0100000000000000E-002     1.8880844025183976E-008
  -2.0049999999999998E-002     1.9471409136382202E-008
  -2.0000000000000000E-002     2.0082606634257671E-008
  -1.9949999999999999E-002     2.0713502113726127E-008
  -1.9900000000000001E-002     2.1363047555104130E-008
  -1.9850000000000000E-002     2.2030171007882069E-008
  -1.9799999999999998E-002     2.2713838343236658E-008
  -1.9750000000000000E-002     2.3413068448446368E-008
  -1.9699999999999999E-002     2.4126926082050094E-008
  -1.9650000000000001E-002     2.4854482561900991E-008
  -1.9599999999999999E-002     2.5594769876749279E-008
  -1.9550000000000001E-002     2.6346740411424179E-008
  -1.9500000000000000E-002     2.7109260364379503E-008
  -1.9449999999999999E-002     2.7881121504382443E-008
  -1.9400000000000001E-002     2.8661099073446316E-008
  -1.9349999999999999E-002     2.9448037721566114E-008
  -1.9300000000000001E-002     3.0240952910147341E-008
  -1.9250000000000000E-002     3.1039132393231505E-008
  -1.9199999999999998E-002     3.1842221720884617E-008
  -1.9150000000000000E-002     3.2650290938556668E-008
  -1.9099999999999999E-002     3.3463882416080196E-008
  -1.9050000000000001E-002     3.4284037928134876E-008
  -1.9000000000000000E-002     3.5112303187564002E-008
  -1.8949999999999998E-002     3.5950759710759165E-008
  -1.8900000000000000E-002     3.6802006072413663E-008
  -1.8849999999999999E-002     3.7669159290301444E-008
  -1.8800000000000001E-002     3.8555816827279000E-008
  -1.8749999999999999E-002     3.9466027823516516E-008
  -1.8700000000000001E-002     4.0404202636177555E-008
  -1.8650000000000000E-002     4.1375035390903964E-008
  -1.8599999999999998E-002     4.2383419268403328E-008
  -1.8550000000000001E-002     4.3434368237512461E-008
  -1.8499999999999999E-002     4.4532919179894832E-008
  -1.8450000000000001E-002     4.5684074442572496E-008
  -1.8400000000000000E-002     4.6892715021496287E-008
  -1.8349999999999998E-002     4.8163515640361667E-008
  -1.8300000000000000E-002     4.9500850798081669E-008
  -1.8249999999999999E-002     5.0908687276755309E-008
  -1.8200000000000001E-002     5.2390541002046179E-008
  -1.8149999999999999E-002     5.3949350862134249E-008
  -1.8100000000000002E-002     5.5587437420942371E-008
  -1.8050000000000000E-002     5.7306471088014729E-008
  -1.7999999999999999E-002     5.9107485699633690E-008
  -1.7950000000000001E-002     6.0990881840782332E-008
  -1.7899999999999999E-002     6.2956459127005810E-008
  -1.7850000000000001E-002     6.5003472577069976E-008
  -1.7800000000000000E-002     6.7130658169821818E-008
  -1.7749999999999998E-002     6.9336263535175143E-008
  -1.7700000000000000E-002     7.1618045506467579E-008
  -1.7649999999999999E-002     7.3973258726307094E-008
  -1.7600000000000001E-002     7.6398660904628149E-008
  -1.7550000000000000E-002     7.8890525167493419E-008
  -1.7499999999999998E-002     8.1444671748138327E-008
  -1.7450000000000000E-002     8.4056556503311239E-008
  -1.7399999999999999E-002     8.6721357934404790E-008
  -1.7350000000000001E-002     8.9434052283569963E-008
  -1.7299999999999999E-002     9.2189550732553628E-008
  -1.7250000000000001E-002     9.4982732508607529E-008
  -1.7200000000000000E-002     9.7808576643215244E-008
  -1.7149999999999999E-002     1.0066217151470057E-007
  -1.7100000000000001E-002     1.0353883722714068E-007
  -1.7049999999999999E-002     1.0643418063492918E-007
  -1.7000000000000001E-002     1.0934416801335800E-007
  -1.6950000000000000E-002     1.1226534438262261E-007
  -1.6899999999999998E-002     1.1519489587367439E-007
  -1.6850000000000000E-002     1.1813082110064078E-007
  -1.6799999999999999E-002     1.2107211440179543E-007
  -1.6750000000000001E-002     1.2401876410597074E-007
  -1.6700000000000000E-002     1.2697182991368364E-007
  -1.6649999999999998E-002     1.2993345704011013E-007
  -1.6600000000000000E-002     1.3290671968150497E-007
  -1.6549999999999999E-002     1.3589557446512239E-007
  -1.6500000000000001E-002     1.3890472664979322E-007
  -1.6449999999999999E-002     1.4193942253385271E-007
  -1.6400000000000001E-002     1.4500533959098244E-007
  -1.6350000000000000E-002     1.4810849610590921E-007
  -1.6299999999999999E-002     1.5125514535016025E-007
  -1.6250000000000001E-002     1.5445163707192963E-007
  -1.6199999999999999E-002     1.5770441177433396E-007
  -1.6150000000000001E-002     1.6101988768136649E-007
  -1.6100000000000000E-002     1.6440439686535864E-007
  -1.6049999999999998E-002     1.6786414387339406E-007
  -1.6000000000000000E-002     1.7140509037648476E-007
  -1.5949999999999999E-002     1.7503297006279582E-007
  -1.5900000000000001E-002     1.7875324705557405E-007
  -1.5850000000000000E-002     1.8257099674870268E-007
  -1.5799999999999998E-002     1.8649088082484078E-007
  -1.5750000000000000E-002     1.9051708623488621E-007
  -1.5699999999999999E-002     1.9465325296837789E-007
  -1.5650000000000001E-002     1.9890249714276483E-007
  -1.5599999999999999E-002     2.0326743909616944E-007
  -1.5550000000000001E-002     2.0775023849092140E-007
  -1.5500000000000000E-002     2.1235266307373982E-007
  -1.5449999999999998E-002     2.1707616651143145E-007
  -1.5400000000000000E-002     2.2192194977548550E-007
  -1.5349999999999999E-002     2.2689090287734024E-007
  -1.5300000000000001E-002     2.3198371355331396E-007
  -1.5250000000000000E-002     2.3720082364948311E-007
  -1.5199999999999998E-002     2.4254247601118288E-007
  -1.5150000000000000E-002     2.4800878621275477E-007
  -1.5099999999999999E-002     2.5359975814715839E-007
  -1.5050000000000001E-002     2.5931541227374803E-007
  -1.4999999999999999E-002     2.6515587166174801E-007
  -1.4949999999999998E-002     2.7112130590782231E-007
  -1.4900000000000000E-002     2.7721212644065938E-007
  -1.4849999999999999E-002     2.8342901568532961E-007
  -1.4800000000000001E-002     2.8977290237100501E-007
  -1.4749999999999999E-002     2.9624508941522285E-007
  -1.4700000000000001E-002     3.0284716233643595E-007
  -1.4650000000000000E-002     3.0958092654176579E-007
  -1.4599999999999998E-002     3.1644839678423780E-007
  -1.4550000000000000E-002     3.2345181433347821E-007
  -1.4499999999999999E-002     3.3059361982691453E-007
  -1.4450000000000001E-002     3.3787677633067172E-007
  -1.4400000000000000E-002     3.4530471608869373E-007
  -1.4349999999999998E-002     3.5288143659903868E-007
  -1.4300000000000000E-002     3.6061156386703722E-007
  -1.4249999999999999E-002     3.6850013088206072E-007
  -1.4200000000000001E-002     3.7655236534466408E-007
  -1.4149999999999999E-002     3.8477349332792625E-007
  -1.4099999999999998E-002     3.9316847330830791E-007
  -1.4050000000000000E-002     4.0174196375617466E-007
  -1.3999999999999999E-002     4.1049810077781259E-007
  -1.3950000000000001E-002     4.1944072822513532E-007
  -1.3899999999999999E-002     4.2857341474783748E-007
  -1.3850000000000001E-002     4.3789951281730823E-007
  -1.3800000000000000E-002     4.4742213120069797E-007
  -1.3749999999999998E-002     4.5714431225433419E-007
  -1.3700000000000000E-002     4.6706873435264398E-007
  -1.3649999999999999E-002     4.7719793832444813E-007
  -1.3600000000000001E-002     4.8753404420564862E-007
  -1.3550000000000000E-002     4.9807887591990348E-007
  -1.3499999999999998E-002     5.0883393809480520E-007
  -1.3450000000000000E-002     5.1980038483772236E-007
  -1.3399999999999999E-002     5.3097918245665447E-007
  -1.3350000000000001E-002     5.4237112868628491E-007
  -1.3299999999999999E-002     5.5397705699729310E-007
  -1.3249999999999998E-002     5.6579802208846218E-007
  -1.3200000000000000E-002     5.7783567547631873E-007
  -1.3149999999999998E-002     5.9009231458170828E-007
  -1.3100000000000001E-002     6.0257090267095202E-007
  -1.3049999999999999E-002     6.1527486327021181E-007
  -1.3000000000000001E-002     6.2820799613644681E-007
  -1.2950000000000000E-002     6.4137444174371170E-007
  -1.2899999999999998E-002     6.5477861653559587E-007
  -1.2850000000000000E-002     6.6842480293333608E-007
  -1.2799999999999999E-002     6.8231766052687219E-007