  -4.0000000000000001E-002     0.0000000000000000     
  -3.9949999999999999E-002     0.0000000000000000     
  -3.9899999999999998E-002     0.0000000000000000     
  -3.9850000000000003E-002     0.0000000000000000     
  -3.9800000000000002E-002     0.0000000000000000     
  -3.9750000000000001E-002     1.8545757201904040E-020
  -3.9699999999999999E-002     1.7480828833367183E-019
  -3.9649999999999998E-002     8.8166092713899051E-019
  -3.9600000000000003E-002     3.1705107259584019E-018
  -3.9550000000000002E-002     9.1667066801504607E-018
  -3.9500000000000000E-002     2.2807826752712740E-017
  -3.9449999999999999E-002     5.0929691421157933E-017
  -3.9399999999999998E-002     1.0444411988403229E-016
  -3.9350000000000003E-002     1.9803379940962226E-016
  -3.9300000000000002E-002     3.4468463892301683E-016
  -3.9250000000000000E-002     5.3982674983890251E-016
  -3.9199999999999999E-002     7.3154269095740159E-016
  -3.9150000000000004E-002     7.8089326822505641E-016
  -3.9100000000000003E-002     4.2997823209011089E-016
  -3.9050000000000001E-002    -6.9005004992716056E-016
  -3.9000000000000000E-002    -2.9732486802508347E-015
  -3.8949999999999999E-002    -6.6525229801664486E-015
  -3.8900000000000004E-002    -1.1530606315422998E-014
  -3.8850000000000003E-002    -1.6705693810476506E-014
  -3.8800000000000001E-002    -2.0423839997901629E-014
  -3.8750000000000000E-002    -2.0207655251592812E-014
  -3.8699999999999998E-002    -1.3362826846154117E-014
  -3.8650000000000004E-002     2.1558078960706785E-015
  -3.8600000000000002E-002     2.6700497948350665E-014
  -3.8550000000000001E-002     5.8038435917095340E-014
  -3.8500000000000000E-002     9.0998366277709565E-014
  -3.8449999999999998E-002     1.1795717417183526E-013
  -3.8400000000000004E-002     1.3023432136751320E-013
  -3.8350000000000002E-002     1.2014396937477960E-013
  -3.8300000000000001E-002     8.3167502007949770E-014
  -3.8249999999999999E-002     1.9580318943769139E-014
  -3.8199999999999998E-002    -6.5023658248913618E-014
  -3.8150000000000003E-002    -1.6053011560556241E-013
  -3.8100000000000002E-002    -2.5419441749415866E-013
  -3.8050000000000000E-002    -3.3300513496636187E-013
  -3.7999999999999999E-002    -3.8574625667842171E-013
  -3.7949999999999998E-002    -4.0413856368649038E-013
  -3.7900000000000003E-002    -3.8286238059906587E-013
  -3.7850000000000002E-002    -3.1878259541667979E-013
  -3.7800000000000000E-002    -2.1009469104083466E-013
  -3.7749999999999999E-002    -5.6209283543338517E-014
  -3.7699999999999997E-002     1.4108270671495402E-013
  -3.7650000000000003E-002     3.7519220754528896E-013
  -3.7600000000000001E-002     6.3177304686080523E-013
  -3.7550000000000000E-002     8.8648187131307622E-013
  -3.7499999999999999E-002     1.1049079839405990E-012
  -3.7449999999999997E-002     1.2458143505109266E-012
  -3.7400000000000003E-002     1.2680085974162888E-012
  -3.7350000000000001E-002     1.1399686881871091E-012
  -3.7300000000000000E-002     8.5008757774022630E-013
  -3.7249999999999998E-002     4.1447844598147952E-013
  -3.7200000000000004E-002    -1.2086363940097064E-013
  -3.7150000000000002E-002    -6.8582901398519527E-013
  -3.7100000000000001E-002    -1.2001719992789486E-012
  -3.7050000000000000E-002    -1.5932914661156145E-012
  -3.6999999999999998E-002    -1.8247853147887676E-012
  -3.6950000000000004E-002    -1.8991650278695055E-012
  -3.6900000000000002E-002    -1.8684094444717389E-012
  -3.6850000000000001E-002    -1.8185991394547977E-012
  -3.6799999999999999E-002    -1.8413675978690778E-012
  -3.6749999999999998E-002    -1.9962474562864707E-012
  -3.6700000000000003E-002    -2.2745389023736492E-012
  -3.6650000000000002E-002    -2.5773857182010053E-012
  -3.6600000000000001E-002    -2.7190604495019894E-012
  -3.6549999999999999E-002    -2.4608144004851774E-012
  -3.6499999999999998E-002    -1.5720629422661543E-012
  -3.6450000000000003E-002     9.3641022744754945E-014
  -3.6400000000000002E-002     2.5275988245256377E-012
  -3.6350000000000000E-002     5.5220427424796864E-012
  -3.6299999999999999E-002     8.6713883228751363E-012
  -3.6249999999999998E-002     1.1426532971166303E-011
  -3.6200000000000003E-002     1.3195957834773148E-011
  -3.6150000000000002E-002     1.3473295073287930E-011
  -3.6100000000000000E-002     1.1961308074203170E-011
  -3.6049999999999999E-002     8.6602933024638628E-012
  -3.6000000000000004E-002     3.8960878633914767E-012
  -3.5950000000000003E-002    -1.7226289016159075E-012
  -3.5900000000000001E-002    -7.4101323734472509E-012
  -3.5850000000000000E-002    -1.2348924896511659E-011
  -3.5799999999999998E-002    -1.5841374122155366E-011
  -3.5750000000000004E-002    -1.7434226304902982E-011
  -3.5700000000000003E-002    -1.6990726047857132E-011
  -3.5650000000000001E-002    -1.4698975778169923E-011
  -3.5600000000000000E-002    -1.1020333020805760E-011
  -3.5549999999999998E-002    -6.5936870030906770E-012
  -3.5500000000000004E-002    -2.1180057366401491E-012
  -3.5450000000000002E-002     1.7641409473022433E-012
  -3.5400000000000001E-002     4.5637098666011611E-012
  -3.5349999999999999E-002     6.0111719460518839E-012
  -3.5299999999999998E-002     6.0861629653761131E-012
  -3.5250000000000004E-002     5.0107918042696112E-012
  -3.5200000000000002E-002     3.2101873535807221E-012
  -3.5150000000000001E-002     1.2463722195939427E-012
  -3.5099999999999999E-002    -2.6627138292371639E-013
  -3.5049999999999998E-002    -7.5360203856808273E-013
  -3.5000000000000003E-002     2.2954235578106735E-013
  -3.4950000000000002E-002     2.9266588220846893E-012
  -3.4900000000000000E-002     7.3332360185369407E-012
  -3.4849999999999999E-002     1.3182861436540444E-011
  -3.4799999999999998E-002     1.9966170109839180E-011
  -3.4750000000000003E-002     2.6977339773326232E-011
  -3.4700000000000002E-002     3.3378785417725009E-011
  -3.4650000000000000E-002     3.8273476295940657E-011
  -3.4599999999999999E-002     4.0775550804824548E-011
  -3.4549999999999997E-002     4.0072503918053241E-011
  -3.4500000000000003E-002     3.5474132698752346E-011
  -3.4450000000000001E-002     2.6443364210040194E-011
  -3.4400000000000000E-002     1.2602179078509284E-011
  -3.4349999999999999E-002    -6.2956880598164115E-012
  -3.4299999999999997E-002    -3.0432071267616120E-011
  -3.4250000000000003E-002    -6.0031103444463655E-011
  -3.4200000000000001E-002    -9.5491484707582692E-011
  -3.4150000000000000E-002    -1.3751455885043569E-010
  -3.4099999999999998E-002    -1.8718585212659321E-010
  -3.4049999999999997E-002    -2.4596576027457026E-010
  -3.4000000000000002E-002    -3.1555818910721036E-010
  -3.3950000000000001E-002    -3.9765367514970170E-010
  -3.3900000000000000E-002    -4.9358023182930523E-010
  -3.3849999999999998E-002    -6.0392875349523619E-010
  -3.3799999999999997E-002    -7.2824062323606852E-010
  -3.3750000000000002E-002    -8.6484038532041879E-010
  -3.3700000000000001E-002    -1.0108683310691204E-009
  -3.3649999999999999E-002    -1.1625227067625070E-009
  -3.3599999999999998E-002    -1.3154692316922735E-009
  -3.3550000000000003E-002    -1.4653361333987352E-009
  -3.3500000000000002E-002    -1.6081963903675155E-009
  -3.3450000000000001E-002    -1.7409512627821315E-009
  -3.3399999999999999E-002    -1.8615609619564807E-009
  -3.3349999999999998E-002    -1.9691162129561013E-009
  -3.3300000000000003E-002    -2.0637790068985037E-009
  -3.3250000000000002E-002    -2.1466477715206003E-009
  -3.3200000000000000E-002    -2.2195937134325642E-009
  -3.3149999999999999E-002    -2.2850989213803345E-009
  -3.3099999999999997E-002    -2.3460938125261136E-009
  -3.3050000000000003E-002    -2.4057755374486337E-009
  -3.3000000000000002E-002    -2.4673774104096137E-009
  -3.2950000000000000E-002    -2.5338855384018529E-009
  -3.2899999999999999E-002    -2.6077286877241389E-009
  -3.2850000000000004E-002    -2.6904990870281126E-009
  -3.2800000000000003E-002    -2.7827797923986346E-009
  -3.2750000000000001E-002    -2.8841447402591577E-009
  -3.2700000000000000E-002    -2.9933532681391510E-009
  -3.2649999999999998E-002    -3.1087087072885085E-009
  -3.2600000000000004E-002    -3.2284881948684524E-009
  -3.2550000000000003E-002    -3.3513198326173536E-009
  -3.2500000000000001E-002    -3.4763919758985643E-009
  -3.2450000000000000E-002    -3.6034200828929247E-009
  -3.2399999999999998E-002    -3.7323805528625037E-009
  -3.2350000000000004E-002    -3.8630956320590260E-009
  -3.2300000000000002E-002    -3.9948185671922000E-009
  -3.2250000000000001E-002    -4.1259755076598832E-009
  -3.2199999999999999E-002    -4.2541789796650199E-009
  -3.2149999999999998E-002    -4.3765507825669378E-009
  -3.2100000000000004E-002    -4.4902802015006413E-009
  -3.2050000000000002E-002    -4.5932683628497418E-009
  -3.2000000000000001E-002    -4.6846705391619929E-009
  -3.1949999999999999E-002    -4.7651634458018342E-009
  -3.1899999999999998E-002    -4.8368615130803951E-009
  -3.1850000000000003E-002    -4.9028929388312807E-009
  -3.1800000000000002E-002    -4.9667751301437786E-009
  -3.1750000000000000E-002    -5.0317766865215584E-009
  -3.1699999999999999E-002    -5.1004570054102454E-009
  -3.1649999999999998E-002    -5.1745094659128250E-009
  -3.1600000000000003E-002    -5.2549268816867784E-009
  -3.1550000000000002E-002    -5.3423906411720956E-009
  -3.1500000000000000E-002    -5.4377055023477843E-009
  -3.1449999999999999E-002    -5.5420920005149808E-009
  -3.1399999999999997E-002    -5.6571982308291547E-009
  -3.1350000000000003E-002    -5.7848088786073976E-009
  -3.1300000000000001E-002    -5.9263441149356890E-009
  -3.1250000000000000E-002    -6.0823483067740398E-009
  -3.1199999999999999E-002    -6.2521846897339909E-009
  -3.1150000000000001E-002    -6.4340991884181869E-009
  -3.1100000000000003E-002    -6.6257007750079246E-009
  -3.1050000000000001E-002    -6.8247413750343824E-009
  -3.1000000000000000E-002    -7.0299736711247335E-009
  -3.0949999999999998E-002    -7.2417977023590939E-009
  -3.0900000000000000E-002    -7.4624531652292940E-009
  -3.0850000000000002E-002    -7.6956539830410161E-009
  -3.0800000000000001E-002    -7.9457225753365526E-009
  -3.0750000000000000E-002    -8.2164552444786465E-009
  -3.0699999999999998E-002    -8.5100391196923504E-009
  -3.0650000000000000E-002    -8.8263470505510559E-009
  -3.0600000000000002E-002    -9.1628090299222936E-009
  -3.0550000000000001E-002    -9.5149060460599784E-009
  -3.0499999999999999E-002    -9.8771300927407935E-009
  -3.0449999999999998E-002    -1.0244099339281519E-008
  -3.0400000000000000E-002    -1.0611503518341006E-008
  -3.0350000000000002E-002    -1.0976569292463266E-008
  -3.0300000000000001E-002    -1.1337921195350216E-008
  -3.0249999999999999E-002    -1.1694886854248877E-008
  -3.0200000000000001E-002    -1.2046474598679651E-008
  -3.0150000000000000E-002    -1.2390361180364406E-008
  -3.0100000000000002E-002    -1.2722238995503843E-008
  -3.0050000000000000E-002    -1.3035754069087903E-008
  -2.9999999999999999E-002    -1.3323111052258962E-008
  -2.9950000000000001E-002    -1.3576211533385176E-008
  -2.9899999999999999E-002    -1.3788035499726730E-008
  -2.9850000000000002E-002    -1.3953881691223737E-008
  -2.9800000000000000E-002    -1.4072141308839034E-008
  -2.9749999999999999E-002    -1.4144381375699860E-008
  -2.9700000000000001E-002    -1.4174722904449594E-008
  -2.9650000000000003E-002    -1.4168707098504421E-008
  -2.9600000000000001E-002    -1.4131962948860831E-008
  -2.9550000000000000E-002    -1.4069091915173529E-008
  -2.9499999999999998E-002    -1.3983060624855212E-008
  -2.9450000000000000E-002    -1.3875300122506623E-008
  -2.9400000000000003E-002    -1.3746442256490983E-008
  -2.9350000000000001E-002    -1.3597461537871817E-008
  -2.9300000000000000E-002    -1.3430815795720769E-008
  -2.9249999999999998E-002    -1.3251176073224851E-008
  -2.9200000000000000E-002    -1.3065429394481237E-008
  -2.9150000000000002E-002    -1.2881840901108354E-008
  -2.9100000000000001E-002    -1.2708555269366875E-008
  -2.9049999999999999E-002    -1.2551830432533362E-008
  -2.8999999999999998E-002    -1.2414566039211904E-008
  -2.8950000000000000E-002    -1.2295643178989826E-008
  -2.8900000000000002E-002    -1.2190415801010777E-008
  -2.8850000000000001E-002    -1.2092354632092656E-008
  -2.8799999999999999E-002    -1.1995478351774721E-008
  -2.8749999999999998E-002    -1.1896907506381986E-008
  -2.8700000000000000E-002    -1.1798771314315479E-008
  -2.8650000000000002E-002    -1.1708799985597139E-008
  -2.8600000000000000E-002    -1.1639290049222650E-008
  -2.8549999999999999E-002    -1.1604599279757286E-008
  -2.8500000000000001E-002    -1.1617776755796567E-008
  -2.8450000000000000E-002    -1.1687264638296417E-008
  -2.8400000000000002E-002    -1.1814645903807832E-008
  -2.8350000000000000E-002    -1.1994165378837890E-008
  -2.8299999999999999E-002    -1.2214257866435513E-008
  -2.8250000000000001E-002    -1.2460739064509893E-008
  -2.8200000000000003E-002    -1.2720786751730251E-008
  -2.8150000000000001E-002    -1.2986530821402731E-008
  -2.8100000000000000E-002    -1.3257158686794161E-008
  -2.8049999999999999E-002    -1.3538794207718181E-008
  -2.8000000000000001E-002    -1.3842089879106336E-008
  -2.7950000000000003E-002    -1.4178151140170026E-008
  -2.7900000000000001E-002    -1.4553971799856805E-008
  -2.7850000000000000E-002    -1.4968802134305703E-008
  -2.7799999999999998E-002    -1.5412635630923780E-008
  -2.7750000000000000E-002    -1.5867427000071170E-008
  -2.7700000000000002E-002    -1.6310881260568575E-008
  -2.7650000000000001E-002    -1.6721787534227615E-008
  -2.7600000000000000E-002    -1.7085420533991317E-008
  -2.7549999999999998E-002    -1.7397398236851374E-008
  -2.7500000000000000E-002    -1.7664802294766578E-008
  -2.7450000000000002E-002    -1.7904149550828133E-008
  -2.7400000000000001E-002    -1.8136717049870975E-008
  -2.7349999999999999E-002    -1.8382554274308758E-008
  -2.7299999999999998E-002    -1.8654884892922479E-008
  -2.7250000000000000E-002    -1.8956595502711780E-008
  -2.7200000000000002E-002    -1.9279852461526525E-008
  -2.7150000000000001E-002    -1.9608980644074791E-008
  -2.7099999999999999E-002    -1.9925798335481164E-008
  -2.7049999999999998E-002    -2.0215774274279788E-008
  -2.7000000000000000E-002    -2.0473146150938678E-008
  -2.6950000000000002E-002    -2.0703373879217278E-008
  -2.6900000000000000E-002    -2.0922120485492503E-008
  -2.6849999999999999E-002    -2.1150943966905599E-008
  -2.6800000000000001E-002    -2.1410968401062592E-008
  -2.6749999999999999E-002    -2.1716383473573590E-008
  -2.6700000000000002E-002    -2.2069790106489714E-008
  -2.6650000000000000E-002    -2.2460844625519156E-008
  -2.6599999999999999E-002    -2.2868735755452006E-008
  -2.6550000000000001E-002    -2.3267841240341671E-008
  -2.6500000000000003E-002    -2.3634973408630830E-008
  -2.6450000000000001E-002    -2.3956106367532784E-008
  -2.6400000000000000E-002    -2.4230581793056576E-008
  -2.6349999999999998E-002    -2.4471516203301430E-008
  -2.6300000000000000E-002    -2.4702215476309609E-008
  -2.6250000000000002E-002    -2.4949576762932375E-008
  -2.6200000000000001E-002    -2.5236313333594290E-008
  -2.6150000000000000E-002    -2.5574212396839736E-008
  -2.6099999999999998E-002    -2.5960364445890980E-008
  -2.6050000000000000E-002    -2.6377478985354065E-008
  -2.6000000000000002E-002    -2.6798225069780839E-008
  -2.5950000000000001E-002    -2.7192448376635364E-008
  -2.5899999999999999E-002    -2.7535212357635948E-008
  -2.5849999999999998E-002    -2.7813441868555718E-008
  -2.5800000000000000E-002    -2.8029244797552503E-008
  -2.5750000000000002E-002    -2.8198958123270501E-008
  -2.5700000000000001E-002    -2.8348158797715428E-008
  -2.5649999999999999E-002    -2.8503992702778448E-008
  -2.5599999999999998E-002    -2.8686984728439714E-008
  -2.5550000000000000E-002    -2.8904650348674579E-008
  -2.5500000000000002E-002    -2.9148725299119170E-008
  -2.5450000000000000E-002    -2.9396825984334959E-008
  -2.5399999999999999E-002    -2.9618118329150517E-008
  -2.5349999999999998E-002    -2.9781457272171254E-008
  -2.5300000000000000E-002    -2.9863722267816511E-008
  -2.5250000000000002E-002    -2.9856053808900649E-008
  -2.5200000000000000E-002    -2.9766245684314125E-008
  -2.5149999999999999E-002    -2.9616647130391960E-008
  -2.5100000000000001E-002    -2.9438131691568071E-008
  -2.5049999999999999E-002    -2.9261808223342070E-008
  -2.5000000000000001E-002    -2.9110797213082232E-008
  -2.4950000000000000E-002    -2.8994301813154599E-008
  -2.4899999999999999E-002    -2.8905606052308091E-008
  -2.4850000000000001E-002    -2.8824507427378229E-008
  -2.4800000000000003E-002    -2.8723398965874005E-008
  -2.4750000000000001E-002    -2.8575266409784582E-008
  -2.4700000000000000E-002    -2.8361277184880866E-008
  -2.4649999999999998E-002    -2.8075850641554214E-008
  -2.4600000000000000E-002    -2.7727763799793022E-008
  -2.4550000000000002E-002    -2.7337118275987693E-008
  -2.4500000000000001E-002    -2.6929050838854512E-008
  -2.4450000000000000E-002    -2.6526058462817771E-008
  -2.4399999999999998E-002    -2.6141091018543789E-008
  -2.4350000000000000E-002    -2.5773346820030403E-008
  -2.4299999999999999E-002    -2.5407857569672507E-008
  -2.4250000000000001E-002    -2.5018887932277232E-008
  -2.4199999999999999E-002    -2.4576120227556169E-008
  -2.4150000000000001E-002    -2.4051886135533238E-008
  -2.4100000000000000E-002    -2.3427458427045539E-008
  -2.4049999999999998E-002    -2.2696787772184930E-008
  -2.4000000000000000E-002    -2.1866780704493921E-008
  -2.3949999999999999E-002    -2.0954226709600418E-008
  -2.3900000000000001E-002    -1.9980300053973741E-008
  -2.3850000000000000E-002    -1.8964240728186847E-008
  -2.3800000000000002E-002    -1.7917869052190898E-008
  -2.3750000000000000E-002    -1.6842346374278651E-008
  -2.3699999999999999E-002    -1.5727870217982372E-008
  -2.3650000000000001E-002    -1.4556203401152398E-008
  -2.3599999999999999E-002    -1.3305219104753067E-008
  -2.3550000000000001E-002    -1.1954115689352036E-008
  -2.3500000000000000E-002    -1.0487946252471415E-008
  -2.3449999999999999E-002    -8.9003421958595840E-009
  -2.3400000000000001E-002    -7.1938462997777998E-009
  -2.3349999999999999E-002    -5.3779554667644927E-009
  -2.3300000000000001E-002    -3.4654973265917189E-009
  -2.3250000000000000E-002    -1.4683357950429264E-009
  -2.3199999999999998E-002     6.0651188710105305E-010
  -2.3150000000000000E-002     2.7594548120112691E-009
  -2.3099999999999999E-002     4.9990741945535462E-009
  -2.3050000000000001E-002     7.3409441771077747E-009
  -2.3000000000000000E-002     9.8048831155580645E-009
  -2.2950000000000002E-002     1.2411286945112325E-008
  -2.2900000000000000E-002     1.5177344421576650E-008
  -2.2849999999999999E-002     1.8113928004171329E-008
  -2.2800000000000001E-002     2.1223770325457956E-008
  -2.2749999999999999E-002     2.4501295995936416E-008
  -2.2700000000000001E-002     2.7934135630192047E-008
  -2.2650000000000000E-002     3.1506077026039665E-008
  -2.2599999999999999E-002     3.5200884358999147E-008
  -2.2550000000000001E-002     3.9006309670467912E-008
  -2.2499999999999999E-002     4.2917468231854580E-008
  -2.2450000000000001E-002     4.6938910735904202E-008
  -2.2400000000000000E-002     5.1084820544654453E-008
  -2.2349999999999998E-002     5.5377260713760661E-008
  -2.2300000000000000E-002     5.9842666128276160E-008
  -2.2249999999999999E-002     6.4507343437936889E-008
  -2.2200000000000001E-002     6.9392930117390272E-008
  -2.2150000000000000E-002     7.4512878936346743E-008
  -2.2100000000000002E-002     7.9870985696087255E-008
  -2.2050000000000000E-002     8.5462219865169989E-008
  -2.1999999999999999E-002     9.1275952159095579E-008
  -2.1950000000000001E-002     9.7300637175675757E-008
  -2.1899999999999999E-002     1.0352891785316262E-007
  -2.1850000000000001E-002     1.0996168255455742E-007
  -2.1800000000000000E-002     1.1661000253235305E-007
  -2.1749999999999999E-002     1.2349437118954263E-007
  -2.1700000000000001E-002     1.3064130136988896E-007
  -2.1649999999999999E-002     1.3807816308258702E-007
  -2.1600000000000001E-002     1.4582763458114520E-007
  -2.1550000000000000E-002     1.5390322482420694E-007
  -2.1499999999999998E-002     1.6230702201448863E-007
  -2.1450000000000000E-002     1.7103067388261095E-007
  -2.1399999999999999E-002     1.8005903480617362E-007
  -2.1350000000000001E-002     1.8937598428995471E-007
  -2.1299999999999999E-002     1.9897064682517389E-007
  -2.1250000000000002E-002     2.0884269118602223E-007
  -2.1200000000000000E-002     2.1900498565891920E-007
  -2.1149999999999999E-002     2.2948328945062040E-007
  -2.1100000000000001E-002     2.4031253494109680E-007
  -2.1049999999999999E-002     2.5153109037525017E-007
  -2.1000000000000001E-002     2.6317406902912013E-007
  -2.0950000000000000E-002     2.7526745977081787E-007
  -2.0899999999999998E-002     2.8782471687541665E-007
  -2.0850000000000000E-002     3.0084628095758282E-007
  -2.0799999999999999E-002     3.1432255911611894E-007
  -2.0750000000000001E-002     3.2823912659828233E-007
  -2.0700000000000000E-002     3.4258320998880131E-007
  -2.0649999999999998E-002     3.5734946349066238E-007
  -2.0600000000000000E-002     3.7254385523931813E-007
  -2.0549999999999999E-002     3.8818443434545928E-007
  -2.0500000000000001E-002     4.0429924180023256E-007
  -2.0449999999999999E-002     4.2092163131264762E-007
  -2.0400000000000001E-002     4.3808447333876293E-007
  -2.0350000000000000E-002     4.5581471749890570E-007
  -2.0299999999999999E-002     4.7413000866498762E-007
  -2.0250000000000001E-002     4.9303755807304056E-007
  -2.0199999999999999E-002     5.1253618151569444E-007
  -2.0150000000000001E-002     5.3262050308228992E-007
  -2.0100000000000000E-002     5.5328594014283336E-007
  -2.0049999999999998E-002     5.7453350323237867E-007
  -2.0000000000000000E-002     5.9637325239939602E-007
  -1.9949999999999999E-002     6.1882536271881079E-007
  -1.9900000000000001E-002     6.4191864345035727E-007
  -1.9850000000000000E-002     6.6568741888924254E-007
  -1.9799999999999998E-002     6.9016742629699365E-007
  -1.9750000000000000E-002     7.1539154219307310E-007
  -1.9699999999999999E-002     7.4138646052487246E-007
  -1.9650000000000001E-002     7.6817131574625120E-007
  -1.9599999999999999E-002     7.9575753275048831E-007
  -1.9550000000000001E-002     8.2415083024600825E-007
  -1.9500000000000000E-002     8.5335384438509127E-007
  -1.9449999999999999E-002     8.8336973928313972E-007
  -1.9400000000000001E-002     9.1420538477804827E-007
  -1.9349999999999999E-002     9.4587348377752391E-007
  -1.9300000000000001E-002     9.7839408233731112E-007
  -1.9250000000000000E-002     1.0117941877710337E-006
  -1.9199999999999998E-002     1.0461064375482869E-006
  -1.9150000000000000E-002     1.0813664926470806E-006
  -1.9099999999999999E-002     1.1176097547241862E-006
  -1.9050000000000001E-002     1.1548690464580272E-006
  -1.9000000000000000E-002     1.1931714702290961E-006
  -1.8949999999999998E-002     1.2325376806418186E-006
  -1.8900000000000000E-002     1.2729822594968545E-006
  -1.8849999999999999E-002     1.3145153498271727E-006
  -1.8800000000000001E-002     1.3571457691912226E-006
  -1.8749999999999999E-002     1.4008850857477920E-006
  -1.8700000000000001E-002     1.4457506796952617E-006
  -1.8650000000000000E-002     1.4917680783993192E-006
  -1.8599999999999998E-002     1.5389713825308260E-006
  -1.8550000000000001E-002     1.5874017838564325E-006
  -1.8499999999999999E-002     1.6371039617799588E-006
  -1.8450000000000001E-002     1.6881215709287230E-006
  -1.8400000000000000E-002     1.7404930504154185E-006
  -1.8349999999999998E-002     1.7942483743341014E-006
  -1.8300000000000000E-002     1.8494079941302394E-006
  -1.8249999999999999E-002     1.9059840223618922E-006
  -1.8200000000000001E-002     1.9639841043294731E-006
  -1.8149999999999999E-002     2.0234161662862259E-006
  -1.8100000000000002E-002     2.0842939215160946E-006
  -1.8050000000000000E-002     2.1466407034369414E-006
  -1.7999999999999999E-002     2.2104916190294802E-006
  -1.7950000000000001E-002     2.2758919523023240E-006
  -1.7899999999999999E-002     2.3428939557417178E-006
  -1.7850000000000001E-002     2.4115514579816899E-006
  -1.7800000000000000E-002     2.4819137169989870E-006
  -1.7749999999999998E-002     2.5540214292968873E-006
  -1.7700000000000000E-002     2.6279046846540576E-006
  -1.7649999999999999E-002     2.7035837095648968E-006
  -1.7600000000000001E-002     2.7810729115562906E-006
  -1.7550000000000000E-002     2.8603873214196754E-006
  -1.7499999999999998E-002     2.9415470890632955E-006
  -1.7450000000000000E-002     3.0245828334323084E-006
  -1.7399999999999999E-002     3.1095362728243874E-006
  -1.7350000000000001E-002     3.1964590651393783E-006
  -1.7299999999999999E-002     3.2854090362606948E-006
  -1.7250000000000001E-002     3.3764449914759608E-006
  -1.7200000000000000E-002     3.4696203838303817E-006
  -1.7149999999999999E-002     3.5649803712595163E-006
  -1.7100000000000001E-002     3.6625604835440003E-006
  -1.7049999999999999E-002     3.7623888683190761E-006
  -1.7000000000000001E-002     3.8644883380936080E-006
  -1.6950000000000000E-002     3.9688824617656069E-006
  -1.6899999999999998E-002     4.0755987043965613E-006
  -1.6850000000000000E-002     4.1846721265294547E-006
  -1.6799999999999999E-002     4.2961462095401729E-006
  -1.6750000000000001E-002     4.4100719742877334E-006
  -1.6700000000000000E-002     4.5265038935673988E-006
  -1.6649999999999998E-002     4.6454980758904448E-006
  -1.6600000000000000E-002     4.7671096375674830E-006
  -1.6549999999999999E-002     4.8913891769524005E-006
  -1.6500000000000001E-002     5.0183834261367322E-006
  -1.6449999999999999E-002     5.1481365547411946E-006
  -1.6400000000000001E-002     5.2806913606842138E-006
  -1.6350000000000000E-002     5.4160909990205064E-006
  -1.6299999999999999E-002     5.5543796065767054E-006
  -1.6250000000000001E-002     5.6956049150153731E-006
  -1.6199999999999999E-002     5.8398156281272844E-006
  -1.6150000000000001E-002     5.9870629994330040E-006
  -1.6100000000000000E-002     6.1373988196267416E-006
  -1.6049999999999998E-002     6.2908747446384046E-006
  -1.6000000000000000E-002     6.4475416614438858E-006
  -1.5949999999999999E-002     6.6074516395079609E-006
  -1.5900000000000001E-002     6.7706569107818512E-006
  -1.5850000000000000E-002     6.9372099862083191E-006
  -1.5799999999999998E-002     7.1071642678837073E-006
  -1.5750000000000000E-002     7.2805749495826662E-006
  -1.5699999999999999E-002     7.4574965731231640E-006
  -1.5650000000000001E-002     7.6379829103462590E-006
  -1.5599999999999999E-002     7.8220862405448219E-006
  -1.5550000000000001E-002     8.0098581293129806E-006
  -1.5500000000000000E-002     8.2013493691010862E-006
  -1.5449999999999998E-002     8.3966099441752645E-006
  -1.5400000000000000E-002     8.5956918684184523E-006
  -1.5349999999999999E-002     8.7986529472150962E-006
  -1.5300000000000001E-002     9.0055538023294134E-006
  -1.5250000000000000E-002     9.2164623547656858E-006
  -1.5199999999999998E-002     9.4314472313057001E-006
  -1.5150000000000000E-002     9.6505804251047780E-006
  -1.5099999999999999E-002     9.8739290995272791E-006
  -1.5050000000000001E-002     1.0101558600881610E-005
  -1.4999999999999999E-002     1.0333525071517870E-005
  -1.4949999999999998E-002     1.0569881326688314E-005
  -1.4900000000000000E-002     1.0810676622183520E-005
  -1.4849999999999999E-002     1.1055960464279546E-005
  -1.4800000000000001E-002     1.1305783031450365E-005
  -1.4749999999999999E-002     1.1560202052853460E-005
  -1.4700000000000001E-002     1.1819281232665909E-005
  -1.4650000000000000E-002     1.2083090613738707E-005
  -1.4599999999999998E-002     1.2351701995014599E-005
  -1.4550000000000000E-002     1.2625190052947779E-005
  -1.4499999999999999E-002     1.2903624173864397E-005
  -1.4450000000000001E-002     1.3187070986068387E-005
  -1.4400000000000000E-002     1.3475591393722905E-005
  -1.4349999999999998E-002     1.3769240860765145E-005
  -1.4300000000000000E-002     1.4068074667325828E-005
  -1.4249999999999999E-002     1.4372148908662430E-005
  -1.4200000000000001E-002     1.4681525523536652E-005
  -1.4149999999999999E-002     1.4996269366218163E-005
  -1.4099999999999998E-002     1.5316453511222944E-005
  -1.4050000000000000E-002     1.5642154116614070E-005
  -1.3999999999999999E-002     1.5973451481082420E-005
  -1.3950000000000001E-002     1.6310422151262885E-005
  -1.3899999999999999E-002     1.6653138587857449E-005
  -1.3850000000000001E-002     1.7001673062043418E-005
  -1.3800000000000000E-002     1.7356092255567024E-005
  -1.3749999999999998E-002     1.7716456029696211E-005
  -1.3700000000000000E-002     1.8082826055421356E-005
  -1.3649999999999999E-002     1.8455260875342584E-005
  -1.3600000000000001E-002     1.8833822546117441E-005
  -1.3550000000000000E-002     1.9218571406752736E-005
  -1.3499999999999998E-002     1.9609574912753717E-005
  -1.3450000000000000E-002     2.0006903836645018E-005
  -1.3399999999999999E-002     2.0410630589515961E-005
  -1.3350000000000001E-002     2.0820823756375833E-005
  -1.3299999999999999E-002     2.1237551995651113E-005
  -1.3249999999999998E-002     2.1660881982546438E-005
  -1.3200000000000000E-002     2.2090880720788799E-005
  -1.3149999999999998E-002     2.2527613683880493E-005
  -1.3100000000000001E-002     2.2971144316887034E-005
  -1.3049999999999999E-002     2.3421538094091588E-005
  -1.3000000000000001E-002     2.3878863993702799E-005
  -1.2950000000000000E-002     2.4343187223733825E-005
  -1.2899999999999998E-002     2.4814578528377632E-005
  -1.2850000000000000E-002     2.5293104708235040E-005
  -1.2799999999999999E-002     2.5778830677743594E-005