  -4.0000000000000001E-002     0.0000000000000000     
  -3.9949999999999999E-002     0.0000000000000000     
  -3.9899999999999998E-002     0.0000000000000000     
  -3.9850000000000003E-002     0.0000000000000000     
  -3.9800000000000002E-002     0.0000000000000000     
  -3.9750000000000001E-002     7.0701342479842274E-020
  -3.9699999999999999E-002     5.6888612426075957E-019
  -3.9649999999999998E-002     2.3442043535188189E-018
  -3.9600000000000003E-002     6.4887567224540484E-018
  -3.9550000000000002E-002     1.3237355486387015E-017
  -3.9500000000000000E-002     2.0162787744444250E-017
  -3.9449999999999999E-002     2.0350396411351653E-017
  -3.9399999999999998E-002     1.2251249679234487E-018
  -3.9350000000000003E-002    -5.5643560844271373E-017
  -3.9300000000000002E-002    -1.7322173473674996E-016
  -3.9250000000000000E-002    -3.7463644826325119E-016
  -3.9199999999999999E-002    -6.7385882248814508E-016
  -3.9150000000000004E-002    -1.0616833513122448E-015
  -3.9100000000000003E-002    -1.4909325749069841E-015
  -3.9050000000000001E-002    -1.8653891111659927E-015
  -3.9000000000000000E-002    -2.0304221871689746E-015
  -3.8949999999999999E-002    -1.7541478627567225E-015
  -3.8900000000000004E-002    -6.9150284485565480E-016
  -3.8850000000000003E-002     1.6456417523912138E-015
  -3.8800000000000001E-002     5.8386338551705463E-015
  -3.8750000000000000E-002     1.2330416541932399E-014
  -3.8699999999999998E-002     2.0962624418183961E-014
  -3.8650000000000004E-002     3.0391030669522180E-014
  -3.8600000000000002E-002     3.7696432387841727E-014
  -3.8550000000000001E-002     3.8619292983211120E-014
  -3.8500000000000000E-002     2.8706189420238368E-014
  -3.8449999999999998E-002     5.2235187226613701E-015
  -3.8400000000000004E-002    -3.0867303662905439E-014
  -3.8350000000000002E-002    -7.3933776366547030E-014
  -3.8300000000000001E-002    -1.1457939504880589E-013
  -3.8249999999999999E-002    -1.4252985949809706E-013
  -3.8199999999999998E-002    -1.5049916340082517E-013
  -3.8150000000000003E-002    -1.3722519660253248E-013
  -3.8100000000000002E-002    -1.0790441308842611E-013
  -3.8050000000000000E-002    -7.1317714918638130E-014
  -3.7999999999999999E-002    -3.4618863551214315E-014
  -3.7949999999999998E-002     1.7836745217844484E-015
  -3.7900000000000003E-002     4.6407422298186101E-014
  -3.7850000000000002E-002     1.1408519273647974E-013
  -3.7800000000000000E-002     2.1874676013205545E-013
  -3.7749999999999999E-002     3.6397195483156719E-013
  -3.7699999999999997E-002     5.3506524944825644E-013
  -3.7650000000000003E-002     6.9635547759333036E-013
  -3.7600000000000001E-002     7.9597765930509271E-013
  -3.7550000000000000E-002     7.7806918094429100E-013
  -3.7499999999999999E-002     5.9983509129878656E-013
  -3.7449999999999997E-002     2.4896302840332266E-013
  -3.7400000000000003E-002    -2.4411373940567069E-013
  -3.7350000000000001E-002    -8.0421543121300797E-013
  -3.7300000000000000E-002    -1.3227870434212082E-012
  -3.7249999999999998E-002    -1.6822042988165389E-012
  -3.7200000000000004E-002    -1.7881338377710709E-012
  -3.7150000000000002E-002    -1.6010742881871530E-012
  -3.7100000000000001E-002    -1.1563925137132947E-012
  -3.7050000000000000E-002    -5.6390971962824377E-013
  -3.6999999999999998E-002     1.6436981866619731E-014
  -3.6950000000000004E-002     4.1857744489825569E-013
  -3.6900000000000002E-002     5.2232889445311990E-013
  -3.6850000000000001E-002     2.9781449170096062E-013
  -3.6799999999999999E-002    -1.7234223680451875E-013
  -3.6749999999999998E-002    -7.0183048090361663E-013
  -3.6700000000000003E-002    -1.0406199504151350E-012
  -3.6650000000000002E-002    -9.3766497407475195E-013
  -3.6600000000000001E-002    -2.1187855970485662E-013
  -3.6549999999999999E-002     1.1854559866558640E-012
  -3.6499999999999998E-002     3.1324349779916775E-012
  -3.6450000000000003E-002     5.3339313334373865E-012
  -3.6400000000000002E-002     7.3597883062723069E-012
  -3.6350000000000000E-002     8.7208449406510834E-012
  -3.6299999999999999E-002     8.9706703560416157E-012
  -3.6249999999999998E-002     7.8123171279110012E-012
  -3.6200000000000003E-002     5.1841984152377440E-012
  -3.6150000000000002E-002     1.3002770764432748E-012
  -3.6100000000000000E-002    -3.3712111299622985E-012
  -3.6049999999999999E-002    -8.1905427261870174E-012
  -3.6000000000000004E-002    -1.2472730484770241E-011
  -3.5950000000000003E-002    -1.5624860755754666E-011
  -3.5900000000000001E-002    -1.7257489568285862E-011
  -3.5850000000000000E-002    -1.7240317306126270E-011
  -3.5799999999999998E-002    -1.5689777063526948E-011
  -3.5750000000000004E-002    -1.2897765359183714E-011
  -3.5700000000000003E-002    -9.2291246366645468E-012
  -3.5650000000000001E-002    -5.0242492307608045E-012
  -3.5600000000000000E-002    -5.3935755990164722E-013
  -3.5549999999999998E-002     4.0580404166037022E-012
  -3.5500000000000004E-002     8.6420915218580547E-012
  -3.5450000000000002E-002     1.3053848400303027E-011
  -3.5400000000000001E-002     1.7035120421380597E-011
  -3.5349999999999999E-002     2.0206965065311551E-011
  -3.5299999999999998E-002     2.2114995417376270E-011
  -3.5250000000000004E-002     2.2339382528969406E-011
  -3.5200000000000002E-002     2.0640564923735339E-011
  -3.5150000000000001E-002     1.7091403489152814E-011
  -3.5099999999999999E-002     1.2141845683409961E-011
  -3.5049999999999998E-002     6.5767047288687479E-012
  -3.5000000000000003E-002     1.3585291211032803E-012
  -3.4950000000000002E-002    -2.6139312596737875E-012
  -3.4900000000000000E-002    -4.7682791014149686E-012
  -3.4849999999999999E-002    -5.0635466132633486E-012
  -3.4799999999999998E-002    -4.0681881061340915E-012
  -3.4750000000000003E-002    -2.8725297358536722E-012
  -3.4700000000000002E-002    -2.8415889662826558E-012
  -3.4650000000000000E-002    -5.2587275979376727E-012
  -3.4599999999999999E-002    -1.0942902023438970E-011
  -3.4549999999999997E-002    -1.9933916086700885E-011
  -3.4500000000000003E-002    -3.1328439294632991E-011
  -3.4450000000000001E-002    -4.3317666925143576E-011
  -3.4400000000000000E-002    -5.3432574900952369E-011
  -3.4349999999999999E-002    -5.8954943774927850E-011
  -3.4299999999999997E-002    -5.7412224579332825E-011
  -3.4250000000000003E-002    -4.7051998454937496E-011
  -3.4200000000000001E-002    -2.7193260259630055E-011
  -3.4150000000000000E-002     1.6222858714749686E-012
  -3.4099999999999998E-002     3.7711119865437294E-011
  -3.4049999999999997E-002     7.8541603884085439E-011
  -3.4000000000000002E-002     1.2117565372916088E-010
  -3.3950000000000001E-002     1.6276522814212654E-010
  -3.3900000000000000E-002     2.0100489456396192E-010
  -3.3849999999999998E-002     2.3445724930954096E-010
  -3.3799999999999997E-002     2.6269864993639541E-010
  -3.3750000000000002E-002     2.8627048833406931E-010
  -3.3700000000000001E-002     3.0645870050161648E-010
  -3.3649999999999999E-002     3.2495608790459009E-010
  -3.3599999999999998E-002     3.4348175751705430E-010
  -3.3550000000000003E-002     3.6343818014935108E-010
  -3.3500000000000002E-002     3.8567225424196066E-010
  -3.3450000000000001E-002     4.1037790555386970E-010
  -3.3399999999999999E-002     4.3713871958413007E-010
  -3.3349999999999998E-002     4.6507143558859216E-010
  -3.3300000000000003E-002     4.9301206049677884E-010
  -3.3250000000000002E-002     5.1968692757373623E-010
  -3.3200000000000000E-002     5.4383698859599511E-010
  -3.3149999999999999E-002     5.6429420260375397E-010
  -3.3099999999999997E-002     5.8003805832151905E-010
  -3.3050000000000003E-002     5.9026557883976807E-010
  -3.3000000000000002E-002     5.9449516664639665E-010
  -3.2950000000000000E-002     5.9269973898985863E-010
  -3.2899999999999999E-002     5.8543910513370117E-010
  -3.2850000000000004E-002     5.7395285642872741E-010
  -3.2800000000000003E-002     5.6017677432594833E-010
  -3.2750000000000001E-002     5.4666298444527274E-010
  -3.2700000000000000E-002     5.3639766474196480E-010
  -3.2649999999999998E-002     5.3252472502347052E-010
  -3.2600000000000004E-002     5.3799384318447534E-010
  -3.2550000000000003E-002     5.5516919831783952E-010
  -3.2500000000000001E-002     5.8545760503354894E-010
  -3.2450000000000000E-002     6.2903402233200564E-010
  -3.2399999999999998E-002     6.8474953629091485E-010
  -3.2350000000000004E-002     7.5027882030119852E-010
  -3.2300000000000002E-002     8.2251026632232175E-010
  -3.2250000000000001E-002     8.9811008624744128E-010
  -3.2199999999999999E-002     9.7413217905119098E-010
  -3.2149999999999998E-002     1.0485262469922389E-009
  -3.2100000000000004E-002     1.1204256033189469E-009
  -3.2050000000000002E-002     1.1901611888221817E-009
  -3.2000000000000001E-002     1.2590239546065795E-009
  -3.1949999999999999E-002     1.3288568833393987E-009
  -3.1899999999999998E-002     1.4015706220377686E-009
  -3.1850000000000003E-002     1.4786737052082933E-009
  -3.1800000000000002E-002     1.5608776658926116E-009
  -3.1750000000000000E-002     1.6478264955903930E-009
  -3.1699999999999999E-002     1.7379846969796781E-009
  -3.1649999999999998E-002     1.8287203084216769E-009
  -3.1600000000000003E-002     1.9165955273356487E-009
  -3.1550000000000002E-002     1.9978378723939807E-009
  -3.1500000000000000E-002     2.0689180323309173E-009
  -3.1449999999999999E-002     2.1271203379787654E-009
  -3.1399999999999997E-002     2.1709819369350591E-009
  -3.1350000000000003E-002     2.2005188244456751E-009
  -3.1300000000000001E-002     2.2172071066683318E-009
  -3.1250000000000000E-002     2.2237519673142949E-009
  -3.1199999999999999E-002     2.2237082292772623E-009
  -3.1150000000000001E-002     2.2210258990211604E-009
  -3.1100000000000003E-002     2.2195867354379146E-009
  -3.1050000000000001E-002     2.2227894948748929E-009
  -3.1000000000000000E-002     2.2332518351759156E-009
  -3.0949999999999998E-002     2.2526999232193104E-009
  -3.0900000000000000E-002     2.2821145098835103E-009
  -3.0850000000000002E-002     2.3221299954998907E-009
  -3.0800000000000001E-002     2.3736075035135556E-009
  -3.0750000000000000E-002     2.4382168360752644E-009
  -3.0699999999999998E-002     2.5188210188588624E-009
  -3.0650000000000000E-002     2.6195089151570527E-009
  -3.0600000000000002E-002     2.7452413284479658E-009
  -3.0550000000000001E-002     2.9012190793430503E-009
  -3.0499999999999999E-002     3.0921925434605969E-009
  -3.0449999999999998E-002     3.3219443348365559E-009
  -3.0400000000000000E-002     3.5930938508723890E-009
  -3.0350000000000002E-002     3.9072312823644018E-009
  -3.0300000000000001E-002     4.2652594542796584E-009
  -3.0249999999999999E-002     4.6677629377536048E-009
  -3.0200000000000001E-002     5.1152291040401503E-009
  -3.0150000000000000E-002     5.6080514435194555E-009
  -3.0100000000000002E-002     6.1463082795188475E-009
  -3.0050000000000000E-002     6.7293968309263121E-009
  -2.9999999999999999E-002     7.3556247216810500E-009
  -2.9950000000000001E-002     8.0218525543378352E-009
  -2.9899999999999999E-002     8.7232700926009999E-009
  -2.9850000000000002E-002     9.4533985278871651E-009
  -2.9800000000000000E-002     1.0204365569534863E-008
  -2.9749999999999999E-002     1.0967481175362660E-008
  -2.9700000000000001E-002     1.1734027656505637E-008
  -2.9650000000000003E-002     1.2496098121024547E-008
  -2.9600000000000001E-002     1.3247235019782066E-008
  -2.9550000000000000E-002     1.3982661784314889E-008
  -2.9499999999999998E-002     1.4699011112905960E-008
  -2.9450000000000000E-002     1.5393630816276847E-008
  -2.9400000000000003E-002     1.6063722015407786E-008
  -2.9350000000000001E-002     1.6705617910731163E-008
  -2.9300000000000000E-002     1.7314498421307083E-008
  -2.9249999999999998E-002     1.7884601376155916E-008
  -2.9200000000000000E-002     1.8409898932678855E-008
  -2.9150000000000002E-002     1.8884975749275540E-008
  -2.9100000000000001E-002     1.9305849974801808E-008
  -2.9049999999999999E-002     1.9670545423955440E-008
  -2.8999999999999998E-002     1.9979298719401658E-008
  -2.8950000000000000E-002     2.0234400490562522E-008
  -2.8900000000000002E-002     2.0439746304470167E-008
  -2.8850000000000001E-002     2.0600186293497342E-008
  -2.8799999999999999E-002     2.0720807750080506E-008
  -2.8749999999999998E-002     2.0806265389283296E-008
  -2.8700000000000000E-002     2.0860330716932087E-008
  -2.8650000000000002E-002     2.0885805426814284E-008
  -2.8600000000000000E-002     2.0884851682447957E-008
  -2.8549999999999999E-002     2.0859665830011498E-008
  -2.8500000000000001E-002     2.0813314067229157E-008
  -2.8450000000000000E-002     2.0750417718519018E-008
  -2.8400000000000002E-002     2.0677433249736229E-008
  -2.8350000000000000E-002     2.0602400932358795E-008
  -2.8299999999999999E-002     2.0534227210702010E-008
  -2.8250000000000001E-002     2.0481737232800378E-008
  -2.8200000000000003E-002     2.0452800548607054E-008
  -2.8150000000000001E-002     2.0453760753182235E-008
  -2.8100000000000000E-002     2.0489279005838550E-008
  -2.8049999999999999E-002     2.0562504492843117E-008
  -2.8000000000000001E-002     2.0675432143478521E-008
  -2.7950000000000003E-002     2.0829263202509380E-008
  -2.7900000000000001E-002     2.1024679035193238E-008
  -2.7850000000000000E-002     2.1262004009929175E-008
  -2.7799999999999998E-002     2.1541272082434446E-008
  -2.7750000000000000E-002     2.1862195140711254E-008
  -2.7700000000000002E-002     2.2224049991967024E-008
  -2.7650000000000001E-002     2.2625451639665197E-008
  -2.7600000000000000E-002     2.3064064291177371E-008
  -2.7549999999999998E-002     2.3536358714013700E-008
  -2.7500000000000000E-002     2.4037593020468286E-008
  -2.7450000000000002E-002     2.4562125344021716E-008
  -2.7400000000000001E-002     2.5104101649188388E-008
  -2.7349999999999999E-002     2.5658333919774791E-008
  -2.7299999999999998E-002     2.6221107780645391E-008
  -2.7250000000000000E-002     2.6790626815656681E-008
  -2.7200000000000002E-002     2.7366911769356622E-008
  -2.7150000000000001E-002     2.7951188924487950E-008
  -2.7099999999999999E-002     2.8545005816840048E-008
  -2.7049999999999998E-002     2.9149398434394183E-008
  -2.7000000000000000E-002     2.9764378231514383E-008
  -2.6950000000000002E-002     3.0388903535638371E-008
  -2.6900000000000000E-002     3.1021250040700036E-008
  -2.6849999999999999E-002     3.1659563544364077E-008
  -2.6800000000000001E-002     3.2302441055187385E-008
  -2.6749999999999999E-002     3.2949356059956473E-008
  -2.6700000000000002E-002     3.3600872043254912E-008
  -2.6650000000000000E-002     3.4258670778394602E-008
  -2.6599999999999999E-002     3.4925417818104172E-008
  -2.6550000000000001E-002     3.5604470813563873E-008
  -2.6500000000000003E-002     3.6299465780213541E-008
  -2.6450000000000001E-002     3.7013745145189618E-008
  -2.6400000000000000E-002     3.7749844212857666E-008
  -2.6349999999999998E-002     3.8509103819066613E-008
  -2.6300000000000000E-002     3.9291663604828773E-008
  -2.6250000000000002E-002     4.0096839228274529E-008
  -2.6200000000000001E-002     4.0923756026163641E-008
  -2.6150000000000000E-002     4.1772074639949454E-008
  -2.6099999999999998E-002     4.2642417994787247E-008
  -2.6050000000000000E-002     4.3536373429033428E-008
  -2.6000000000000002E-002     4.4456062501854314E-008
  -2.5950000000000001E-002     4.5403484110937786E-008
  -2.5899999999999999E-002     4.6379895069055280E-008
  -2.5849999999999998E-002     4.7385450298724931E-008
  -2.5800000000000000E-002     4.8419194049141107E-008
  -2.5750000000000002E-002     4.9479247658000087E-008
  -2.5700000000000001E-002     5.0563098415830205E-008
  -2.5649999999999999E-002     5.1667823459601695E-008
  -2.5599999999999998E-002     5.2790216440378134E-008
  -2.5550000000000000E-002     5.3926991224474449E-008
  -2.5500000000000002E-002     5.5075108378476433E-008
  -2.5450000000000000E-002     5.6232209556663171E-008
  -2.5399999999999999E-002     5.7397023375880782E-008
  -2.5349999999999998E-002     5.8569508319858887E-008
  -2.5300000000000000E-002     5.9750592804778926E-008
  -2.5250000000000002E-002     6.0941581197444921E-008
  -2.5200000000000000E-002     6.2143448158324500E-008
  -2.5149999999999999E-002     6.3356342223741290E-008
  -2.5100000000000001E-002     6.4579629424766315E-008
  -2.5049999999999999E-002     6.5812366838434396E-008
  -2.5000000000000001E-002     6.7054102071281699E-008
  -2.4950000000000000E-002     6.8305517219211569E-008
  -2.4899999999999999E-002     6.9568644440712789E-008
  -2.4850000000000001E-002     7.0846630823213699E-008
  -2.4800000000000003E-002     7.2143181992600199E-008
  -2.4750000000000001E-002     7.3462096060044952E-008
  -2.4700000000000000E-002     7.4806944793777218E-008
  -2.4649999999999998E-002     7.6180976804179437E-008
  -2.4600000000000000E-002     7.7587186150186702E-008
  -2.4550000000000002E-002     7.9028156093208162E-008
  -2.4500000000000001E-002     8.0505695983065669E-008
  -2.4450000000000000E-002     8.2020456191764768E-008
  -2.4399999999999998E-002     8.3571789922441132E-008
  -2.4350000000000000E-002     8.5158022045382782E-008
  -2.4299999999999999E-002     8.6777211643466427E-008
  -2.4250000000000001E-002     8.8428107768440830E-008
  -2.4199999999999999E-002     9.0110771627465009E-008
  -2.4150000000000001E-002     9.1826476135990052E-008
  -2.4100000000000000E-002     9.3577056650296836E-008
  -2.4049999999999998E-002     9.5363849788768066E-008
  -2.4000000000000000E-002     9.7186763985354244E-008
  -2.3949999999999999E-002     9.9043917329006721E-008
  -2.3900000000000001E-002     1.0093198729883693E-007
  -2.3850000000000000E-002     1.0284688700785510E-007
  -2.3800000000000002E-002     1.0478448642587621E-007
  -2.3750000000000000E-002     1.0674091379192460E-007
  -2.3699999999999999E-002     1.0871254701135924E-007
  -2.3650000000000001E-002     1.1069578850709480E-007
  -2.3599999999999999E-002     1.1268708875143407E-007
  -2.3550000000000001E-002     1.1468324762799525E-007
  -2.3500000000000000E-002     1.1668195691738362E-007
  -2.3449999999999999E-002     1.1868215990283288E-007
  -2.3400000000000001E-002     1.2068399594797943E-007
  -2.3349999999999999E-002     1.2268821721955228E-007
  -2.3300000000000001E-002     1.2469531259372424E-007
  -2.3250000000000000E-002     1.2670502511199645E-007
  -2.3199999999999998E-002     1.2871633654041200E-007
  -2.3150000000000000E-002     1.3072806935863805E-007
  -2.3099999999999999E-002     1.3273980015389072E-007
  -2.3050000000000001E-002     1.3475225357998626E-007
  -2.3000000000000000E-002     1.3676723389804759E-007
  -2.2950000000000002E-002     1.3878690731867380E-007
  -2.2900000000000000E-002     1.4081287777693386E-007
  -2.2849999999999999E-002     1.4284575353654530E-007
  -2.2800000000000001E-002     1.4488536837214922E-007
  -2.2749999999999999E-002     1.4693139585866478E-007
  -2.2700000000000001E-002     1.4898413913425613E-007
  -2.2650000000000000E-002     1.5104469495048983E-007
  -2.2599999999999999E-002     1.5311447424711731E-007
  -2.2550000000000001E-002     1.5519432705418592E-007
  -2.2499999999999999E-002     1.5728392704507742E-007
  -2.2450000000000001E-002     1.5938173995833471E-007
  -2.2400000000000000E-002     1.6148581581037978E-007
  -2.2349999999999998E-002     1.6359498991346965E-007
  -2.2300000000000000E-002     1.6570957079236170E-007
  -2.2249999999999999E-002     1.6783117220691792E-007
  -2.2200000000000001E-002     1.6996165886192839E-007
  -2.2150000000000000E-002     1.7210173148408165E-007
  -2.2100000000000002E-002     1.7425000005791870E-007
  -2.2050000000000000E-002     1.7640292444147250E-007
  -2.1999999999999999E-002     1.7855559546244030E-007
  -2.1950000000000001E-002     1.8070281926623342E-007
  -2.1899999999999999E-002     1.8283977984287103E-007
  -2.1850000000000001E-002     1.8496197185170869E-007
  -2.1800000000000000E-002     1.8706458442961886E-007
  -2.1749999999999999E-002     1.8914185447382352E-007
  -2.1700000000000001E-002     1.9118712810236633E-007
  -2.1649999999999999E-002     1.9319382775097225E-007
  -2.1600000000000001E-002     1.9515679841229296E-007
  -2.1550000000000000E-002     1.9707310133134277E-007
  -2.1499999999999998E-002     1.9894199931550337E-007
  -2.1450000000000000E-002     2.0076362944250983E-007
  -2.1399999999999999E-002     2.0253734627787656E-007
  -2.1350000000000001E-002     2.0426036012729276E-007
  -2.1299999999999999E-002     2.0592752696871279E-007
  -2.1250000000000002E-002     2.0753238737031813E-007
  -2.1200000000000000E-002     2.0906865870109381E-007
  -2.1149999999999999E-002     2.1053135191282014E-007
  -2.1100000000000001E-002     2.1191698948590764E-007
  -2.1049999999999999E-002     2.1322297598766608E-007
  -2.1000000000000001E-002     2.1444642008613767E-007
  -2.0950000000000000E-002     2.1558368168633421E-007
  -2.0899999999999998E-002     2.1663052024906655E-007
  -2.0850000000000000E-002     2.1758298708432123E-007
  -2.0799999999999999E-002     2.1843805676118190E-007
  -2.0750000000000001E-002     2.1919360873542225E-007
  -2.0700000000000000E-002     2.1984734250999419E-007
  -2.0649999999999998E-002     2.2039539522173100E-007
  -2.0600000000000000E-002     2.2083154580417887E-007
  -2.0549999999999999E-002     2.2114748484676475E-007
  -2.0500000000000001E-002     2.2133432953351153E-007
  -2.0449999999999999E-002     2.2138445491305371E-007
  -2.0400000000000001E-002     2.2129268253570885E-007
  -2.0350000000000000E-002     2.2105589225012372E-007
  -2.0299999999999999E-002     2.2067173545992859E-007
  -2.0250000000000001E-002     2.2013661614423033E-007
  -2.0199999999999999E-002     2.1944470138898539E-007
  -2.0150000000000001E-002     2.1858819122818562E-007
  -2.0100000000000000E-002     2.1755866261777240E-007
  -2.0049999999999998E-002     2.1634851996672307E-007
  -2.0000000000000000E-002     2.1495154117766453E-007
  -1.9949999999999999E-002     2.1336216926391538E-007
  -1.9900000000000001E-002     2.1157411066587930E-007
  -1.9850000000000000E-002     2.0957919602276528E-007
  -1.9799999999999998E-002     2.0736737842377334E-007
  -1.9750000000000000E-002     2.0492800986260562E-007
  -1.9699999999999999E-002     2.0225152960067309E-007
  -1.9650000000000001E-002     1.9933048127739630E-007
  -1.9599999999999999E-002     1.9615895596255675E-007
  -1.9550000000000001E-002     1.9273062202547212E-007
  -1.9500000000000000E-002     1.8903658896516044E-007
  -1.9449999999999999E-002     1.8506422340713407E-007
  -1.9400000000000001E-002     1.8079772290898274E-007
  -1.9349999999999999E-002     1.7622024467787312E-007
  -1.9300000000000001E-002     1.7131631968007292E-007
  -1.9250000000000000E-002     1.6607320143191266E-007
  -1.9199999999999998E-002     1.6048042313982848E-007
  -1.9150000000000000E-002     1.5452797270843543E-007
  -1.9099999999999999E-002     1.4820455920606992E-007
  -1.9050000000000001E-002     1.4149685837319777E-007
  -1.9000000000000000E-002     1.3439032225097748E-007
  -1.8949999999999998E-002     1.2687085479061536E-007
  -1.8900000000000000E-002     1.1892604614977800E-007
  -1.8849999999999999E-002     1.1054494803772133E-007
  -1.8800000000000001E-002     1.0171636640736624E-007
  -1.8749999999999999E-002     9.2426631951905522E-008
  -1.8700000000000001E-002     8.2658202782296988E-008
  -1.8650000000000000E-002     7.2390167733178801E-008
  -1.8599999999999998E-002     6.1600383945498233E-008
  -1.8550000000000001E-002     5.0268148401166283E-008
  -1.8499999999999999E-002     3.8375774638714590E-008
  -1.8450000000000001E-002     2.5908157338467626E-008
  -1.8400000000000000E-002     1.2850837280513997E-008
  -1.8349999999999998E-002    -8.1233561142122223E-010
  -1.8300000000000000E-002    -1.5100297935060941E-008
  -1.8249999999999999E-002    -3.0034006179166009E-008
  -1.8200000000000001E-002    -4.5634466798218299E-008
  -1.8149999999999999E-002    -6.1920851956836189E-008
  -1.8100000000000002E-002    -7.8910029805749629E-008
  -1.8050000000000000E-002    -9.6617797660688058E-008
  -1.7999999999999999E-002    -1.1506099744774669E-007
  -1.7950000000000001E-002    -1.3425903742597466E-007
  -1.7899999999999999E-002    -1.5423382309969839E-007
  -1.7850000000000001E-002    -1.7500797452832016E-007
  -1.7800000000000000E-002    -1.9660269687529424E-007
  -1.7749999999999998E-002    -2.1903673237193263E-007
  -1.7700000000000000E-002    -2.4232748840620531E-007
  -1.7649999999999999E-002    -2.6649367405598749E-007
  -1.7600000000000001E-002    -2.9155810851150442E-007
  -1.7550000000000000E-002    -3.1754856877680394E-007
  -1.7499999999999998E-002    -3.4449657350892461E-007
  -1.7450000000000000E-002    -3.7243416954106833E-007
  -1.7399999999999999E-002    -4.0139107672880494E-007
  -1.7350000000000001E-002    -4.3139375457344545E-007
  -1.7299999999999999E-002    -4.6246708219099919E-007
  -1.7250000000000001E-002    -4.9463713956956818E-007
  -1.7200000000000000E-002    -5.2793367213660484E-007
  -1.7149999999999999E-002    -5.6239065364255579E-007
  -1.7100000000000001E-002    -5.9804409182480065E-007
  -1.7049999999999999E-002    -6.3492926668684855E-007
  -1.7000000000000001E-002    -6.7307857945736399E-007
  -1.6950000000000000E-002    -7.1252206513654304E-007
  -1.6899999999999998E-002    -7.5328993092521044E-007
  -1.6850000000000000E-002    -7.9541540865691135E-007
  -1.6799999999999999E-002    -8.3893654543826250E-007
  -1.6750000000000001E-002    -8.8389492916667316E-007
  -1.6700000000000000E-002    -9.3033250287945119E-007
  -1.6649999999999998E-002    -9.7828825313267487E-007
  -1.6600000000000000E-002    -1.0277974599834568E-006
  -1.6549999999999999E-002    -1.0788930402452702E-006
  -1.6500000000000001E-002    -1.1316089663469947E-006
  -1.6449999999999999E-002    -1.1859839843976340E-006
  -1.6400000000000001E-002    -1.2420619632720826E-006
  -1.6350000000000000E-002    -1.2998900105854273E-006
  -1.6299999999999999E-002    -1.3595147035112957E-006
  -1.6250000000000001E-002    -1.4209787249679454E-006
  -1.6199999999999999E-002    -1.4843206521881051E-006
  -1.6150000000000001E-002    -1.5495779834139956E-006
  -1.6100000000000000E-002    -1.6167903575585166E-006
  -1.6049999999999998E-002    -1.6860025974075353E-006
  -1.6000000000000000E-002    -1.7572642879561687E-006
  -1.5949999999999999E-002    -1.8306266311648259E-006
  -1.5900000000000001E-002    -1.9061385609777085E-006
  -1.5850000000000000E-002    -1.9838449840519380E-006
  -1.5799999999999998E-002    -2.0637884267061089E-006
  -1.5750000000000000E-002    -2.1460128379090177E-006
  -1.5699999999999999E-002    -2.2305672161299196E-006
  -1.5650000000000001E-002    -2.3175062148538271E-006
  -1.5599999999999999E-002    -2.4068882391365633E-006
  -1.5550000000000001E-002    -2.4987714765908292E-006
  -1.5500000000000000E-002    -2.5932103502281238E-006
  -1.5449999999999998E-002    -2.6902553051129038E-006
  -1.5400000000000000E-002    -2.7899565643131756E-006
  -1.5349999999999999E-002    -2.8923675556929341E-006
  -1.5300000000000001E-002    -2.9975484130008130E-006
  -1.5250000000000000E-002    -3.1055638518709936E-006
  -1.5199999999999998E-002    -3.2164818263878309E-006
  -1.5150000000000000E-002    -3.3303669417703004E-006
  -1.5099999999999999E-002    -3.4472800977551906E-006
  -1.5050000000000001E-002    -3.5672796263407526E-006
  -1.4999999999999999E-002    -3.6904251059507777E-006
  -1.4949999999999998E-002    -3.8167819161274798E-006
  -1.4900000000000000E-002    -3.9464214590668115E-006
  -1.4849999999999999E-002    -4.0794198618533486E-006
  -1.4800000000000001E-002    -4.2158539335038696E-006
  -1.4749999999999999E-002    -4.3557946289625101E-006
  -1.4700000000000001E-002    -4.4993082381595216E-006
  -1.4650000000000000E-002    -4.6464583604471877E-006
  -1.4599999999999998E-002    -4.7973125995773193E-006
  -1.4550000000000000E-002    -4.9519447074264417E-006
  -1.4499999999999999E-002    -5.1104345531323664E-006
  -1.4450000000000001E-002    -5.2728647379792262E-006
  -1.4400000000000000E-002    -5.4393150089237504E-006
  -1.4349999999999998E-002    -5.6098572588712420E-006
  -1.4300000000000000E-002    -5.7845592711421429E-006
  -1.4249999999999999E-002    -5.9634912232152139E-006
  -1.4200000000000001E-002    -6.1467280239248470E-006
  -1.4149999999999999E-002    -6.3343560808729807E-006
  -1.4099999999999998E-002    -6.5264656659371000E-006
  -1.4050000000000000E-002    -6.7231493448358177E-006
  -1.3999999999999999E-002    -6.9244937886217580E-006
  -1.3950000000000001E-002    -7.1305791168344791E-006
  -1.3899999999999999E-002    -7.3414838146135736E-006
  -1.3850000000000001E-002    -7.5572881862290027E-006
  -1.3800000000000000E-002    -7.7780805249165017E-006
  -1.3749999999999998E-002    -8.0039562736134713E-006
  -1.3700000000000000E-002    -8.2350179845079512E-006
  -1.3649999999999999E-002    -8.4713625687521488E-006
  -1.3600000000000001E-002    -8.7130839236540245E-006
  -1.3550000000000000E-002    -8.9602721378072847E-006
  -1.3499999999999998E-002    -9.2130157586847333E-006
  -1.3450000000000000E-002    -9.4714073144346250E-006
  -1.3399999999999999E-002    -9.7355451539030117E-006
  -1.3350000000000001E-002    -1.0005539620239828E-005
  -1.3299999999999999E-002    -1.0281501549231371E-005
  -1.3249999999999998E-002    -1.0563533551985847E-005
  -1.3200000000000000E-002    -1.0851731565337458E-005
  -1.3149999999999998E-002    -1.1146187817864449E-005
  -1.3100000000000001E-002    -1.1446998571238261E-005
  -1.3049999999999999E-002    -1.1754266332366015E-005
  -1.3000000000000001E-002    -1.2068106582274733E-005
  -1.2950000000000000E-002    -1.2388638576397543E-005
  -1.2899999999999998E-002    -1.2715979511063887E-005
  -1.2850000000000000E-002    -1.3050239460718490E-005
  -1.2799999999999999E-002    -1.3391521968178452E-005