  -4.0000000000000001E-002     0.0000000000000000     
  -3.9949999999999999E-002     0.0000000000000000     
  -3.9899999999999998E-002     0.0000000000000000     
  -3.9850000000000003E-002     0.0000000000000000     
  -3.9800000000000002E-002     0.0000000000000000     
  -3.9750000000000001E-002     0.0000000000000000     
  -3.9699999999999999E-002     0.0000000000000000     
  -3.9649999999999998E-002     0.0000000000000000     
  -3.9600000000000003E-002     0.0000000000000000     
  -3.9550000000000002E-002     0.0000000000000000     
  -3.9500000000000000E-002     0.0000000000000000     
  -3.9449999999999999E-002     0.0000000000000000     
  -3.9399999999999998E-002     0.0000000000000000     
  -3.9350000000000003E-002     0.0000000000000000     
  -3.9300000000000002E-002    -1.1731139853409385E-039
  -3.9250000000000000E-002    -2.2868493226719098E-038
  -3.9199999999999999E-002    -2.1378071902680995E-037
  -3.9150000000000004E-002    -1.3394616402143279E-036
  -3.9100000000000003E-002    -5.5959619953786839E-036
  -3.9050000000000001E-002    -1.5040438993761924E-035
  -3.9000000000000000E-002    -1.1881979775824154E-035
  -3.8949999999999999E-002     1.2923080263359318E-034
  -3.8900000000000004E-002     9.0660421424567280E-034
  -3.8850000000000003E-002     3.7854063754505093E-033
  -3.8800000000000001E-002     1.2132959266654538E-032
  -3.8750000000000000E-002     3.1859394277430290E-032
  -3.8699999999999998E-002     6.9530609130171104E-032
  -3.8650000000000004E-002     1.2296636671947246E-031
  -3.8600000000000002E-002     1.5615233546443230E-031
  -3.8550000000000001E-002     4.9407269750455095E-032
  -3.8500000000000000E-002    -4.7688112256607878E-031
  -3.8449999999999998E-002    -1.9409033356018877E-030
  -3.8400000000000004E-002    -5.0989721497713301E-030
  -3.8350000000000002E-002    -1.0685348778446590E-029
  -3.8300000000000001E-002    -1.8583573269521209E-029
  -3.8249999999999999E-002    -2.6037555571285623E-029
  -3.8199999999999998E-002    -2.4661148575731136E-029
  -3.8150000000000003E-002     3.2838676394176164E-030
  -3.8100000000000002E-002     8.7225033076233892E-029
  -3.8050000000000000E-002     2.6443844125588977E-028
  -3.7999999999999999E-002     5.6232058419794101E-028
  -3.7949999999999998E-002     9.5826773966142730E-028
  -3.7900000000000003E-002     1.3141031963031198E-027
  -3.7850000000000002E-002     1.2983007692554075E-027
  -3.7800000000000000E-002     3.3817621616491185E-028
  -3.7749999999999999E-002    -2.3206672291049064E-027
  -3.7699999999999997E-002    -7.3483363761704209E-027
  -3.7650000000000003E-002    -1.4781855157194947E-026
  -3.7600000000000001E-002    -2.3219690713390571E-026
  -3.7550000000000000E-002    -2.8981366147988698E-026
  -3.7499999999999999E-002    -2.5707007218645942E-026
  -3.7449999999999997E-002    -5.0755413531725903E-027
  -3.7400000000000003E-002     4.0694892011851766E-026
  -3.7350000000000001E-002     1.1431101800976030E-025
  -3.7300000000000000E-002     2.0746647128667115E-025
  -3.7249999999999998E-002     2.9536707403698657E-025
  -3.7200000000000004E-002     3.3474675825823035E-025
  -3.7150000000000002E-002     2.6884269416580186E-025
  -3.7100000000000001E-002     4.1834629026995627E-026
  -3.7050000000000000E-002    -3.7749044248018690E-025
  -3.6999999999999998E-002    -9.6732612951814214E-025
  -3.6950000000000004E-002    -1.6287378684219138E-024
  -3.6900000000000002E-002    -2.1779091884046437E-024
  -3.6850000000000001E-002    -2.3661081625643484E-024
  -3.6799999999999999E-002    -1.9329003690744996E-024
  -3.6749999999999998E-002    -6.8732984544138561E-025
  -3.6700000000000003E-002     1.4015867357733294E-024
  -3.6650000000000002E-002     4.1349192804747045E-024
  -3.6600000000000001E-002     7.0675864394916289E-024
  -3.6549999999999999E-002     9.5692185631187529E-024
  -3.6499999999999998E-002     1.0961387969697625E-023
  -3.6450000000000003E-002     1.0696291319866352E-023
  -3.6400000000000002E-002     8.5094360497868263E-024
  -3.6350000000000000E-002     4.4648261768030814E-024
  -3.6299999999999999E-002    -1.1675529347233632E-024
  -3.6249999999999998E-002    -8.1963259684656658E-024
  -3.6200000000000003E-002    -1.6848726450294420E-023
  -3.6150000000000002E-002    -2.7954952239938208E-023
  -3.6100000000000000E-002    -4.2711742996762662E-023
  -3.6049999999999999E-002    -6.1815796143392819E-023
  -3.6000000000000004E-002    -8.3962930810428477E-023
  -3.5950000000000003E-002    -1.0405203530811974E-022
  -3.5900000000000001E-002    -1.1182889166985320E-022
  -3.5850000000000000E-002    -9.1996135268077560E-023
  -3.5799999999999998E-002    -2.6807202479143336E-023
  -3.5750000000000004E-002     9.8305187663046246E-023
  -3.5700000000000003E-002     2.8648415731100135E-022
  -3.5650000000000001E-002     5.2032392027955115E-022
  -3.5600000000000000E-002     7.5490905730196451E-022
  -3.5549999999999998E-002     9.1683795592062055E-022
  -3.5500000000000004E-002     9.1276879736334268E-022
  -3.5450000000000002E-002     6.4931895167992550E-022
  -3.5400000000000001E-002     6.3037622752031919E-023
  -3.5349999999999999E-002    -8.4483641748756615E-022
  -3.5299999999999998E-002    -1.9780119866529158E-021
  -3.5250000000000004E-002    -3.1307698735146483E-021
  -3.5200000000000002E-002    -4.0007417318482397E-021
  -3.5150000000000001E-002    -4.2357888051313305E-021
  -3.5099999999999999E-002    -3.5138891606024523E-021
  -3.5049999999999998E-002    -1.6443103791070039E-021
  -3.5000000000000003E-002     1.3323482223094291E-021
  -3.4950000000000002E-002     5.0749017121227364E-021
  -3.4900000000000000E-002     8.9329895603707675E-021
  -3.4849999999999999E-002     1.2019866160452057E-020
  -3.4799999999999998E-002     1.3368953712507621E-020
  -3.4750000000000003E-002     1.2152402277174590E-020
  -3.4700000000000002E-002     7.9168718876341854E-021
  -3.4650000000000000E-002     7.7780047848042808E-022
  -3.4599999999999999E-002    -8.4845186890730078E-021
  -3.4549999999999997E-002    -1.8463290100274795E-020
  -3.4500000000000003E-002    -2.7300355990999793E-020
  -3.4450000000000001E-002    -3.2964205819916105E-020
  -3.4400000000000000E-002    -3.3573135890750379E-020
  -3.4349999999999999E-002    -2.7706383830226028E-020
  -3.4299999999999997E-002    -1.4672328840600526E-020
  -3.4250000000000003E-002     5.2572475735900574E-021
  -3.4200000000000001E-002     3.0609214509834856E-020
  -3.4150000000000000E-002     5.8442234681445958E-020
  -3.4099999999999998E-002     8.4095064456803350E-020
  -3.4049999999999997E-002     1.0111244727827003E-019
  -3.4000000000000002E-002     1.0163114202630705E-019
  -3.3950000000000001E-002     7.7556882936801682E-020
  -3.3900000000000000E-002     2.2756461718642256E-020
  -3.3849999999999998E-002    -6.3820587048132762E-020
  -3.3799999999999997E-002    -1.7466479598500998E-019
  -3.3750000000000002E-002    -2.9099652895143077E-019
  -3.3700000000000001E-002    -3.8233317510262366E-019
  -3.3649999999999999E-002    -4.0982873943061602E-019
  -3.3599999999999998E-002    -3.3425238440620407E-019
  -3.3550000000000003E-002    -1.2819637337818851E-019
  -3.3500000000000002E-002     2.0963417955440479E-019
  -3.3450000000000001E-002     6.4191820524673984E-019
  -3.3399999999999999E-002     1.0869612834243381E-018
  -3.3349999999999998E-002     1.4244196797091930E-018
  -3.3300000000000003E-002     1.5153173274790042E-018
  -3.3250000000000002E-002     1.2355644803574969E-018
  -3.3200000000000000E-002     5.1756748154273667E-019
  -3.3149999999999999E-002    -6.0991335523754052E-019
  -3.3099999999999997E-002    -1.9962059374530272E-018
  -3.3050000000000003E-002    -3.3696387535878512E-018
  -3.3000000000000002E-002    -4.3727841560893008E-018
  -3.2950000000000000E-002    -4.6320319978746403E-018
  -3.2899999999999999E-002    -3.8515119051910004E-018
  -3.2850000000000004E-002    -1.9118541013639139E-018
  -3.2800000000000003E-002     1.0518179090070013E-018
  -3.2750000000000001E-002     4.6184227898488796E-018
  -3.2700000000000000E-002     8.1146282707753549E-018
  -3.2649999999999998E-002     1.0718799936600943E-017
  -3.2600000000000004E-002     1.1622807296716469E-017
  -3.2550000000000003E-002     1.0222449549015856E-017
  -3.2500000000000001E-002     6.2955176233132345E-018
  -3.2450000000000000E-002     1.2385393368519753E-019
  -3.2399999999999998E-002    -7.4762392952761725E-018
  -3.2350000000000004E-002    -1.5233475628908460E-017
  -3.2300000000000002E-002    -2.1606340818528874E-017
  -3.2250000000000001E-002    -2.5045694843254941E-017
  -3.2199999999999999E-002    -2.4290836933558125E-017
  -3.2149999999999998E-002    -1.8647279740568998E-017
  -3.2100000000000004E-002    -8.1978163002013406E-018
  -3.2050000000000002E-002     6.0898382152867659E-018
  -3.2000000000000001E-002     2.2379887059427438E-017
  -3.1949999999999999E-002     3.8116098303610266E-017
  -3.1899999999999998E-002     5.0295651999614797E-017
  -3.1850000000000003E-002     5.5857503898006690E-017
  -3.1800000000000002E-002     5.2166449035020243E-017
  -3.1750000000000000E-002     3.7561401458100232E-017
  -3.1699999999999999E-002     1.1913617903674344E-017
  -3.1649999999999998E-002    -2.2892033762578946E-017
  -3.1600000000000003E-002    -6.2674961996528716E-017
  -3.1550000000000002E-002    -1.0102172298316781E-016
  -3.1500000000000000E-002    -1.2983246807586810E-016
  -3.1449999999999999E-002    -1.4043446921667693E-016
  -3.1399999999999997E-002    -1.2523625471759009E-016
  -3.1350000000000003E-002    -7.9739211503098610E-017
  -3.1300000000000001E-002    -4.5510960832759682E-018
  -3.1250000000000000E-002     9.3096074608463647E-017
  -3.1199999999999999E-002     1.9887778325428458E-016
  -3.1150000000000001E-002     2.9243257263038207E-016
  -3.1100000000000003E-002     3.5017790546463156E-016
  -3.1050000000000001E-002     3.4974185186232922E-016
  -3.1000000000000000E-002     2.7540493276677017E-016
  -3.0949999999999998E-002     1.2351152665054268E-016
  -3.0900000000000000E-002    -9.3475445220594080E-017
  -3.0850000000000002E-002    -3.4561815577574907E-016
  -3.0800000000000001E-002    -5.8786013503213171E-016
  -3.0750000000000000E-002    -7.6644446060662247E-016
  -3.0699999999999998E-002    -8.2883135516067149E-016
  -3.0650000000000000E-002    -7.3558017078760463E-016
  -3.0600000000000002E-002    -4.7185875348015649E-016
  -3.0550000000000001E-002    -5.5849994625695372E-017
  -3.0499999999999999E-002     4.5847587186946936E-016
  -3.0449999999999998E-002     9.8592053990851024E-016
  -3.0400000000000000E-002     1.4222537280738678E-015
  -3.0350000000000002E-002     1.6626625992292316E-015
  -3.0300000000000001E-002     1.6234447696696737E-015
  -3.0249999999999999E-002     1.2627544310343590E-015
  -3.0200000000000001E-002     5.9583550071276409E-016
  -3.0150000000000000E-002    -2.9923920427250878E-016
  -3.0100000000000002E-002    -1.2877592648026159E-015
  -3.0050000000000000E-002    -2.1967047101690351E-015
  -2.9999999999999999E-002    -2.8429217332787226E-015
  -2.9950000000000001E-002    -3.0666429263946532E-015
  -2.9899999999999999E-002    -2.7643942049777454E-015
  -2.9850000000000002E-002    -1.9149876576259204E-015
  -2.9800000000000000E-002    -5.9320282470072682E-016
  -2.9749999999999999E-002     1.0323160154363522E-015
  -2.9700000000000001E-002     2.7177500911741205E-015
  -2.9650000000000003E-002     4.1773817711915970E-015
  -2.9600000000000001E-002     5.1269773433248066E-015
  -2.9550000000000000E-002     5.3310665111921517E-015
  -2.9499999999999998E-002     4.6471515246954290E-015
  -2.9450000000000000E-002     3.0600878728117937E-015
  -2.9400000000000003E-002     7.0091060949328750E-016
  -2.9350000000000001E-002    -2.1539910595639188E-015
  -2.9300000000000000E-002    -5.1054353132893698E-015
  -2.9249999999999998E-002    -7.6755257314240307E-015
  -2.9200000000000000E-002    -9.3704864816636063E-015
  -2.9150000000000002E-002    -9.7567075366185891E-015
  -2.9100000000000001E-002    -8.5414868104837670E-015
  -2.9049999999999999E-002    -5.6472166953913919E-015
  -2.8999999999999998E-002    -1.2657174139978256E-015
  -2.8950000000000000E-002     4.1210436834603105E-015
  -2.8900000000000002E-002     9.7656170925870733E-015
  -2.8850000000000001E-002     1.4731932745099373E-014
  -2.8799999999999999E-002     1.8023103158958513E-014
  -2.8749999999999998E-002     1.8748515868579728E-014
  -2.8700000000000000E-002     1.6307533834304189E-014
  -2.8650000000000002E-002     1.0557938005841941E-014
  -2.8600000000000000E-002     1.9324402834458930E-015
  -2.8549999999999999E-002    -8.5312761330550784E-015
  -2.8500000000000001E-002    -1.9271277859401340E-014
  -2.8450000000000000E-002    -2.8399235411103353E-014
  -2.8400000000000002E-002    -3.3998551381165936E-014
  -2.8350000000000000E-002    -3.4481570010471879E-014
  -2.8299999999999999E-002    -2.8944641262878227E-014
  -2.8250000000000001E-002    -1.7449388518169521E-014
  -2.8200000000000003E-002    -1.1617092126896732E-015
  -2.8150000000000001E-002     1.7701357820063842E-014
  -2.8100000000000000E-002     3.6134925476969508E-014
  -2.8049999999999999E-002     5.0797249369149485E-014
  -2.8000000000000001E-002     5.8584898104024364E-014
  -2.7950000000000003E-002     5.7235502814499370E-014
  -2.7900000000000001E-002     4.5844696657440929E-014
  -2.7850000000000000E-002     2.5188352896781310E-014
  -2.7799999999999998E-002    -2.2313412831861889E-015
  -2.7750000000000000E-002    -3.2451587823521069E-014
  -2.7700000000000002E-002    -6.0604977315014849E-014
  -2.7650000000000001E-002    -8.1687510318859733E-014
  -2.7600000000000000E-002    -9.1415318816088421E-014
  -2.7549999999999998E-002    -8.7022623910628470E-014
  -2.7500000000000000E-002    -6.7856419518541896E-014
  -2.7450000000000002E-002    -3.5653091188459410E-014
  -2.7400000000000001E-002     5.5664453194497770E-015
  -2.7349999999999999E-002     4.9983327901705267E-014
  -2.7299999999999998E-002     9.0785173317254476E-014
  -2.7250000000000000E-002     1.2117211819543920E-013
  -2.7200000000000002E-002     1.3541525548206716E-013
  -2.7150000000000001E-002     1.2980940107431913E-013
  -2.7099999999999999E-002     1.0337718606013256E-013
  -2.7049999999999998E-002     5.8216142994913523E-014
  -2.7000000000000000E-002    -5.7264520668614011E-016
  -2.6950000000000002E-002    -6.5383339659154710E-014
  -2.6900000000000000E-002    -1.2698890896874423E-013
  -2.6849999999999999E-002    -1.7572092222066058E-013
  -2.6800000000000001E-002    -2.0281836645531687E-013
  -2.6749999999999999E-002    -2.0178914477495347E-013
  -2.6700000000000002E-002    -1.6960901454618312E-013
  -2.6650000000000000E-002    -1.0757866100546921E-013
  -2.6599999999999999E-002    -2.1672664327362304E-014
  -2.6550000000000001E-002     7.7747399922065147E-014
  -2.6500000000000003E-002     1.7691872232789147E-013
  -2.6450000000000001E-002     2.6033293949395708E-013
  -2.6400000000000000E-002     3.1292094231628818E-013
  -2.6349999999999998E-002     3.2250914497909993E-013
  -2.6300000000000000E-002     2.8219059629219474E-013
  -2.6250000000000002E-002     1.9219651110957996E-013
  -2.6200000000000001E-002     6.0861119178984221E-014
  -2.6150000000000000E-002    -9.5639650284046228E-014
  -2.6099999999999998E-002    -2.5492874856551109E-013
  -2.6050000000000000E-002    -3.9137250522691754E-013
  -2.6000000000000002E-002    -4.7999826192761180E-013
  -2.5950000000000001E-002    -5.0082127222611091E-013
  -2.5899999999999999E-002    -4.4285636143994110E-013
  -2.5849999999999998E-002    -3.0704774030422850E-013
  -2.5800000000000000E-002    -1.0745250900071284E-013
  -2.5750000000000002E-002     1.2974146836544944E-013
  -2.5700000000000001E-002     3.6942618817666786E-013
  -2.5649999999999999E-002     5.7266657569689832E-013
  -2.5599999999999998E-002     7.0294499236399475E-013
  -2.5550000000000000E-002     7.3254524353508251E-013
  -2.5500000000000002E-002     6.4795215695858855E-013
  -2.5450000000000000E-002     4.5323458456529758E-013
  -2.5399999999999999E-002     1.7067413884376781E-013
  -2.5349999999999998E-002    -1.6164713906822962E-013
  -2.5300000000000000E-002    -4.9505952824866041E-013
  -2.5250000000000002E-002    -7.7756728653538355E-013
  -2.5200000000000000E-002    -9.6201841448953847E-013
  -2.5149999999999999E-002    -1.0138447743992590E-012
  -2.5100000000000001E-002    -9.1707466374157297E-013
  -2.5049999999999999E-002    -6.7759005144150032E-013
  -2.5000000000000001E-002    -3.2304886406314898E-013
  -2.4950000000000000E-002     1.0055896531727055E-013
  -2.4899999999999999E-002     5.3521063268762845E-013
  -2.4850000000000001E-002     9.1904943317384568E-013
  -2.4800000000000003E-002     1.1952533080650462E-012
  -2.4750000000000001E-002     1.3202747699965043E-012
  -2.4700000000000000E-002     1.2702874727004940E-012
  -2.4649999999999998E-002     1.0449678372409763E-012
  -2.4600000000000000E-002     6.6813302184422703E-013
  -2.4550000000000002E-002     1.8517794771519795E-013
  -2.4500000000000001E-002    -3.4235609591543518E-013
  -2.4450000000000000E-002    -8.4442856702477513E-013
  -2.4399999999999998E-002    -1.2514850980703326E-012
  -2.4350000000000000E-002    -1.5037644002560380E-012
  -2.4299999999999999E-002    -1.5598559263382367E-012
  -2.4250000000000001E-002    -1.4034552537771812E-012
  -2.4199999999999999E-002    -1.0473636306991958E-012
  -2.4150000000000001E-002    -5.3396461782858352E-013
  -2.4100000000000000E-002     6.8289362444487659E-014
  -2.4049999999999998E-002     6.7242381159141708E-013
  -2.4000000000000000E-002     1.1840346688982776E-012
  -2.3949999999999999E-002     1.5148350134237842E-012
  -2.3900000000000001E-002     1.5969920096552927E-012
  -2.3850000000000000E-002     1.3961455361683035E-012
  -2.3800000000000002E-002     9.2082771914154776E-013
  -2.3750000000000000E-002     2.2619278169543722E-013
  -2.3699999999999999E-002    -5.8941008312293992E-013
  -2.3650000000000001E-002    -1.3954849369736256E-012
  -2.3599999999999999E-002    -2.0472414483135380E-012
  -2.3550000000000001E-002    -2.4080997978730857E-012
  -2.3500000000000000E-002    -2.3735542420618491E-012
  -2.3449999999999999E-002    -1.8924267249993291E-012
  -2.3400000000000001E-002    -9.8153084551425512E-013
  -2.3349999999999999E-002     2.6949489946137203E-013
  -2.3300000000000001E-002     1.7049865913684479E-012
  -2.3250000000000000E-002     3.1215569607798211E-012
  -2.3199999999999998E-002     4.2956990809692780E-012
  -2.3150000000000000E-002     5.0166593075271583E-012
  -2.3099999999999999E-002     5.1193506435734827E-012
  -2.3050000000000001E-002     4.5117952913999307E-012
  -2.3000000000000000E-002     3.1923227185017982E-012
  -2.2950000000000002E-002     1.2534126886824958E-012
  -2.2900000000000000E-002    -1.1286271590962162E-012
  -2.2849999999999999E-002    -3.7164536029646170E-012
  -2.2800000000000001E-002    -6.2430378034983390E-012
  -2.2749999999999999E-002    -8.4461720578652591E-012
  -2.2700000000000001E-002    -1.0100251458438676E-011
  -2.2650000000000000E-002    -1.1040081088902154E-011
  -2.2599999999999999E-002    -1.1173041953106487E-011
  -2.2550000000000001E-002    -1.0478176819439294E-011
  -2.2499999999999999E-002    -8.9931049244675050E-012
  -2.2450000000000001E-002    -6.7917695275236258E-012
  -2.2400000000000000E-002    -3.9573793097054081E-012
  -2.2349999999999998E-002    -5.5540228249611138E-013
  -2.2300000000000000E-002     3.3889752234518277E-012
  -2.2249999999999999E-002     7.9056388444567295E-012
  -2.2200000000000001E-002     1.3084877572367711E-011
  -2.2150000000000000E-002     1.9073077470914928E-011
  -2.2100000000000002E-002     2.6059976313704419E-011
  -2.2050000000000000E-002     3.4259464306434196E-011
  -2.1999999999999999E-002     4.3886293993008310E-011
  -2.1950000000000001E-002     5.5131078771455480E-011
  -2.1899999999999999E-002     6.8135694120591681E-011
  -2.1850000000000001E-002     8.2971129295924301E-011
  -2.1800000000000000E-002     9.9619585066308155E-011
  -2.1749999999999999E-002     1.1796304786017326E-010
  -2.1700000000000001E-002     1.3778015608172159E-010
  -2.1649999999999999E-002     1.5875359393921920E-010
  -2.1600000000000001E-002     1.8048908884281226E-010
  -2.1550000000000000E-002     2.0254615049261969E-010
  -2.1499999999999998E-002     2.2447890480770172E-010
  -2.1450000000000000E-002     2.4588304512529481E-010
  -2.1399999999999999E-002     2.6644309221574557E-010
  -2.1350000000000001E-002     2.8597265242325085E-010
  -2.1299999999999999E-002     3.0444078005632117E-010
  -2.1250000000000002E-002     3.2197760486994848E-010
  -2.1200000000000000E-002     3.3885676089023256E-010
  -2.1149999999999999E-002     3.5545473396266805E-010
  -2.1100000000000001E-002     3.7219232834703187E-010
  -2.1049999999999999E-002     3.8946703960801415E-010
  -2.1000000000000001E-002     4.0758793075965281E-010
  -2.0950000000000000E-002     4.2672434473233890E-010
  -2.0899999999999998E-002     4.4687908773774187E-010
  -2.0850000000000000E-002     4.6789130433512365E-010
  -2.0799999999999999E-002     4.8947009209780278E-010
  -2.0750000000000001E-002     5.1125282094913414E-010
  -2.0700000000000000E-002     5.3287815812696448E-010
  -2.0649999999999998E-002     5.5405995869113720E-010
  -2.0600000000000000E-002     5.7464794646238411E-010
  -2.0549999999999999E-002     5.9466384676969487E-010
  -2.0500000000000001E-002     6.1430536867721772E-010
  -2.0449999999999999E-002     6.3391821790727746E-010
  -2.0400000000000001E-002     6.5394108187161605E-010
  -2.0350000000000000E-002     6.7483406793749118E-010
  -2.0299999999999999E-002     6.9700470059168686E-010
  -2.0250000000000001E-002     7.2074516041756094E-010
  -2.0199999999999999E-002     7.4619060649588416E-010
  -2.0150000000000001E-002     7.7330604735402238E-010
  -2.0100000000000000E-002     8.0190197177597816E-010
  -2.0049999999999998E-002     8.3167396458421308E-010
  -2.0000000000000000E-002     8.6225768078659394E-010
  -1.9949999999999999E-002     8.9328863145644505E-010
  -1.9900000000000001E-002     9.2445711728329808E-010
  -1.9850000000000000E-002     9.5555029854505379E-010
  -1.9799999999999998E-002     9.8647657005366573E-010
  -1.9750000000000000E-002     1.0172722363630390E-009
  -1.9699999999999999E-002     1.0480925805191358E-009
  -1.9650000000000001E-002     1.0791904829726265E-009
  -1.9599999999999999E-002     1.1108887992747375E-009
  -1.9550000000000001E-002     1.1435477883144782E-009
  -1.9500000000000000E-002     1.1775333683640405E-009
  -1.9449999999999999E-002     1.2131840880788573E-009
  -1.9400000000000001E-002     1.2507799337464176E-009
  -1.9349999999999999E-002     1.2905132727924941E-009
  -1.9300000000000001E-002     1.3324639619323221E-009
  -1.9250000000000000E-002     1.3765826878031890E-009
  -1.9199999999999998E-002     1.4226875807834254E-009
  -1.9150000000000000E-002     1.4704765460721823E-009
  -1.9099999999999999E-002     1.5195597459026090E-009
  -1.9050000000000001E-002     1.5695104154818805E-009
  -1.9000000000000000E-002     1.6199288573156607E-009
  -1.8949999999999998E-002     1.6705127223759952E-009
  -1.8900000000000000E-002     1.7211197948131314E-009
  -1.8849999999999999E-002     1.7718116839281826E-009
  -1.8800000000000001E-002     1.8228690989130314E-009
  -1.8749999999999999E-002     1.8747701502117824E-009
  -1.8700000000000001E-002     1.9281332130582924E-009
  -1.8650000000000000E-002     1.9836322235795241E-009
  -1.8599999999999998E-002     2.0418948608310510E-009
  -1.8550000000000001E-002     2.1034066039891732E-009
  -1.8499999999999999E-002     2.1684315069620411E-009
  -1.8450000000000001E-002     2.2369699143632654E-009
  -1.8400000000000000E-002     2.3087610316117139E-009
  -1.8349999999999998E-002     2.3833318850998762E-009
  -1.8300000000000000E-002     2.4600842037279448E-009
  -1.8249999999999999E-002     2.5384023394655457E-009
  -1.8200000000000001E-002     2.6177679200378179E-009
  -1.8149999999999999E-002     2.6978542126647401E-009
  -1.8100000000000002E-002     2.7785880686980553E-009
  -1.8050000000000000E-002     2.8601642600874513E-009
  -1.7999999999999999E-002     2.9430126812649756E-009
  -1.7950000000000001E-002     3.0277269717672683E-009
  -1.7899999999999999E-002     3.1149662415057697E-009
  -1.7850000000000001E-002     3.2053490713950687E-009
  -1.7800000000000000E-002     3.2993603730023731E-009
  -1.7749999999999998E-002     3.3972889604956353E-009
  -1.7700000000000000E-002     3.4992007218278292E-009
  -1.7649999999999999E-002     3.6049545494437643E-009
  -1.7600000000000001E-002     3.7142512998717540E-009
  -1.7550000000000000E-002     3.8267091837729349E-009
  -1.7499999999999998E-002     3.9419455260562942E-009
  -1.7450000000000000E-002     4.0596521191009714E-009
  -1.7399999999999999E-002     4.1796551805186866E-009
  -1.7350000000000001E-002     4.3019456112382498E-009
  -1.7299999999999999E-002     4.4266856757164005E-009
  -1.7250000000000001E-002     4.5541890468159540E-009
  -1.7200000000000000E-002     4.6848836962417260E-009
  -1.7149999999999999E-002     4.8192638739658772E-009
  -1.7100000000000001E-002     4.9578431746888706E-009
  -1.7049999999999999E-002     5.1011053636287851E-009
  -1.7000000000000001E-002     5.2494675301631556E-009
  -1.6950000000000000E-002     5.4032470707769264E-009
  -1.6899999999999998E-002     5.5626361053953911E-009
  -1.6850000000000000E-002     5.7276880647486004E-009
  -1.6799999999999999E-002     5.8983133975563628E-009
  -1.6750000000000001E-002     6.0742860268059786E-009
  -1.6700000000000000E-002     6.2552668035821771E-009
  -1.6649999999999998E-002     6.4408456748087455E-009
  -1.6600000000000000E-002     6.6305984837859251E-009
  -1.6549999999999999E-002     6.8241556171788460E-009
  -1.6500000000000001E-002     7.0212716199099935E-009
  -1.6449999999999999E-002     7.2218873270502806E-009
  -1.6400000000000001E-002     7.4261695286975781E-009
  -1.6350000000000000E-002     7.6345208887119125E-009
  -1.6299999999999999E-002     7.8475548364799990E-009
  -1.6250000000000001E-002     8.0660322322762182E-009
  -1.6199999999999999E-002     8.2907740093603001E-009
  -1.6150000000000001E-002     8.5225543062266879E-009
  -1.6100000000000000E-002     8.7620090705708103E-009
  -1.6049999999999998E-002     9.0095570242939674E-009
  -1.6000000000000000E-002     9.2653648413957320E-009
  -1.5949999999999999E-002     9.5293478328055022E-009
  -1.5900000000000001E-002     9.8012166319976117E-009
  -1.5850000000000000E-002     1.0080556580595521E-008
  -1.5799999999999998E-002     1.0366925805030427E-008
  -1.5750000000000000E-002     1.0659955832813812E-008
  -1.5699999999999999E-002     1.0959433944261429E-008
  -1.5650000000000001E-002     1.1265357331317673E-008
  -1.5599999999999999E-002     1.1577955692647819E-008
  -1.5550000000000001E-002     1.1897666902855925E-008
  -1.5500000000000000E-002     1.2225091859781353E-008
  -1.5449999999999998E-002     1.2560922896434095E-008
  -1.5400000000000000E-002     1.2905862700426718E-008
  -1.5349999999999999E-002     1.3260553179758131E-008
  -1.5300000000000001E-002     1.3625514798190114E-008
  -1.5250000000000000E-002     1.4001106992681012E-008
  -1.5199999999999998E-002     1.4387522096562592E-008
  -1.5150000000000000E-002     1.4784800035974845E-008
  -1.5099999999999999E-002     1.5192863333250868E-008
  -1.5050000000000001E-002     1.5611579865373122E-008
  -1.4999999999999999E-002     1.6040817106323575E-008
  -1.4949999999999998E-002     1.6480510294484027E-008
  -1.4900000000000000E-002     1.6930702005116081E-008
  -1.4849999999999999E-002     1.7391586760037775E-008
  -1.4800000000000001E-002     1.7863518329068759E-008
  -1.4749999999999999E-002     1.8346994781725797E-008
  -1.4700000000000001E-002     1.8842626252300045E-008
  -1.4650000000000000E-002     1.9351077518587518E-008
  -1.4599999999999998E-002     1.9873008226326566E-008
  -1.4550000000000000E-002     2.0409007565552510E-008
  -1.4499999999999999E-002     2.0959533587353415E-008
  -1.4450000000000001E-002     2.1524881948912301E-008
  -1.4400000000000000E-002     2.2105160082428965E-008
  -1.4349999999999998E-002     2.2700314356764840E-008
  -1.4300000000000000E-002     2.3310159445335390E-008
  -1.4249999999999999E-002     2.3934436166288454E-008
  -1.4200000000000001E-002     2.4572886752219690E-008
  -1.4149999999999999E-002     2.5225333937148229E-008
  -1.4099999999999998E-002     2.5891737138960040E-008
  -1.4050000000000000E-002     2.6572249902063359E-008
  -1.3999999999999999E-002     2.7267238385091537E-008
  -1.3950000000000001E-002     2.7977274765825385E-008
  -1.3899999999999999E-002     2.8703110012765830E-008
  -1.3850000000000001E-002     2.9445620500368272E-008
  -1.3800000000000000E-002     3.0205755686992567E-008
  -1.3749999999999998E-002     3.0984468052278740E-008
  -1.3700000000000000E-002     3.1782652570682634E-008
  -1.3649999999999999E-002     3.2601104972257883E-008
  -1.3600000000000001E-002     3.3440481313714466E-008
  -1.3550000000000000E-002     3.4301310101558043E-008
  -1.3499999999999998E-002     3.5183992260511127E-008
  -1.3450000000000000E-002     3.6088843106594252E-008
  -1.3399999999999999E-002     3.7016146235664364E-008
  -1.3350000000000001E-002     3.7966204034881091E-008
  -1.3299999999999999E-002     3.8939378660670780E-008
  -1.3249999999999998E-002     3.9936112446322826E-008
  -1.3200000000000000E-002     4.0956944768481384E-008
  -1.3149999999999998E-002     4.2002503835162098E-008
  -1.3100000000000001E-002     4.3073500403169642E-008
  -1.3049999999999999E-002     4.4170685636231204E-008
  -1.3000000000000001E-002     4.5294828485964535E-008
  -1.2950000000000000E-002     4.6446684196110578E-008
  -1.2899999999999998E-002     4.7626970306236038E-008
  -1.2850000000000000E-002     4.8836327150898737E-008
  -1.2799999999999999E-002     5.0075302648977328E-008