  -4.0000000000000001E-002     0.0000000000000000     
  -3.9949999999999999E-002     0.0000000000000000     
  -3.9899999999999998E-002     0.0000000000000000     
  -3.9850000000000003E-002     0.0000000000000000     
  -3.9800000000000002E-002     0.0000000000000000     
  -3.9750000000000001E-002     0.0000000000000000     
  -3.9699999999999999E-002     0.0000000000000000     
  -3.9649999999999998E-002     0.0000000000000000     
  -3.9600000000000003E-002     0.0000000000000000     
  -3.9550000000000002E-002     0.0000000000000000     
  -3.9500000000000000E-002    -2.4570506915503639E-031
  -3.9449999999999999E-002    -9.2562837368878366E-031
  -3.9399999999999998E-002     2.2540923936906422E-029
  -3.9350000000000003E-002     3.2581736335949283E-028
  -3.9300000000000002E-002     2.3721647488760480E-027
  -3.9250000000000000E-002     1.1987562040392052E-026
  -3.9199999999999999E-002     4.6540020398155560E-026
  -3.9150000000000004E-002     1.4509761350118925E-025
  -3.9100000000000003E-002     3.6862415994386195E-025
  -3.9050000000000001E-002     7.5134777934067747E-025
  -3.9000000000000000E-002     1.1309887771439418E-024
  -3.8949999999999999E-002     7.7995796436148053E-025
  -3.8900000000000004E-002    -2.1425735613874401E-024
  -3.8850000000000003E-002    -1.1003038533397693E-023
  -3.8800000000000001E-002    -3.0137227919670182E-023
  -3.8750000000000000E-002    -6.1940941585793513E-023
  -3.8699999999999998E-002    -1.0018985507697328E-022
  -3.8650000000000004E-002    -1.1954336338361458E-022
  -3.8600000000000002E-002    -6.4786014965218418E-023
  -3.8550000000000001E-002     1.5093689258825707E-022
  -3.8500000000000000E-002     6.2400498030408101E-022
  -3.8449999999999998E-002     1.3987605240216278E-021
  -3.8400000000000004E-002     2.3617765309264782E-021
  -3.8350000000000002E-002     3.1145134011549192E-021
  -3.8300000000000001E-002     2.8881990251082153E-021
  -3.8249999999999999E-002     6.0480697150857134E-022
  -3.8199999999999998E-002    -4.8023238802395625E-021
  -3.8150000000000003E-002    -1.3750207659776404E-020
  -3.8100000000000002E-002    -2.5134376533217919E-020
  -3.8050000000000000E-002    -3.5518979639017733E-020
  -3.7999999999999999E-002    -3.8889812450448332E-020
  -3.7949999999999998E-002    -2.7543585007021206E-020
  -3.7900000000000003E-002     5.5111605051495554E-021
  -3.7850000000000002E-002     6.2803283823263167E-020
  -3.7800000000000000E-002     1.3825346656264628E-019
  -3.7749999999999999E-002     2.1435954492803661E-019
  -3.7699999999999997E-002     2.6276142842287547E-019
  -3.7650000000000003E-002     2.4970140635024065E-019
  -3.7600000000000001E-002     1.4635271670705822E-019
  -3.7550000000000000E-002    -5.8252665887681391E-020
  -3.7499999999999999E-002    -3.4607910217036022E-019
  -3.7449999999999997E-002    -6.6597459947838702E-019
  -3.7400000000000003E-002    -9.4052577405248308E-019
  -3.7350000000000001E-002    -1.0841573169750436E-018
  -3.7300000000000000E-002    -1.0277539360726179E-018
  -3.7249999999999998E-002    -7.4082755979656392E-019
  -3.7200000000000004E-002    -2.4121229725929453E-019
  -3.7150000000000002E-002     4.1390368118436630E-019
  -3.7100000000000001E-002     1.1534324128029601E-018
  -3.7050000000000000E-002     1.9221639485509319E-018
  -3.6999999999999998E-002     2.6959662057128508E-018
  -3.6950000000000004E-002     3.4650361477898475E-018
  -3.6900000000000002E-002     4.1801582033134485E-018
  -3.6850000000000001E-002     4.6778834184719880E-018
  -3.6799999999999999E-002     4.6225379830114057E-018
  -3.6749999999999998E-002     3.5148483962768190E-018
  -3.6700000000000003E-002     8.0821523045539400E-019
  -3.6650000000000002E-002    -3.8603032403417076E-018
  -3.6600000000000001E-002    -1.0370494791588209E-017
  -3.6549999999999999E-002    -1.7852568045522969E-017
  -3.6499999999999998E-002    -2.4588184314886777E-017
  -3.6450000000000003E-002    -2.8200134993896369E-017
  -3.6400000000000002E-002    -2.6181426019564901E-017
  -3.6350000000000000E-002    -1.6696485947114825E-017
  -3.6299999999999999E-002     5.4481819305395812E-019
  -3.6249999999999998E-002     2.3636018627404029E-017
  -3.6200000000000003E-002     4.8351810191288890E-017
  -3.6150000000000002E-002     6.8756019987854977E-017
  -3.6100000000000000E-002     7.8530877484905066E-017
  -3.6049999999999999E-002     7.2757757790868985E-017
  -3.6000000000000004E-002     4.9657452134358427E-017
  -3.5950000000000003E-002     1.1708303028607811E-017
  -3.5900000000000001E-002    -3.4333638824390871E-017
  -3.5850000000000000E-002    -7.8690754957246663E-017
  -3.5799999999999998E-002    -1.1086541520097169E-016
  -3.5750000000000004E-002    -1.2237480496316207E-016
  -3.5700000000000003E-002    -1.0910518506116161E-016
  -3.5650000000000001E-002    -7.2550071373395413E-017
  -3.5600000000000000E-002    -1.9554539340667455E-017
  -3.5549999999999998E-002     3.9295389552840368E-017
  -3.5500000000000004E-002     9.2027579926955504E-017
  -3.5450000000000002E-002     1.2755611322518455E-016
  -3.5400000000000001E-002     1.3720490732536991E-016
  -3.5349999999999999E-002     1.1531098930432214E-016
  -3.5299999999999998E-002     5.9347086985733515E-017
  -3.5250000000000004E-002    -2.9588522538599382E-017
  -3.5200000000000002E-002    -1.4515431525754594E-016
  -3.5150000000000001E-002    -2.7294783956377927E-016
  -3.5099999999999999E-002    -3.8752998827101688E-016
  -3.5049999999999998E-002    -4.5141097854409231E-016
  -3.5000000000000003E-002    -4.1855863271948486E-016
  -3.4950000000000002E-002    -2.4428594552379453E-016
  -3.4900000000000000E-002     9.8620910106440062E-017
  -3.4849999999999999E-002     6.0057123720537602E-016
  -3.4799999999999998E-002     1.1985654197415235E-015
  -3.4750000000000003E-002     1.7699104215292880E-015
  -3.4700000000000002E-002     2.1431816425324320E-015
  -3.4650000000000000E-002     2.1298264948815975E-015
  -3.4599999999999999E-002     1.5738139788687832E-015
  -3.4549999999999997E-002     4.0970485295941114E-016
  -3.4500000000000003E-002    -1.2863794621674603E-015
  -3.4450000000000001E-002    -3.2708594340118639E-015
  -3.4400000000000000E-002    -5.1471431995300334E-015
  -3.4349999999999999E-002    -6.4274800289246517E-015
  -3.4299999999999997E-002    -6.6369255931800833E-015
  -3.4250000000000003E-002    -5.4405257301809103E-015
  -3.4200000000000001E-002    -2.7639044707344088E-015
  -3.4150000000000000E-002     1.1271110692755244E-015
  -3.4099999999999998E-002     5.6178168553011074E-015
  -3.4049999999999997E-002     9.8233935194747297E-015
  -3.4000000000000002E-002     1.2751227709241281E-014
  -3.3950000000000001E-002     1.3520248631235681E-014
  -3.3900000000000000E-002     1.1591565846391853E-014
  -3.3849999999999998E-002     6.9546311373838002E-015
  -3.3799999999999997E-002     2.1593009494164276E-016
  -3.3750000000000002E-002    -7.4461300146637853E-015
  -3.3700000000000001E-002    -1.4468615227617103E-014
  -3.3649999999999999E-002    -1.9208792196267764E-014
  -3.3599999999999998E-002    -2.0309821509466234E-014
  -3.3550000000000003E-002    -1.7049733908146606E-014
  -3.3500000000000002E-002    -9.5906739102315719E-015
  -3.3450000000000001E-002     9.4078828193137956E-016
  -3.3399999999999999E-002     1.2580204085266785E-014
  -3.3349999999999998E-002     2.2853473952521716E-014
  -3.3300000000000003E-002     2.9255784423857989E-014
  -3.3250000000000002E-002     2.9791999862283571E-014
  -3.3200000000000000E-002     2.3467908888675114E-014
  -3.3149999999999999E-002     1.0622996988392147E-014
  -3.3099999999999997E-002    -6.9793445016280325E-015
  -3.3050000000000003E-002    -2.6343812881468133E-014
  -3.3000000000000002E-002    -4.3701952556542436E-014
  -3.2950000000000000E-002    -5.5168037173400828E-014
  -3.2899999999999999E-002    -5.7480300413183060E-014
  -3.2850000000000004E-002    -4.8694111882195384E-014
  -3.2800000000000003E-002    -2.8696704557774264E-014
  -3.2750000000000001E-002     5.6052575727460512E-016
  -3.2700000000000000E-002     3.5171955614894538E-014
  -3.2649999999999998E-002     6.9735729351397882E-014
  -3.2600000000000004E-002     9.8110950103059582E-014
  -3.2550000000000003E-002     1.1437742711287757E-013
  -3.2500000000000001E-002     1.1386550279267779E-013
  -3.2450000000000000E-002     9.4103597265513996E-014
  -3.2399999999999998E-002     5.5527812011106436E-014
  -3.2350000000000004E-002     1.8135726747741794E-015
  -3.2300000000000002E-002    -6.0275770839748329E-014
  -3.2250000000000001E-002    -1.2157359453079530E-013
  -3.2199999999999999E-002    -1.7170443735245752E-013
  -3.2149999999999998E-002    -2.0067738396902301E-013
  -3.2100000000000004E-002    -2.0067810712473017E-013
  -3.2050000000000002E-002    -1.6778079781829384E-013
  -3.2000000000000001E-002    -1.0325697040504825E-013
  -3.1949999999999999E-002    -1.4163376185801644E-014
  -3.1899999999999998E-002     8.7038285001868780E-014
  -3.1850000000000003E-002     1.8394001244212061E-013
  -3.1800000000000002E-002     2.5864325923077589E-013
  -3.1750000000000000E-002     2.9491334499084394E-013
  -3.1699999999999999E-002     2.8153384302076124E-013
  -3.1649999999999998E-002     2.1522470983601118E-013
  -3.1600000000000003E-002     1.0245917913947778E-013
  -3.1550000000000002E-002    -4.0377846216611937E-014
  -3.1500000000000000E-002    -1.8880024802228427E-013
  -3.1449999999999999E-002    -3.1394970359604666E-013
  -3.1399999999999997E-002    -3.8777996364613514E-013
  -3.1350000000000003E-002    -3.8884758104098515E-013
  -3.1300000000000001E-002    -3.0759427355386660E-013
  -3.1250000000000000E-002    -1.4994119038220678E-013
  -3.1199999999999999E-002     6.1804292341855318E-014
  -3.1150000000000001E-002     2.9129921017391564E-013
  -3.1100000000000003E-002     4.9372485323821875E-013
  -3.1050000000000001E-002     6.2381256485918243E-013
  -3.1000000000000000E-002     6.4496587377262388E-013
  -3.0949999999999998E-002     5.3770220592949395E-013
  -3.0900000000000000E-002     3.0557367947879213E-013
  -3.0850000000000002E-002    -2.2941806010701994E-014
  -3.0800000000000001E-002    -3.9738602780931323E-013
  -3.0750000000000000E-002    -7.5295980251082954E-013
  -3.0699999999999998E-002    -1.0217060226282751E-012
  -3.0650000000000000E-002    -1.1452413191004485E-012
  -3.0600000000000002E-002    -1.0865693850114925E-012
  -3.0550000000000001E-002    -8.3853415116754275E-013
  -3.0499999999999999E-002    -4.2703345106335251E-013
  -3.0449999999999998E-002     9.1894979280356716E-014
  -3.0400000000000000E-002     6.4077181494393535E-013
  -3.0350000000000002E-002     1.1336227523529677E-012
  -3.0300000000000001E-002     1.4907380345659102E-012
  -3.0249999999999999E-002     1.6524205652427191E-012
  -3.0200000000000001E-002     1.5891106680980400E-012
  -3.0150000000000000E-002     1.3060379629955854E-012
  -3.0100000000000002E-002     8.4169281593643000E-013
  -3.0050000000000000E-002     2.6066471255476004E-013
  -2.9999999999999999E-002    -3.5752152174329657E-013
  -2.9950000000000001E-002    -9.3128007194824869E-013
  -2.9899999999999999E-002    -1.3891289269389363E-012
  -2.9850000000000002E-002    -1.6791350729617155E-012
  -2.9800000000000000E-002    -1.7744328744646831E-012
  -2.9749999999999999E-002    -1.6745380217695422E-012
  -2.9700000000000001E-002    -1.4030270997302905E-012
  -2.9650000000000003E-002    -1.0026537282270902E-012
  -2.9600000000000001E-002    -5.2907046531832971E-013
  -2.9550000000000000E-002    -4.4060364497364231E-014
  -2.9499999999999998E-002     3.9127982893700674E-013
  -2.9450000000000000E-002     7.2337098118688622E-013
  -2.9400000000000003E-002     9.1309911204183414E-013
  -2.9350000000000001E-002     9.4273487901667914E-013
  -2.9300000000000000E-002     8.2207648210944293E-013
  -2.9249999999999998E-002     5.9236055374762459E-013
  -2.9200000000000000E-002     3.2594690457234753E-013
  -2.9150000000000002E-002     1.1983094706388773E-013
  -2.9100000000000001E-002     8.1829374134953971E-014
  -2.9049999999999999E-002     3.0987147957346486E-013
  -2.8999999999999998E-002     8.6692148322310925E-013
  -2.8950000000000000E-002     1.7561288276982884E-012
  -2.8900000000000002E-002     2.9022067725974097E-012
  -2.8850000000000001E-002     4.1451772769375724E-012
  -2.8799999999999999E-002     5.2511248757477950E-012
  -2.8749999999999998E-002     5.9415530189043631E-012
  -2.8700000000000000E-002     5.9388092137893078E-012
  -2.8650000000000002E-002     5.0207858757851169E-012
  -2.8600000000000000E-002     3.0747663569714836E-012
  -2.8549999999999999E-002     1.3888655342849971E-013
  -2.8500000000000001E-002    -3.5791430098599850E-012
  -2.8450000000000000E-002    -7.7126538202653487E-012
  -2.8400000000000002E-002    -1.1776862793243739E-011
  -2.8350000000000000E-002    -1.5234383325776340E-011
  -2.8299999999999999E-002    -1.7574160420188194E-011
  -2.8250000000000001E-002    -1.8389130295110347E-011
  -2.8200000000000003E-002    -1.7437585365053508E-011
  -2.8150000000000001E-002    -1.4676419981427168E-011
  -2.8100000000000000E-002    -1.0260395410603329E-011
  -2.8049999999999999E-002    -4.5090678433552120E-012
  -2.8000000000000001E-002     2.1497540386726005E-012
  -2.7950000000000003E-002     9.2459380520791893E-012
  -2.7900000000000001E-002     1.6326418247073385E-011
  -2.7850000000000000E-002     2.2994054001301902E-011
  -2.7799999999999998E-002     2.8917326227514292E-011
  -2.7750000000000000E-002     3.3809689224724996E-011
  -2.7700000000000002E-002     3.7385168574908635E-011
  -2.7650000000000001E-002     3.9302679284122360E-011
  -2.7600000000000000E-002     3.9114680559069748E-011
  -2.7549999999999998E-002     3.6234603642823007E-011
  -2.7500000000000000E-002     2.9933250368098315E-011
  -2.7450000000000002E-002     1.9367252160363512E-011
  -2.7400000000000001E-002     3.6355438643525767E-012
  -2.7349999999999999E-002    -1.8146598009446413E-011
  -2.7299999999999998E-002    -4.6769574139891606E-011
  -2.7250000000000000E-002    -8.2860856012741724E-011
  -2.7200000000000002E-002    -1.2683597052055643E-010
  -2.7150000000000001E-002    -1.7887333871998568E-010
  -2.7099999999999999E-002    -2.3891149237359397E-010
  -2.7049999999999998E-002    -3.0666249440473426E-010
  -2.7000000000000000E-002    -3.8163306944880683E-010
  -2.6950000000000002E-002    -4.6314725113188515E-010
  -2.6900000000000000E-002    -5.5036560192669791E-010
  -2.6849999999999999E-002    -6.4230393994298794E-010
  -2.6800000000000001E-002    -7.3785580187639106E-010
  -2.6749999999999999E-002    -8.3582753472214991E-010
  -2.6700000000000002E-002    -9.3499136032311800E-010
  -2.6650000000000000E-002    -1.0341586498116124E-009
  -2.6599999999999999E-002    -1.1322679418103857E-009
  -2.6550000000000001E-002    -1.2284767563434222E-009
  -2.6500000000000003E-002    -1.3222391033280438E-009
  -2.6450000000000001E-002    -1.4133516823640013E-009
  -2.6400000000000000E-002    -1.5019555800260411E-009
  -2.6349999999999998E-002    -1.5884871526234204E-009
  -2.6300000000000000E-002    -1.6735841379747361E-009
  -2.6250000000000002E-002    -1.7579648374914669E-009
  -2.6200000000000001E-002    -1.8423023994305723E-009
  -2.6150000000000000E-002    -1.9271240917328984E-009
  -2.6099999999999998E-002    -2.0127565449842941E-009
  -2.6050000000000000E-002    -2.0993295531193753E-009
  -2.6000000000000002E-002    -2.1868368173830418E-009
  -2.5950000000000001E-002    -2.2752368444995971E-009
  -2.5899999999999999E-002    -2.3645683429672746E-009
  -2.5849999999999998E-002    -2.4550476159745796E-009
  -2.5800000000000000E-002    -2.5471183945194082E-009
  -2.5750000000000002E-002    -2.6414389125472136E-009
  -2.5700000000000001E-002    -2.7388034078731919E-009
  -2.5649999999999999E-002    -2.8400122167705458E-009
  -2.5599999999999998E-002    -2.9457200363059535E-009
  -2.5550000000000000E-002    -3.0562982206946247E-009
  -2.5500000000000002E-002    -3.1717422040451456E-009
  -2.5450000000000000E-002    -3.2916510998397555E-009
  -2.5399999999999999E-002    -3.4152867227109980E-009
  -2.5349999999999998E-002    -3.5416996990932824E-009
  -2.5300000000000000E-002    -3.6699044273240686E-009
  -2.5250000000000002E-002    -3.7990595697703609E-009
  -2.5200000000000000E-002    -3.9286261024543837E-009
  -2.5149999999999999E-002    -4.0584673879924402E-009
  -2.5100000000000001E-002    -4.1888784033147506E-009
  -2.5049999999999999E-002    -4.3205393063007884E-009
  -2.5000000000000001E-002    -4.4544056420186095E-009
  -2.4950000000000000E-002    -4.5915634915642505E-009
  -2.4899999999999999E-002    -4.7330764878232161E-009
  -2.4850000000000001E-002    -4.8798500771140977E-009
  -2.4800000000000003E-002    -5.0325392020217484E-009
  -2.4750000000000001E-002    -5.1915052373787423E-009
  -2.4700000000000000E-002    -5.3568251952719416E-009
  -2.4649999999999998E-002    -5.5283415585262176E-009
  -2.4600000000000000E-002    -5.7057392849283254E-009
  -2.4550000000000002E-002    -5.8886282258374641E-009
  -2.4500000000000001E-002    -6.0766183507295257E-009
  -2.4450000000000000E-002    -6.2693781954402723E-009
  -2.4399999999999998E-002    -6.4666684535785805E-009
  -2.4350000000000000E-002    -6.6683533700736649E-009
  -2.4299999999999999E-002    -6.8743978678403877E-009
  -2.4250000000000001E-002    -7.0848587562387425E-009
  -2.4199999999999999E-002    -7.2998765724390662E-009
  -2.4150000000000001E-002    -7.5196700821611416E-009
  -2.4100000000000000E-002    -7.7445396261247126E-009
  -2.4049999999999998E-002    -7.9748704828736162E-009
  -2.4000000000000000E-002    -8.2111263866953694E-009
  -2.3949999999999999E-002    -8.4538295390277058E-009
  -2.3900000000000001E-002    -8.7035255095858279E-009
  -2.3850000000000000E-002    -8.9607324522393052E-009
  -2.3800000000000002E-002    -9.2258783142874427E-009
  -2.3750000000000000E-002    -9.4992544911586151E-009
  -2.3699999999999999E-002    -9.7809872774262652E-009
  -2.3650000000000001E-002    -1.0071050305344734E-008
  -2.3599999999999999E-002    -1.0369313882626147E-008
  -2.3550000000000001E-002    -1.0675634550736665E-008
  -2.3500000000000000E-002    -1.0989955029042619E-008
  -2.3449999999999999E-002    -1.1312397010663403E-008
  -2.3400000000000001E-002    -1.1643314666698622E-008
  -2.3349999999999999E-002    -1.1983288923225488E-008
  -2.3300000000000001E-002    -1.2333064604113787E-008
  -2.3250000000000000E-002    -1.2693418747008865E-008
  -2.3199999999999998E-002    -1.3065016788409191E-008
  -2.3150000000000000E-002    -1.3448275250225041E-008
  -2.3099999999999999E-002    -1.3843276163488915E-008
  -2.3050000000000001E-002    -1.4249755981534821E-008
  -2.3000000000000000E-002    -1.4667197378741069E-008
  -2.2950000000000002E-002    -1.5094979423261034E-008
  -2.2900000000000000E-002    -1.5532576166676875E-008
  -2.2849999999999999E-002    -1.5979743169210576E-008
  -2.2800000000000001E-002    -1.6436662034001373E-008
  -2.2749999999999999E-002    -1.6903985260673042E-008
  -2.2700000000000001E-002    -1.7382786617082179E-008
  -2.2650000000000000E-002    -1.7874435235134826E-008
  -2.2599999999999999E-002    -1.8380410003208344E-008
  -2.2550000000000001E-002    -1.8902102029931655E-008
  -2.2499999999999999E-002    -1.9440667557607531E-008
  -2.2450000000000001E-002    -1.9996918243215926E-008
  -2.2400000000000000E-002    -2.0571307848522873E-008
  -2.2349999999999998E-002    -2.1163959563170316E-008
  -2.2300000000000000E-002    -2.1774742766188826E-008
  -2.2249999999999999E-002    -2.2403349561589158E-008
  -2.2200000000000001E-002    -2.3049371634092655E-008
  -2.2150000000000000E-002    -2.3712346662670593E-008
  -2.2100000000000002E-002    -2.4391797330686734E-008
  -2.2050000000000000E-002    -2.5087264127223630E-008
  -2.1999999999999999E-002    -2.5798355197774657E-008
  -2.1950000000000001E-002    -2.6524829025446348E-008
  -2.1899999999999999E-002    -2.7266673458698576E-008
  -2.1850000000000001E-002    -2.8024190814211361E-008
  -2.1800000000000000E-002    -2.8798049950297232E-008
  -2.1749999999999999E-002    -2.9589262100154696E-008
  -2.1700000000000001E-002    -3.0399098299361300E-008
  -2.1649999999999999E-002    -3.1228956343924077E-008
  -2.1600000000000001E-002    -3.2080171995035284E-008
  -2.1550000000000000E-002    -3.2953865954786515E-008
  -2.1499999999999998E-002    -3.3850861495984670E-008
  -2.1450000000000000E-002    -3.4771674284070443E-008
  -2.1399999999999999E-002    -3.5716624024103567E-008
  -2.1350000000000001E-002    -3.6686030166503614E-008
  -2.1299999999999999E-002    -3.7680419854163961E-008
  -2.1250000000000002E-002    -3.8700695892664692E-008
  -2.1200000000000000E-002    -3.9748227993252535E-008
  -2.1149999999999999E-002    -4.0824806242791361E-008
  -2.1100000000000001E-002    -4.1932459758150953E-008
  -2.1049999999999999E-002    -4.3073203668512389E-008
  -2.1000000000000001E-002    -4.4248766742399298E-008
  -2.0950000000000000E-002    -4.5460339696636315E-008
  -2.0899999999999998E-002    -4.6708495537547933E-008
  -2.0850000000000000E-002    -4.7993190309037641E-008
  -2.0799999999999999E-002    -4.9313954891207786E-008
  -2.0750000000000001E-002    -5.0670123128300517E-008
  -2.0700000000000000E-002    -5.2061130314336733E-008
  -2.0649999999999998E-002    -5.3486722795564292E-008
  -2.0600000000000000E-002    -5.4947084490885169E-008
  -2.0549999999999999E-002    -5.6442820158292015E-008
  -2.0500000000000001E-002    -5.7974844242096156E-008
  -2.0449999999999999E-002    -5.9544169978211217E-008
  -2.0400000000000001E-002    -6.1151755074743089E-008
  -2.0350000000000000E-002    -6.2798325200878752E-008
  -2.0299999999999999E-002    -6.4484374006925755E-008
  -2.0250000000000001E-002    -6.6210199010695501E-008
  -2.0199999999999999E-002    -6.7976062129176984E-008
  -2.0150000000000001E-002    -6.9782359267573037E-008
  -2.0100000000000000E-002    -7.1629704627600061E-008
  -2.0049999999999998E-002    -7.3519005167366381E-008
  -2.0000000000000000E-002    -7.5451384309721272E-008
  -1.9949999999999999E-002    -7.7428049368212014E-008
  -1.9900000000000001E-002    -7.9450055325702089E-008
  -1.9850000000000000E-002    -8.1518134324492034E-008
  -1.9799999999999998E-002    -8.3632637503250278E-008
  -1.9750000000000000E-002    -8.5793523022594654E-008
  -1.9699999999999999E-002    -8.8000531150408078E-008
  -1.9650000000000001E-002    -9.0253507500736888E-008
  -1.9599999999999999E-002    -9.2552709894033216E-008
  -1.9550000000000001E-002    -9.4899111823096895E-008
  -1.9500000000000000E-002    -9.7294597245945485E-008
  -1.9449999999999999E-002    -9.9741952189391967E-008
  -1.9400000000000001E-002    -1.0224470706139424E-007
  -1.9349999999999999E-002    -1.0480680382022652E-007
  -1.9300000000000001E-002    -1.0743219993550267E-007
  -1.9250000000000000E-002    -1.1012451405622181E-007
  -1.9199999999999998E-002    -1.1288677090270629E-007
  -1.9150000000000000E-002    -1.1572138773541469E-007
  -1.9099999999999999E-002    -1.1863025458718581E-007
  -1.9050000000000001E-002    -1.2161511585815101E-007
  -1.9000000000000000E-002    -1.2467790123570702E-007
  -1.8949999999999998E-002    -1.2782109371607904E-007
  -1.8900000000000000E-002    -1.3104784341598218E-007
  -1.8849999999999999E-002    -1.3436194772202906E-007
  -1.8800000000000001E-002    -1.3776757440608081E-007
  -1.8749999999999999E-002    -1.4126876400848331E-007
  -1.8700000000000001E-002    -1.4486896601001570E-007
  -1.8650000000000000E-002    -1.4857057985563483E-007
  -1.8599999999999998E-002    -1.5237472965576241E-007
  -1.8550000000000001E-002    -1.5628126699247725E-007
  -1.8499999999999999E-002    -1.6028904614565959E-007
  -1.8450000000000001E-002    -1.6439638275423823E-007
  -1.8400000000000000E-002    -1.6860157874146349E-007
  -1.8349999999999998E-002    -1.7290337341163729E-007
  -1.8300000000000000E-002    -1.7730116499792400E-007
  -1.8249999999999999E-002    -1.8179497487108803E-007
  -1.8200000000000001E-002    -1.8638529613133960E-007
  -1.8149999999999999E-002    -1.9107267902251769E-007
  -1.8100000000000002E-002    -1.9585733370990871E-007
  -1.8050000000000000E-002    -2.0073889827410728E-007
  -1.7999999999999999E-002    -2.0571633075581030E-007
  -1.7950000000000001E-002    -2.1078810371919058E-007
  -1.7899999999999999E-002    -2.1595243827802647E-007
  -1.7850000000000001E-002    -2.2120779322248410E-007
  -1.7800000000000000E-002    -2.2655303927428228E-007
  -1.7749999999999998E-002    -2.3198775601323522E-007
  -1.7700000000000000E-002    -2.3751203582814897E-007
  -1.7649999999999999E-002    -2.4312641396005789E-007
  -1.7600000000000001E-002    -2.4883136481606300E-007
  -1.7550000000000000E-002    -2.5462726258462666E-007
  -1.7499999999999998E-002    -2.6051406320914150E-007
  -1.7450000000000000E-002    -2.6649151626489520E-007
  -1.7399999999999999E-002    -2.7255942351157447E-007
  -1.7350000000000001E-002    -2.7871812605044894E-007
  -1.7299999999999999E-002    -2.8496894795044194E-007
  -1.7250000000000001E-002    -2.9131456903947013E-007
  -1.7200000000000000E-002    -2.9775899699321934E-007
  -1.7149999999999999E-002    -3.0430755700204165E-007
  -1.7100000000000001E-002    -3.1096647911324399E-007
  -1.7049999999999999E-002    -3.1774235426674439E-007
  -1.7000000000000001E-002    -3.2464172155848765E-007
  -1.6950000000000000E-002    -3.3167076996933285E-007
  -1.6899999999999998E-002    -3.3883517071012779E-007
  -1.6850000000000000E-002    -3.4614029247697315E-007
  -1.6799999999999999E-002    -3.5359143764216093E-007
  -1.6750000000000001E-002    -3.6119403137493583E-007
  -1.6700000000000000E-002    -3.6895385920141279E-007
  -1.6649999999999998E-002    -3.7687711394622986E-007
  -1.6600000000000000E-002    -3.8497020689482132E-007
  -1.6549999999999999E-002    -3.9323948922828014E-007
  -1.6500000000000001E-002    -4.0169091672028567E-007
  -1.6449999999999999E-002    -4.1032990389556207E-007
  -1.6400000000000001E-002    -4.1916111694958781E-007
  -1.6350000000000000E-002    -4.2818867873576373E-007
  -1.6299999999999999E-002    -4.3741627537213704E-007
  -1.6250000000000001E-002    -4.4684758216579751E-007
  -1.6199999999999999E-002    -4.5648623307285831E-007
  -1.6150000000000001E-002    -4.6633610156597479E-007
  -1.6100000000000000E-002    -4.7640107533075598E-007
  -1.6049999999999998E-002    -4.8668461733824750E-007
  -1.6000000000000000E-002    -4.9718963916909899E-007
  -1.5949999999999999E-002    -5.0791840973063623E-007
  -1.5900000000000001E-002    -5.1887235514127706E-007
  -1.5850000000000000E-002    -5.3005232011414982E-007
  -1.5799999999999998E-002    -5.4145898775468011E-007
  -1.5750000000000000E-002    -5.5309330825627185E-007
  -1.5699999999999999E-002    -5.6495698707249991E-007
  -1.5650000000000001E-002    -5.7705259543805880E-007
  -1.5599999999999999E-002    -5.8938352064328146E-007
  -1.5550000000000001E-002    -6.0195348018057910E-007
  -1.5500000000000000E-002    -6.1476623803960827E-007
  -1.5449999999999998E-002    -6.2782461895840432E-007
  -1.5400000000000000E-002    -6.4113065035862560E-007
  -1.5349999999999999E-002    -6.5468506662380810E-007
  -1.5300000000000001E-002    -6.6848784875328313E-007
  -1.5250000000000000E-002    -6.8253885348760134E-007
  -1.5199999999999998E-002    -6.9683839419468606E-007
  -1.5150000000000000E-002    -7.1138829008621542E-007
  -1.5099999999999999E-002    -7.2619183343119213E-007
  -1.5050000000000001E-002    -7.4125415431149502E-007
  -1.4999999999999999E-002    -7.5658159609703338E-007
  -1.4949999999999998E-002    -7.7218097996239346E-007
  -1.4900000000000000E-002    -7.8805878545516249E-007
  -1.4849999999999999E-002    -8.0422042631748790E-007
  -1.4800000000000001E-002    -8.2066986026071798E-007
  -1.4749999999999999E-002    -8.3740990001537549E-007
  -1.4700000000000001E-002    -8.5444225940482956E-007
  -1.4650000000000000E-002    -8.7176904552004573E-007
  -1.4599999999999998E-002    -8.8939320517736884E-007
  -1.4550000000000000E-002    -9.0731917612602906E-007
  -1.4499999999999999E-002    -9.2555302641939327E-007
  -1.4450000000000001E-002    -9.4410202080052418E-007
  -1.4400000000000000E-002    -9.6297385039771600E-007
  -1.4349999999999998E-002    -9.8217536260553695E-007
  -1.4300000000000000E-002    -1.0017115871571423E-006
  -1.4249999999999999E-002    -1.0215853417091794E-006
  -1.4200000000000001E-002    -1.0417970089308347E-006
  -1.4149999999999999E-002    -1.0623454310053068E-006
  -1.4099999999999998E-002    -1.0832288363380704E-006
  -1.4050000000000000E-002    -1.1044463343172330E-006
  -1.3999999999999999E-002    -1.1259985173233509E-006
  -1.3950000000000001E-002    -1.1478884777492490E-006
  -1.3899999999999999E-002    -1.1701215187501078E-006
  -1.3850000000000001E-002    -1.1927035708631292E-006
  -1.3800000000000000E-002    -1.2156408303557898E-006
  -1.3749999999999998E-002    -1.2389380981718389E-006
  -1.3700000000000000E-002    -1.2625978777020148E-006
  -1.3649999999999999E-002    -1.2866202501246613E-006
  -1.3600000000000001E-002    -1.3110033859827023E-006
  -1.3550000000000000E-002    -1.3357454231630872E-006
  -1.3499999999999998E-002    -1.3608453383848199E-006
  -1.3450000000000000E-002    -1.3863045219314279E-006
  -1.3399999999999999E-002    -1.4121280045462570E-006
  -1.3350000000000001E-002    -1.4383239954678652E-006
  -1.3299999999999999E-002    -1.4649027500764462E-006
  -1.3249999999999998E-002    -1.4918754734488147E-006
  -1.3200000000000000E-002    -1.5192520980372784E-006
  -1.3149999999999998E-002    -1.5470397700918224E-006
  -1.3100000000000001E-002    -1.5752422299962941E-006
  -1.3049999999999999E-002    -1.6038598962966854E-006
  -1.3000000000000001E-002    -1.6328912532617192E-006
  -1.2950000000000000E-002    -1.6623345006186326E-006
  -1.2899999999999998E-002    -1.6921896153495500E-006
  -1.2850000000000000E-002    -1.7224595711598029E-006
  -1.2799999999999999E-002    -1.7531509113641114E-006