  -4.0000000000000001E-002     0.0000000000000000     
  -3.9949999999999999E-002     0.0000000000000000     
  -3.9899999999999998E-002     0.0000000000000000     
  -3.9850000000000003E-002     0.0000000000000000     
  -3.9800000000000002E-002     0.0000000000000000     
  -3.9750000000000001E-002     0.0000000000000000     
  -3.9699999999999999E-002     0.0000000000000000     
  -3.9649999999999998E-002     0.0000000000000000     
  -3.9600000000000003E-002     0.0000000000000000     
  -3.9550000000000002E-002     0.0000000000000000     
  -3.9500000000000000E-002     0.0000000000000000     
  -3.9449999999999999E-002     0.0000000000000000     
  -3.9399999999999998E-002     0.0000000000000000     
  -3.9350000000000003E-002     0.0000000000000000     
  -3.9300000000000002E-002     0.0000000000000000     
  -3.9250000000000000E-002     0.0000000000000000     
  -3.9199999999999999E-002     0.0000000000000000     
  -3.9150000000000004E-002     0.0000000000000000     
  -3.9100000000000003E-002     0.0000000000000000     
  -3.9050000000000001E-002     0.0000000000000000     
  -3.9000000000000000E-002     0.0000000000000000     
  -3.8949999999999999E-002     0.0000000000000000     
  -3.8900000000000004E-002     0.0000000000000000     
  -3.8850000000000003E-002     0.0000000000000000     
  -3.8800000000000001E-002     0.0000000000000000     
  -3.8750000000000000E-002     1.2085373860897982E-038
  -3.8699999999999998E-002     3.1465747780341651E-038
  -3.8650000000000004E-002     0.0000000000000000     
  -3.8600000000000002E-002    -3.0195571284236148E-037
  -3.8550000000000001E-002    -1.5149676022553167E-036
  -3.8500000000000000E-002    -5.1719203159866149E-036
  -3.8449999999999998E-002    -1.4123976811148981E-035
  -3.8400000000000004E-002    -3.2002436411793371E-035
  -3.8350000000000002E-002    -5.9169589949422535E-035
  -3.8300000000000001E-002    -8.0425505167489794E-035
  -3.8249999999999999E-002    -3.7681836694383711E-035
  -3.8199999999999998E-002     2.1692645697197030E-034
  -3.8150000000000003E-002     9.7764521840939604E-034
  -3.8100000000000002E-002     2.7022202241799931E-033
  -3.8050000000000000E-002     5.8634072002898499E-033
  -3.7999999999999999E-002     1.0398331966391526E-032
  -3.7949999999999998E-002     1.4430676698599069E-032
  -3.7900000000000003E-002     1.2030501978042203E-032
  -3.7850000000000002E-002    -9.6633968986735085E-033
  -3.7800000000000000E-002    -7.2232208941009354E-032
  -3.7749999999999999E-002    -2.0251970382781767E-031
  -3.7699999999999997E-002    -4.1687288016300369E-031
  -3.7650000000000003E-002    -6.8475694687833734E-031
  -3.7600000000000001E-002    -8.6797225146832444E-031
  -3.7550000000000000E-002    -6.4769235240347725E-031
  -3.7499999999999999E-002     5.1709896239171629E-031
  -3.7449999999999997E-002     3.3134694918788662E-030
  -3.7400000000000003E-002     8.2603223641624104E-030
  -3.7350000000000001E-002     1.5051198402310988E-029
  -3.7300000000000000E-002     2.1569466039134941E-029
  -3.7249999999999998E-002     2.2859046513037272E-029
  -3.7200000000000004E-002     1.0730035070211332E-029
  -3.7150000000000002E-002    -2.4934990393881710E-029
  -3.7100000000000001E-002    -9.2018445668860643E-029
  -3.7050000000000000E-002    -1.8858670115144138E-028
  -3.6999999999999998E-002    -2.9291869986020306E-028
  -3.6950000000000004E-002    -3.5471529518878963E-028
  -3.6900000000000002E-002    -2.9385363330465857E-028
  -3.6850000000000001E-002    -1.4596605744244050E-029
  -3.6799999999999999E-002     5.5853467300599569E-028
  -3.6749999999999998E-002     1.4236623283076499E-027
  -3.6700000000000003E-002     2.4353657411610370E-027
  -3.6650000000000002E-002     3.2556331196455892E-027
  -3.6600000000000001E-002     3.3587717325890691E-027
  -3.6549999999999999E-002     2.1263092170948356E-027
  -3.6499999999999998E-002    -9.5110001778448463E-028
  -3.6450000000000003E-002    -5.9865426937734314E-027
  -3.6400000000000002E-002    -1.2397260378799981E-026
  -3.6350000000000000E-002    -1.8710970209647469E-026
  -3.6299999999999999E-002    -2.2612881847331035E-026
  -3.6249999999999998E-002    -2.1334145599319275E-026
  -3.6200000000000003E-002    -1.2390625341925913E-026
  -3.6150000000000002E-002     5.4530641169654229E-027
  -3.6100000000000000E-002     3.1254846359003034E-026
  -3.6049999999999999E-002     6.1342926816960804E-026
  -3.6000000000000004E-002     8.9453582194244557E-026
  -3.5950000000000003E-002     1.0771031665095224E-025
  -3.5900000000000001E-002     1.0831990940850731E-025
  -3.5850000000000000E-002     8.5544693012322943E-026
  -3.5799999999999998E-002     3.7274655383317518E-026
  -3.5750000000000004E-002    -3.4500693363355036E-026
  -3.5700000000000003E-002    -1.2472396567970634E-025
  -3.5650000000000001E-002    -2.2756655710925251E-025
  -3.5600000000000000E-002    -3.3887674182634258E-025
  -3.5549999999999998E-002    -4.5684472081040788E-025
  -3.5500000000000004E-002    -5.7864000218153287E-025
  -3.5450000000000002E-002    -6.9152616334556748E-025
  -3.5400000000000001E-002    -7.5916996480194276E-025
  -3.5349999999999999E-002    -7.0751144976395976E-025
  -3.5299999999999998E-002    -4.1880610734199795E-025
  -3.5250000000000004E-002     2.5452901047186181E-025
  -3.5200000000000002E-002     1.4453925721856946E-024
  -3.5150000000000001E-002     3.1929590599231377E-024
  -3.5099999999999999E-002     5.3395729588207897E-024
  -3.5049999999999998E-002     7.4335295688902395E-024
  -3.5000000000000003E-002     8.6863237951654827E-024
  -3.4950000000000002E-002     8.0411430102804155E-024
  -3.4900000000000000E-002     4.3969300793165549E-024
  -3.4849999999999999E-002    -3.0072496539404532E-024
  -3.4799999999999998E-002    -1.4106634265295275E-023
  -3.4750000000000003E-002    -2.7555867434282609E-023
  -3.4700000000000002E-002    -4.0491509742552452E-023
  -3.4650000000000000E-002    -4.8704282435451571E-023
  -3.4599999999999999E-002    -4.7346205259600900E-023
  -3.4549999999999997E-002    -3.2156103290607565E-023
  -3.4500000000000003E-002    -9.9938696898755944E-025
  -3.4450000000000001E-002     4.4657781952470693E-023
  -3.4400000000000000E-002     9.8813377674929014E-023
  -3.4349999999999999E-002     1.5096187252927846E-022
  -3.4299999999999997E-002     1.8732542832802588E-022
  -3.4250000000000003E-002     1.9321236478349968E-022
  -3.4200000000000001E-002     1.5612173367251343E-022
  -3.4150000000000000E-002     6.9012297755193134E-023
  -3.4099999999999998E-002    -6.6856944527004506E-023
  -3.4049999999999997E-002    -2.3993965797356894E-022
  -3.4000000000000002E-002    -4.2745870770101191E-022
  -3.3950000000000001E-002    -5.9557872834683446E-022
  -3.3900000000000000E-002    -7.0092590097357960E-022
  -3.3849999999999998E-002    -6.9413233079752358E-022
  -3.3799999999999997E-002    -5.2660215212940481E-022
  -3.3750000000000002E-002    -1.6182462944838653E-022
  -3.3700000000000001E-002     4.0823248427988681E-022
  -3.3649999999999999E-002     1.1432081859065694E-021
  -3.3599999999999998E-002     1.9357103825287796E-021
  -3.3550000000000003E-002     2.6022698185691030E-021
  -3.3500000000000002E-002     2.8943854968002828E-021
  -3.3450000000000001E-002     2.5390957518309280E-021
  -3.3399999999999999E-002     1.3126120186538574E-021
  -3.3349999999999998E-002    -8.6038387640631398E-022
  -3.3300000000000003E-002    -3.8033322193285661E-021
  -3.3250000000000002E-002    -7.0151011968216376E-021
  -3.3200000000000000E-002    -9.6694724403543950E-021
  -3.3149999999999999E-002    -1.0722529402665804E-020
  -3.3099999999999997E-002    -9.1421570166921303E-021
  -3.3050000000000003E-002    -4.2376057673534840E-021
  -3.3000000000000002E-002     3.9767754157096946E-021
  -3.2950000000000000E-002     1.4488362305237225E-020
  -3.2899999999999999E-002     2.5186653330519479E-020
  -3.2850000000000004E-002     3.3064015611856108E-020
  -3.2800000000000003E-002     3.4766306471893654E-020
  -3.2750000000000001E-002     2.7449563720887099E-020
  -3.2700000000000000E-002     9.7888513088504062E-021
  -3.2649999999999998E-002    -1.7111479217133031E-020
  -3.2600000000000004E-002    -4.9205578007564923E-020
  -3.2550000000000003E-002    -7.9663149554531296E-020
  -3.2500000000000001E-002    -9.9849914825550132E-020
  -3.2450000000000000E-002    -1.0109257859308786E-019
  -3.2399999999999998E-002    -7.6959132985943904E-020
  -3.2350000000000004E-002    -2.5576987412180094E-020
  -3.2300000000000002E-002     4.8611585257893768E-020
  -3.2250000000000001E-002     1.3424286814359762E-019
  -3.2199999999999999E-002     2.1398912276957347E-019
  -3.2149999999999998E-002     2.6718678299305299E-019
  -3.2100000000000004E-002     2.7385707654526586E-019
  -3.2050000000000002E-002     2.1946628692481042E-019
  -3.2000000000000001E-002     9.9500216443665459E-020
  -3.1949999999999999E-002    -7.7171091401303411E-020
  -3.1899999999999998E-002    -2.8705662124481475E-019
  -3.1850000000000003E-002    -4.9355877275291704E-019
  -3.1800000000000002E-002    -6.5143285337101968E-019
  -3.1750000000000000E-002    -7.1389808754527784E-019
  -3.1699999999999999E-002    -6.4163078382978486E-019
  -3.1649999999999998E-002    -4.1245727583579269E-019
  -3.1600000000000003E-002    -3.0236202545612660E-020
  -3.1550000000000002E-002     4.6879956987321006E-019
  -3.1500000000000000E-002     1.0140562413879795E-018
  -3.1449999999999999E-002     1.5046319799559048E-018
  -3.1399999999999997E-002     1.8206382643637126E-018
  -3.1350000000000003E-002     1.8421001139103961E-018
  -3.1300000000000001E-002     1.4742983077240407E-018
  -3.1250000000000000E-002     6.7649531545549434E-019
  -3.1199999999999999E-002    -5.1111592157621048E-019
  -3.1150000000000001E-002    -1.9491801641795167E-018
  -3.1100000000000003E-002    -3.3973349641555574E-018
  -3.1050000000000001E-002    -4.5353974256787773E-018
  -3.1000000000000000E-002    -5.0109350717994833E-018
  -3.0949999999999998E-002    -4.5110153656093028E-018
  -3.0900000000000000E-002    -2.8487985927931623E-018
  -3.0850000000000002E-002    -4.8369470162418374E-020
  -3.0800000000000001E-002     3.5941298099572288E-018
  -3.0750000000000000E-002     7.4962467235668859E-018
  -3.0699999999999998E-002     1.0840429370617619E-017
  -3.0650000000000000E-002     1.2698216445773029E-017
  -3.0600000000000002E-002     1.2218403930085080E-017
  -3.0550000000000001E-002     8.8511494566225144E-018
  -3.0499999999999999E-002     2.5627117456302736E-018
  -3.0449999999999998E-002    -6.0146935392973889E-018
  -3.0400000000000000E-002    -1.5552176409162814E-017
  -3.0350000000000002E-002    -2.4151287664456789E-017
  -3.0300000000000001E-002    -2.9638460211844448E-017
  -3.0249999999999999E-002    -2.9997510129628427E-017
  -3.0200000000000001E-002    -2.3870384644279234E-017
  -3.0150000000000000E-002    -1.1023734233459705E-017
  -3.0100000000000002E-002     7.3357150079525027E-018
  -3.0050000000000000E-002     2.8503574627248238E-017
  -2.9999999999999999E-002     4.8546286359592918E-017
  -2.9950000000000001E-002     6.2902203454960506E-017
  -2.9899999999999999E-002     6.7246445130137429E-017
  -2.9850000000000002E-002     5.8477940021051719E-017
  -2.9800000000000000E-002     3.5633587004169798E-017
  -2.9749999999999999E-002     5.1640349348697373E-019
  -2.9700000000000001E-002    -4.2149069681142847E-017
  -2.9650000000000003E-002    -8.5149183466286335E-017
  -2.9600000000000001E-002    -1.1980917952637427E-016
  -2.9550000000000000E-002    -1.3750051132747597E-016
  -2.9499999999999998E-002    -1.3139442475061656E-016
  -2.9450000000000000E-002    -9.8145494992070493E-017
  -2.9400000000000003E-002    -3.9158486390238866E-017
  -2.9350000000000001E-002     3.8872340269341144E-017
  -2.9300000000000000E-002     1.2436270811657415E-016
  -2.9249999999999998E-002     2.0223663488465872E-016
  -2.9200000000000000E-002     2.5620508419186700E-016
  -2.9150000000000002E-002     2.7163036875194752E-016
  -2.9100000000000001E-002     2.3853847135851330E-016
  -2.9049999999999999E-002     1.5425848220357195E-016
  -2.8999999999999998E-002     2.5163115328632272E-017
  -2.8950000000000000E-002    -1.3293495047059617E-016
  -2.8900000000000002E-002    -2.9601359531768774E-016
  -2.8850000000000001E-002    -4.3475111347270456E-016
  -2.8799999999999999E-002    -5.1889550688845504E-016
  -2.8749999999999998E-002    -5.2258956812922105E-016
  -2.8700000000000000E-002    -4.2989536606326123E-016
  -2.8650000000000002E-002    -2.3958320315237486E-016
  -2.8600000000000000E-002     3.1811802327399540E-017
  -2.8549999999999999E-002     3.4956409019323864E-016
  -2.8500000000000001E-002     6.6358437329364301E-016
  -2.8450000000000000E-002     9.1466400040672783E-016
  -2.8400000000000002E-002     1.0437035736334818E-015
  -2.8350000000000000E-002     1.0028274893289409E-015
  -2.8299999999999999E-002     7.6667619831967969E-016
  -2.8250000000000001E-002     3.4173918054874773E-016
  -2.8200000000000003E-002    -2.2850421371959646E-016
  -2.8150000000000001E-002    -8.6453849015771412E-016
  -2.8100000000000000E-002    -1.4589579720741507E-015
  -2.8049999999999999E-002    -1.8916902740941823E-015
  -2.8000000000000001E-002    -2.0507154748312417E-015
  -2.7950000000000003E-002    -1.8552519712658117E-015
  -2.7900000000000001E-002    -1.2772523561562194E-015
  -2.7850000000000000E-002    -3.5657571205866659E-016
  -2.7799999999999998E-002     7.9439818704281012E-016
  -2.7750000000000000E-002     1.9995777275314681E-015
  -2.7700000000000002E-002     3.0420310888937804E-015
  -2.7650000000000001E-002     3.6987992364325511E-015
  -2.7600000000000000E-002     3.7827317570679069E-015
  -2.7549999999999998E-002     3.1841907598965244E-015
  -2.7500000000000000E-002     1.9043414283866270E-015
  -2.7450000000000002E-002     7.2178528557227037E-017
  -2.7400000000000001E-002    -2.0604829203601467E-015
  -2.7349999999999999E-002    -4.1482545284701876E-015
  -2.7299999999999998E-002    -5.8033774449410418E-015
  -2.7250000000000000E-002    -6.6619798978245475E-015
  -2.7200000000000002E-002    -6.4546901563978283E-015
  -2.7150000000000001E-002    -5.0687708838676970E-015
  -2.7099999999999999E-002    -2.5890750983324667E-015
  -2.7049999999999998E-002     6.9225772749950336E-016
  -2.7000000000000000E-002     4.3026490426511493E-015
  -2.6950000000000002E-002     7.6515193209233193E-015
  -2.6900000000000000E-002     1.0120742627716624E-014
  -2.6849999999999999E-002     1.1169817646635378E-014
  -2.6800000000000001E-002     1.0438639853339906E-014
  -2.6749999999999999E-002     7.8298150307388093E-015
  -2.6700000000000002E-002     3.5544862308951660E-015
  -2.6650000000000000E-002    -1.8693653197766982E-015
  -2.6599999999999999E-002    -7.6700805409348271E-015
  -2.6550000000000001E-002    -1.2922777408822537E-014
  -2.6500000000000003E-002    -1.6685012977881010E-014
  -2.6450000000000001E-002    -1.8149126161585689E-014
  -2.6400000000000000E-002    -1.6788738448325398E-014
  -2.6349999999999998E-002    -1.2475979514693130E-014
  -2.6300000000000000E-002    -5.5483985666984730E-015
  -2.6250000000000002E-002     3.1899451495544930E-015
  -2.6200000000000001E-002     1.2540590366387445E-014
  -2.6150000000000000E-002     2.1053439331803292E-014
  -2.6099999999999998E-002     2.7226968797248372E-014
  -2.6050000000000000E-002     2.9742539267207874E-014
  -2.6000000000000002E-002     2.7701151247958788E-014
  -2.5950000000000001E-002     2.0825975061967044E-014
  -2.5899999999999999E-002     9.5936153554972458E-015
  -2.5849999999999998E-002    -4.7377673324388457E-015
  -2.5800000000000000E-002    -2.0224069842140855E-014
  -2.5750000000000002E-002    -3.4458520437476807E-014
  -2.5700000000000001E-002    -4.4905786965651718E-014
  -2.5649999999999999E-002    -4.9308414358649339E-014
  -2.5599999999999998E-002    -4.6107689387590471E-014
  -2.5550000000000000E-002    -3.4808517910929545E-014
  -2.5500000000000002E-002    -1.6215754681429116E-014
  -2.5450000000000000E-002     7.5198507479795749E-015
  -2.5399999999999999E-002     3.3083529642432315E-014
  -2.5349999999999998E-002     5.6408109964014181E-014
  -2.5300000000000000E-002     7.3275543173843631E-014
  -2.5250000000000002E-002     8.0027344617138179E-014
  -2.5200000000000000E-002     7.4271043168910156E-014
  -2.5149999999999999E-002     5.5454631949487752E-014
  -2.5100000000000001E-002     2.5188068866709201E-014
  -2.5049999999999999E-002    -1.2777838106969805E-014
  -2.5000000000000001E-002    -5.2952560201364216E-014
  -2.4950000000000000E-002    -8.8858591654239552E-014
  -2.4899999999999999E-002    -1.1403937811312009E-013
  -2.4850000000000001E-002    -1.2316913500803523E-013
  -2.4800000000000003E-002    -1.1307697664610889E-013
  -2.4750000000000001E-002    -8.3495882684229406E-014
  -2.4700000000000000E-002    -3.7379983144857446E-014
  -2.4649999999999998E-002     1.9301975972265356E-014
  -2.4600000000000000E-002     7.8302812315161749E-014
  -2.4550000000000002E-002     1.3027567506624385E-013
  -2.4500000000000001E-002     1.6622527419469690E-013
  -2.4450000000000000E-002     1.7900458571063548E-013
  -2.4399999999999998E-002     1.6461001767110405E-013
  -2.4350000000000000E-002     1.2305032841455830E-013
  -2.4299999999999999E-002     5.8625515752215809E-014
  -2.4250000000000001E-002    -2.0457689217492083E-014
  -2.4199999999999999E-002    -1.0310377928132558E-013
  -2.4150000000000001E-002    -1.7684940991882918E-013
  -2.4100000000000000E-002    -2.2967635178572825E-013
  -2.4049999999999998E-002    -2.5185708855154682E-013
  -2.4000000000000000E-002    -2.3756319171078605E-013
  -2.3949999999999999E-002    -1.8599420627062853E-013
  -2.3900000000000001E-002    -1.0184570152219525E-013
  -2.3850000000000000E-002     4.9811916564237193E-015
  -2.3800000000000002E-002     1.2042952947206613E-013
  -2.3750000000000000E-002     2.2799919575697915E-013
  -2.3699999999999999E-002     3.1093575018670397E-013
  -2.3650000000000001E-002     3.5463736687892698E-013
  -2.3599999999999999E-002     3.4897217547913101E-013
  -2.3550000000000001E-002     2.9018037855990459E-013
  -2.3500000000000000E-002     1.8205423692740329E-013
  -2.3449999999999999E-002     3.6147339730387994E-014
  -2.3400000000000001E-002    -1.2913450489408419E-013
  -2.3349999999999999E-002    -2.9056921322286982E-013
  -2.3300000000000001E-002    -4.2312419617814953E-013
  -2.3250000000000000E-002    -5.0360236830740379E-013
  -2.3199999999999998E-002    -5.1444582390463799E-013
  -2.3150000000000000E-002    -4.4711420919527634E-013
  -2.3099999999999999E-002    -3.0443387981326105E-013
  -2.3050000000000001E-002    -1.0139513306513675E-013
  -2.3000000000000000E-002     1.3593738164697980E-013
  -2.2950000000000002E-002     3.7345833600148867E-013
  -2.2900000000000000E-002     5.7372504010251032E-013
  -2.2849999999999999E-002     7.0172621869986431E-013
  -2.2800000000000001E-002     7.3084825126130741E-013
  -2.2749999999999999E-002     6.4803202346986548E-013
  -2.2700000000000001E-002     4.5714705365432596E-013
  -2.2650000000000000E-002     1.7982462089836559E-013
  -2.2599999999999999E-002    -1.4662780157220155E-013
  -2.2550000000000001E-002    -4.7412081501327567E-013
  -2.2499999999999999E-002    -7.5086558980481648E-013
  -2.2450000000000001E-002    -9.2958871358825136E-013
  -2.2400000000000000E-002    -9.7554419684294998E-013
  -2.2349999999999998E-002    -8.7294285134532490E-013
  -2.2300000000000000E-002    -6.2861739261177889E-013
  -2.2249999999999999E-002    -2.7216501660553496E-013
  -2.2200000000000001E-002     1.4761187996871782E-013
  -2.2150000000000000E-002     5.6951895938998819E-013
  -2.2100000000000002E-002     9.2902437309096743E-013
  -2.2050000000000000E-002     1.1681443664425185E-012
  -2.1999999999999999E-002     1.2445957996409020E-012
  -2.1950000000000001E-002     1.1387589431716084E-012
  -2.1899999999999999E-002     8.5734806561785766E-013
  -2.1850000000000001E-002     4.3321292177731070E-013
  -2.1800000000000000E-002    -7.8704551913162390E-014
  -2.1749999999999999E-002    -6.0865694814653029E-013
  -2.1700000000000001E-002    -1.0815664488537466E-012
  -2.1649999999999999E-002    -1.4273593465128254E-012
  -2.1600000000000001E-002    -1.5907568498599570E-012
  -2.1550000000000000E-002    -1.5392450737019554E-012
  -2.1499999999999998E-002    -1.2682103689713038E-012
  -2.1450000000000000E-002    -8.0259631752986016E-013
  -2.1399999999999999E-002    -1.9484117315635778E-013
  -2.1350000000000001E-002     4.8073809321490920E-013
  -2.1299999999999999E-002     1.1365748040967362E-012
  -2.1250000000000002E-002     1.6826177196372904E-012
  -2.1200000000000000E-002     2.0380797333361586E-012
  -2.1149999999999999E-002     2.1428141052033705E-012
  -2.1100000000000001E-002     1.9668572975705580E-012
  -2.1049999999999999E-002     1.5167162262113263E-012
  -2.1000000000000001E-002     8.3720532592983315E-013
  -2.0950000000000000E-002     8.0649191951189739E-015
  -2.0899999999999998E-002    -8.6476675638803860E-013
  -2.0850000000000000E-002    -1.6625708548581710E-012
  -2.0799999999999999E-002    -2.2704622942652228E-012
  -2.0750000000000001E-002    -2.5949723719735868E-012
  -2.0700000000000000E-002    -2.5798929474679524E-012
  -2.0649999999999998E-002    -2.2176096128277760E-012
  -2.0600000000000000E-002    -1.5535641276106364E-012
  -2.0549999999999999E-002    -6.8240619086335326E-013
  -2.0500000000000001E-002     2.6430468780636649E-013
  -2.0449999999999999E-002     1.1374992212315137E-012
  -2.0400000000000001E-002     1.7943538384408761E-012
  -2.0350000000000000E-002     2.1226151359416363E-012
  -2.0299999999999999E-002     2.0612942944588399E-012
  -2.0250000000000001E-002     1.6138595823500473E-012
  -2.0199999999999999E-002     8.5112867838688160E-013
  -2.0150000000000001E-002    -9.7251875140862322E-014
  -2.0100000000000000E-002    -1.0618847497445315E-012
  -2.0049999999999998E-002    -1.8604721992347627E-012
  -2.0000000000000000E-002    -2.3281630798110709E-012
  -1.9949999999999999E-002    -2.3463582664821003E-012
  -1.9900000000000001E-002    -1.8650609870641601E-012
  -1.9850000000000000E-002    -9.1487351392202256E-013
  -1.9799999999999998E-002     3.9354365140433220E-013
  -1.9750000000000000E-002     1.8826445195513536E-012
  -1.9699999999999999E-002     3.3318126359526864E-012
  -1.9650000000000001E-002     4.5081306555869855E-012
  -1.9599999999999999E-002     5.1994066266368584E-012
  -1.9550000000000001E-002     5.2445667775120917E-012
  -1.9500000000000000E-002     4.5571510910720345E-012
  -1.9449999999999999E-002     3.1388968898186597E-012
  -1.9400000000000001E-002     1.0820419772597226E-012
  -1.9349999999999999E-002    -1.4393515412691559E-012
  -1.9300000000000001E-002    -4.1872817741041207E-012
  -1.9250000000000000E-002    -6.8841028227917740E-012
  -1.9199999999999998E-002    -9.2399078534201256E-012
  -1.9150000000000000E-002    -1.0979658371927229E-011
  -1.9099999999999999E-002    -1.1867064059124641E-011
  -1.9050000000000001E-002    -1.1722832096158518E-011
  -1.9000000000000000E-002    -1.0435637125697397E-011
  -1.8949999999999998E-002    -7.9649255842824996E-012
  -1.8900000000000000E-002    -4.3353797592744733E-012
  -1.8849999999999999E-002     3.7630001125068377E-013
  -1.8800000000000001E-002     6.0609629105712532E-012
  -1.8749999999999999E-002     1.2600736113666499E-011
  -1.8700000000000001E-002     1.9894046108110039E-011
  -1.8650000000000000E-002     2.7878521714753317E-011
  -1.8599999999999998E-002     3.6548174684060477E-011
  -1.8550000000000001E-002     4.5961500153527134E-011
  -1.8499999999999999E-002     5.6238202594575803E-011
  -1.8450000000000001E-002     6.7543578678777746E-011
  -1.8400000000000000E-002     8.0061672732777412E-011
  -1.8349999999999998E-002     9.3960416458085682E-011
  -1.8300000000000000E-002     1.0935384191736310E-010
  -1.8249999999999999E-002     1.2626754559447335E-010
  -1.8200000000000001E-002     1.4461402713459954E-010
  -1.8149999999999999E-002     1.6418338206028244E-010
  -1.8100000000000002E-002     1.8465272380606231E-010
  -1.8050000000000000E-002     2.0561465293438143E-010
  -1.7999999999999999E-002     2.2662186654551488E-010
  -1.7950000000000001E-002     2.4724178049438800E-010
  -1.7899999999999999E-002     2.6711290021310878E-010
  -1.7850000000000001E-002     2.8599378555491811E-010
  -1.7800000000000000E-002     3.0379640852789495E-010
  -1.7749999999999998E-002     3.2059755912155786E-010
  -1.7700000000000000E-002     3.3662624890848788E-010
  -1.7649999999999999E-002     3.5222820571882977E-010
  -1.7600000000000001E-002     3.6781330933911847E-010
  -1.7550000000000000E-002     3.8379406628885662E-010
  -1.7499999999999998E-002     4.0052523830881321E-010
  -1.7450000000000000E-002     4.1825403919610657E-010
  -1.7399999999999999E-002     4.3708882310441039E-010
  -1.7350000000000001E-002     4.5699069874599694E-010
  -1.7299999999999999E-002     4.7778871715356620E-010
  -1.7250000000000001E-002     4.9921535761179429E-010
  -1.7200000000000000E-002     5.2095583072762236E-010
  -1.7149999999999999E-002     5.4270310125605034E-010
  -1.7100000000000001E-002     5.6420938886092425E-010
  -1.7049999999999999E-002     5.8532719509819792E-010
  -1.7000000000000001E-002     6.0603320460505924E-010
  -1.6950000000000000E-002     6.2643349518168147E-010
  -1.6899999999999998E-002     6.4674943090424180E-010
  -1.6850000000000000E-002     6.6728821786883699E-010
  -1.6799999999999999E-002     6.8840227610410892E-010
  -1.6750000000000001E-002     7.1044430983617279E-010
  -1.6700000000000000E-002     7.3372365718746897E-010
  -1.6649999999999998E-002     7.5847010166570073E-010
  -1.6600000000000000E-002     7.8480902598249360E-010
  -1.6549999999999999E-002     8.1275022935834121E-010
  -1.6500000000000001E-002     8.4219139559169250E-010
  -1.6449999999999999E-002     8.7293567056719995E-010
  -1.6400000000000001E-002     9.0472098034638206E-010
  -1.6350000000000000E-002     9.3725724937942644E-010
  -1.6299999999999999E-002     9.7026774115667546E-010
  -1.6250000000000001E-002     1.0035296846228436E-009
  -1.6199999999999999E-002     1.0369078460687721E-009
  -1.6150000000000001E-002     1.0703782878817125E-009
  -1.6100000000000000E-002     1.1040370574959561E-009
  -1.6049999999999998E-002     1.1380934902902182E-009
  -1.6000000000000000E-002     1.1728460895176558E-009
  -1.5949999999999999E-002     1.2086441225263595E-009
  -1.5900000000000001E-002     1.2458400710762710E-009
  -1.5850000000000000E-002     1.2847383271768076E-009
  -1.5799999999999998E-002     1.3255488092723748E-009
  -1.5750000000000000E-002     1.3683527381283865E-009
  -1.5699999999999999E-002     1.4130861979572077E-009
  -1.5650000000000001E-002     1.4595474545319443E-009
  -1.5599999999999999E-002     1.5074269566237897E-009
  -1.5550000000000001E-002     1.5563579498781960E-009
  -1.5500000000000000E-002     1.6059796066736205E-009
  -1.5449999999999998E-002     1.6560044590588102E-009
  -1.5400000000000000E-002     1.7062773186947360E-009
  -1.5349999999999999E-002     1.7568169390791041E-009
  -1.5300000000000001E-002     1.8078316369723231E-009
  -1.5250000000000000E-002     1.8597043895285555E-009
  -1.5199999999999998E-002     1.9129497206625929E-009
  -1.5150000000000000E-002     1.9681474300118225E-009
  -1.5099999999999999E-002     2.0258633413844008E-009
  -1.5050000000000001E-002     2.0865692054430398E-009
  -1.4999999999999999E-002     2.1505761189700897E-009
  -1.4949999999999998E-002     2.2179903727292133E-009
  -1.4900000000000000E-002     2.2887002342923409E-009
  -1.4849999999999999E-002     2.3623975298642766E-009
  -1.4800000000000001E-002     2.4386273121257496E-009
  -1.4749999999999999E-002     2.5168620503599950E-009
  -1.4700000000000001E-002     2.5965843144960204E-009
  -1.4650000000000000E-002     2.6773670161344342E-009
  -1.4599999999999998E-002     2.7589395675130479E-009
  -1.4550000000000000E-002     2.8412284710446887E-009
  -1.4499999999999999E-002     2.9243688335296031E-009
  -1.4450000000000001E-002     3.0086849023110412E-009
  -1.4400000000000000E-002     3.0946456626080860E-009
  -1.4349999999999998E-002     3.1828040208107962E-009
  -1.4300000000000000E-002     3.2737268326348335E-009
  -1.4249999999999999E-002     3.3679276435886927E-009
  -1.4200000000000001E-002     3.4658111344945098E-009
  -1.4149999999999999E-002     3.5676364197076153E-009
  -1.4099999999999998E-002     3.6735029911360851E-009
  -1.4050000000000000E-002     3.7833592602676410E-009
  -1.3999999999999999E-002     3.8970309192573768E-009
  -1.3950000000000001E-002     4.0142636722116805E-009
  -1.3899999999999999E-002     4.1347767772404483E-009
  -1.3850000000000001E-002     4.2583150342343771E-009
  -1.3800000000000000E-002     4.3846961165754281E-009
  -1.3749999999999998E-002     4.5138444436340552E-009
  -1.3700000000000000E-002     4.6458105400539173E-009
  -1.3649999999999999E-002     4.7807718648789286E-009
  -1.3600000000000001E-002     4.9190130602947715E-009
  -1.3550000000000000E-002     5.0608915456432273E-009
  -1.3499999999999998E-002     5.2067955845527264E-009
  -1.3450000000000000E-002     5.3570935731671457E-009
  -1.3399999999999999E-002     5.5120896388113561E-009
  -1.3350000000000001E-002     5.6719858608370809E-009
  -1.3299999999999999E-002     5.8368619546724242E-009
  -1.3249999999999998E-002     6.0066744727059367E-009
  -1.3200000000000000E-002     6.1812759904785965E-009
  -1.3149999999999998E-002     6.3604503498420937E-009
  -1.3100000000000001E-002     6.5439643316366400E-009
  -1.3049999999999999E-002     6.7316214834721071E-009
  -1.3000000000000001E-002     6.9233148787596807E-009
  -1.2950000000000000E-002     7.1190704600533183E-009
  -1.2899999999999998E-002     7.3190710285294316E-009
  -1.2850000000000000E-002     7.5236580459348038E-009
  -1.2799999999999999E-002     7.7333108506754967E-009