  -4.0000000000000001E-002     0.0000000000000000     
  -3.9949999999999999E-002     0.0000000000000000     
  -3.9899999999999998E-002     0.0000000000000000     
  -3.9850000000000003E-002     0.0000000000000000     
  -3.9800000000000002E-002     0.0000000000000000     
  -3.9750000000000001E-002     0.0000000000000000     
  -3.9699999999999999E-002     0.0000000000000000     
  -3.9649999999999998E-002     0.0000000000000000     
  -3.9600000000000003E-002     0.0000000000000000     
  -3.9550000000000002E-002     0.0000000000000000     
  -3.9500000000000000E-002     0.0000000000000000     
  -3.9449999999999999E-002     0.0000000000000000     
  -3.9399999999999998E-002     0.0000000000000000     
  -3.9350000000000003E-002     0.0000000000000000     
  -3.9300000000000002E-002     0.0000000000000000     
  -3.9250000000000000E-002     0.0000000000000000     
  -3.9199999999999999E-002     0.0000000000000000     
  -3.9150000000000004E-002     0.0000000000000000     
  -3.9100000000000003E-002     0.0000000000000000     
  -3.9050000000000001E-002     0.0000000000000000     
  -3.9000000000000000E-002     0.0000000000000000     
  -3.8949999999999999E-002     0.0000000000000000     
  -3.8900000000000004E-002     0.0000000000000000     
  -3.8850000000000003E-002     0.0000000000000000     
  -3.8800000000000001E-002     0.0000000000000000     
  -3.8750000000000000E-002     0.0000000000000000     
  -3.8699999999999998E-002     0.0000000000000000     
  -3.8650000000000004E-002     0.0000000000000000     
  -3.8600000000000002E-002     0.0000000000000000     
  -3.8550000000000001E-002     0.0000000000000000     
  -3.8500000000000000E-002     0.0000000000000000     
  -3.8449999999999998E-002     0.0000000000000000     
  -3.8400000000000004E-002     0.0000000000000000     
  -3.8350000000000002E-002     0.0000000000000000     
  -3.8300000000000001E-002     0.0000000000000000     
  -3.8249999999999999E-002     0.0000000000000000     
  -3.8199999999999998E-002     0.0000000000000000     
  -3.8150000000000003E-002     0.0000000000000000     
  -3.8100000000000002E-002     0.0000000000000000     
  -3.8050000000000000E-002     0.0000000000000000     
  -3.7999999999999999E-002     0.0000000000000000     
  -3.7949999999999998E-002     0.0000000000000000     
  -3.7900000000000003E-002     0.0000000000000000     
  -3.7850000000000002E-002     0.0000000000000000     
  -3.7800000000000000E-002     0.0000000000000000     
  -3.7749999999999999E-002     0.0000000000000000     
  -3.7699999999999997E-002     0.0000000000000000     
  -3.7650000000000003E-002     0.0000000000000000     
  -3.7600000000000001E-002     0.0000000000000000     
  -3.7550000000000000E-002     0.0000000000000000     
  -3.7499999999999999E-002     0.0000000000000000     
  -3.7449999999999997E-002     0.0000000000000000     
  -3.7400000000000003E-002     0.0000000000000000     
  -3.7350000000000001E-002     0.0000000000000000     
  -3.7300000000000000E-002     0.0000000000000000     
  -3.7249999999999998E-002     0.0000000000000000     
  -3.7200000000000004E-002     0.0000000000000000     
  -3.7150000000000002E-002     0.0000000000000000     
  -3.7100000000000001E-002     0.0000000000000000     
  -3.7050000000000000E-002     0.0000000000000000     
  -3.6999999999999998E-002     0.0000000000000000     
  -3.6950000000000004E-002     0.0000000000000000     
  -3.6900000000000002E-002     0.0000000000000000     
  -3.6850000000000001E-002     0.0000000000000000     
  -3.6799999999999999E-002     0.0000000000000000     
  -3.6749999999999998E-002     0.0000000000000000     
  -3.6700000000000003E-002     0.0000000000000000     
  -3.6650000000000002E-002    -6.7338364993896726E-040
  -3.6600000000000001E-002    -6.7338364993896726E-040
  -3.6549999999999999E-002     0.0000000000000000     
  -3.6499999999999998E-002     3.9022646648774407E-039
  -3.6450000000000003E-002     1.0898596405898580E-038
  -3.6400000000000002E-002     2.0706929818831183E-038
  -3.6350000000000000E-002     3.0660515696741972E-038
  -3.6299999999999999E-002     3.2083503871391440E-038
  -3.6249999999999998E-002     8.4041706069982105E-039
  -3.6200000000000003E-002    -3.5325335285894270E-038
  -3.6150000000000002E-002    -1.2174242778530886E-037
  -3.6100000000000000E-002    -2.6600447590940456E-037
  -3.6049999999999999E-002    -4.6613341583467034E-037
  -3.6000000000000004E-002    -6.3395269306207519E-037
  -3.5950000000000003E-002    -6.6131340432765835E-037
  -3.5900000000000001E-002    -3.6526017398989479E-037
  -3.5850000000000000E-002     4.5599395697174335E-037
  -3.5799999999999998E-002     1.9437170723497445E-036
  -3.5750000000000004E-002     4.0478320921327309E-036
  -3.5700000000000003E-002     6.3560785932779078E-036
  -3.5650000000000001E-002     7.9565500618947383E-036
  -3.5600000000000000E-002     7.3636331905772637E-036
  -3.5549999999999998E-002     2.7538810990405262E-036
  -3.5500000000000004E-002    -7.5423633780912086E-036
  -3.5450000000000002E-002    -2.4115671368492602E-035
  -3.5400000000000001E-002    -4.5262499074986512E-035
  -3.5349999999999999E-002    -6.5783477696889157E-035
  -3.5299999999999998E-002    -7.6356080631139846E-035
  -3.5250000000000004E-002    -6.4221134718135192E-035
  -3.5200000000000002E-002    -1.5905797021977506E-035
  -3.5150000000000001E-002     7.7663653491177672E-035
  -3.5099999999999999E-002     2.1411010536107829E-034
  -3.5049999999999998E-002     3.7225161922251950E-034
  -3.5000000000000003E-002     5.0736797864524832E-034
  -3.4950000000000002E-002     5.5286462811976386E-034
  -3.4900000000000000E-002     4.3183069949092586E-034
  -3.4849999999999999E-002     7.9945555120669039E-035
  -3.4799999999999998E-002    -5.2281457753806770E-034
  -3.4750000000000003E-002    -1.3195380508695722E-033
  -3.4700000000000002E-002    -2.1555938387618913E-033
  -3.4650000000000000E-002    -2.7844055706883037E-033
  -3.4599999999999999E-002    -2.9106851167781985E-033
  -3.4549999999999997E-002    -2.2710397548660784E-033
  -3.4500000000000003E-002    -7.3505345840444698E-034
  -3.4450000000000001E-002     1.6075050573170161E-033
  -3.4400000000000000E-002     4.4171061823957811E-033
  -3.4349999999999999E-002     7.1681446482274997E-033
  -3.4299999999999997E-002     9.3101319667497534E-033
  -3.4250000000000003E-002     1.0479567192817085E-032
  -3.4200000000000001E-002     1.0661396216330993E-032
  -3.4150000000000000E-002     1.0170081227029708E-032
  -3.4099999999999998E-002     9.3486531907908026E-033
  -3.4049999999999997E-002     7.9900431419658816E-033
  -3.4000000000000002E-002     4.6590068780333395E-033
  -3.3950000000000001E-002    -3.7167579801953612E-033
  -3.3900000000000000E-002    -2.1502876940472098E-032
  -3.3849999999999998E-002    -5.2846327353392618E-032
  -3.3799999999999997E-002    -9.8906297239052544E-032
  -3.3750000000000002E-002    -1.5431628827030918E-031
  -3.3700000000000001E-002    -2.0405781563085762E-031
  -3.3649999999999999E-002    -2.2247388124020005E-031
  -3.3599999999999998E-002    -1.7622869239415548E-031
  -3.3550000000000003E-002    -3.2362693639381087E-032
  -3.3500000000000002E-002     2.2886601236202999E-031
  -3.3450000000000001E-002     5.9866735550294622E-031
  -3.3399999999999999E-002     1.0262164668244038E-030
  -3.3349999999999998E-002     1.4124066289272793E-030
  -3.3300000000000003E-002     1.6159433431249814E-030
  -3.3250000000000002E-002     1.4746930892667906E-030
  -3.3200000000000000E-002     8.4154971840316464E-031
  -3.3149999999999999E-002    -3.7004620954610394E-031
  -3.3099999999999997E-002    -2.1390834318354483E-030
  -3.3050000000000003E-002    -4.2979230280395828E-030
  -3.3000000000000002E-002    -6.5098293678335923E-030
  -3.2950000000000000E-002    -8.2696335723198328E-030
  -3.2899999999999999E-002    -8.9326941029638984E-030
  -3.2850000000000004E-002    -7.7783620553203350E-030
  -3.2800000000000003E-002    -4.1178858441918782E-030
  -3.2750000000000001E-002     2.5398473464551643E-030
  -3.2700000000000000E-002     1.2254254548709150E-029
  -3.2649999999999998E-002     2.4357256386117486E-029
  -3.2600000000000004E-002     3.7139502532861993E-029
  -3.2550000000000003E-002     4.7617624740938073E-029
  -3.2500000000000001E-002     5.1541567773766367E-029
  -3.2450000000000000E-002     4.3837647408636944E-029
  -3.2399999999999998E-002     1.9659946252381036E-029
  -3.2350000000000004E-002    -2.3895111863583416E-029
  -3.2300000000000002E-002    -8.5582735396342396E-029
  -3.2250000000000001E-002    -1.5779491642259695E-028
  -3.2199999999999999E-002    -2.2513769590321933E-028
  -3.2149999999999998E-002    -2.6480450276415066E-028
  -3.2100000000000004E-002    -2.4968446128711136E-028
  -3.2050000000000002E-002    -1.5469199638840216E-028
  -3.2000000000000001E-002     3.4080218193654833E-029
  -3.1949999999999999E-002     3.0899126365088664E-028
  -3.1899999999999998E-002     6.3212551346539750E-028
  -3.1850000000000003E-002     9.3194335386568912E-028
  -3.1800000000000002E-002     1.1090389513333294E-027
  -3.1750000000000000E-002     1.0534567061332595E-027
  -3.1699999999999999E-002     6.7334318931275440E-028
  -3.1649999999999998E-002    -6.9069909084488967E-029
  -3.1600000000000003E-002    -1.1222194074218070E-027
  -3.1550000000000002E-002    -2.3219010191680455E-027
  -3.1500000000000000E-002    -3.3919141002121109E-027
  -3.1449999999999999E-002    -3.9780286681354784E-027
  -3.1399999999999997E-002    -3.7181111298452385E-027
  -3.1350000000000003E-002    -2.3415083334804542E-027
  -3.1300000000000001E-002     2.2028388965041473E-028
  -3.1250000000000000E-002     3.7390774417477889E-027
  -3.1199999999999999E-002     7.6435077052858001E-027
  -3.1150000000000001E-002     1.1049372498887529E-026
  -3.1100000000000003E-002     1.2883349546261027E-026
  -3.1050000000000001E-002     1.2096592139975135E-026
  -3.1000000000000000E-002     7.9401572280261807E-027
  -3.0949999999999998E-002     2.5088523486551422E-028
  -3.0900000000000000E-002    -1.0319502783669457E-026
  -3.0850000000000002E-002    -2.2202193421070407E-026
  -3.0800000000000001E-002    -3.2993132029308761E-026
  -3.0750000000000000E-002    -3.9747983798592820E-026
  -3.0699999999999998E-002    -3.9480234121620508E-026
  -3.0650000000000000E-002    -2.9809799181198819E-026
  -3.0600000000000002E-002    -9.6702908840705003E-027
  -3.0550000000000001E-002     2.0045755437964806E-026
  -3.0499999999999999E-002     5.6039898452738444E-026
  -3.0449999999999998E-002     9.2495864390800110E-026
  -3.0400000000000000E-002     1.2142499961875286E-025
  -3.0350000000000002E-002     1.3356026671407351E-025
  -3.0300000000000001E-002     1.1983532528948232E-025
  -3.0249999999999999E-002     7.3399536908933400E-026
  -3.0200000000000001E-002    -8.0072502450377755E-027
  -3.0150000000000000E-002    -1.1966305106211045E-025
  -3.0100000000000002E-002    -2.4798725669112443E-025
  -3.0050000000000000E-002    -3.6987736127943234E-025
  -2.9999999999999999E-002    -4.5402729145860971E-025
  -2.9950000000000001E-002    -4.6488238602634723E-025
  -2.9899999999999999E-002    -3.6950887700279700E-025
  -2.9850000000000002E-002    -1.4698086053673193E-025
  -2.9800000000000000E-002     2.0103538599443331E-025
  -2.9749999999999999E-002     6.4082459275772972E-025
  -2.9700000000000001E-002     1.1014227648218161E-024
  -2.9650000000000003E-002     1.4770637869664252E-024
  -2.9600000000000001E-002     1.6400099819813530E-024
  -2.9550000000000000E-002     1.4647515154629295E-024
  -2.9499999999999998E-002     8.6172331535716607E-025
  -2.9450000000000000E-002    -1.8480795587380877E-025
  -2.9400000000000003E-002    -1.5834312910525629E-024
  -2.9350000000000001E-002    -3.1178241424315669E-024
  -2.9300000000000000E-002    -4.4554293607615836E-024
  -2.9249999999999998E-002    -5.1902624449772198E-024
  -2.9200000000000000E-002    -4.9209340315045258E-024
  -2.9150000000000002E-002    -3.3556561106368974E-024
  -2.9100000000000001E-002    -4.2571890227341986E-025
  -2.9049999999999999E-002     3.6197622208874166E-024
  -2.8999999999999998E-002     8.1691489380905020E-024
  -2.8950000000000000E-002     1.2281810671346361E-023
  -2.8900000000000002E-002     1.4816368102652412E-023
  -2.8850000000000001E-002     1.4650342826543717E-023
  -2.8799999999999999E-002     1.0963107514267879E-023
  -2.8749999999999998E-002     3.5294198247371112E-024
  -2.8700000000000000E-002    -7.0470089199004172E-024
  -2.8650000000000002E-002    -1.9235004633736831E-023
  -2.8600000000000000E-002    -3.0674007277179397E-023
  -2.8549999999999999E-002    -3.8497976853863242E-023
  -2.8500000000000001E-002    -3.9866420884375700E-023
  -2.8450000000000000E-002    -3.2629379990942313E-023
  -2.8400000000000002E-002    -1.6003616353456383E-023
  -2.8350000000000000E-002     8.8936323907496748E-024
  -2.8299999999999999E-002     3.8808616269289101E-023
  -2.8250000000000001E-002     6.8533853414007279E-023
  -2.8200000000000003E-002     9.1562510394131039E-023
  -2.8150000000000001E-002     1.0117461352413932E-022
  -2.8100000000000000E-002     9.1814965527428226E-023
  -2.8049999999999999E-002     6.0534958774751543E-023
  -2.8000000000000001E-002     8.2159515045631199E-024
  -2.7950000000000003E-002    -5.9714593858522324E-023
  -2.7900000000000001E-002    -1.3331569194866121E-022
  -2.7850000000000000E-002    -1.9905561180547334E-022
  -2.7799999999999998E-002    -2.4162875080133178E-022
  -2.7750000000000000E-002    -2.4651342141739740E-022
  -2.7700000000000002E-002    -2.0296158210268114E-022
  -2.7650000000000001E-002    -1.0698112894040824E-022
  -2.7600000000000000E-002     3.6216994698424521E-023
  -2.7549999999999998E-002     2.1086360042062954E-022
  -2.7500000000000000E-002     3.9087874092971138E-022
  -2.7450000000000002E-002     5.4210145958567060E-022
  -2.7400000000000001E-002     6.2664853449105179E-022
  -2.7349999999999999E-002     6.0922010744964070E-022
  -2.7299999999999998E-002     4.6475226438405743E-022
  -2.7250000000000000E-002     1.8635839050142210E-022
  -2.7200000000000002E-002    -2.0792401907796761E-022
  -2.7150000000000001E-002    -6.7134382200794573E-022
  -2.7099999999999999E-002    -1.1293741716078823E-021
  -2.7049999999999998E-002    -1.4867433240777571E-021
  -2.7000000000000000E-002    -1.6410756241014460E-021
  -2.6950000000000002E-002    -1.5023298796934979E-021
  -2.6900000000000000E-002    -1.0156358959815538E-021
  -2.6849999999999999E-002    -1.8352150210396002E-022
  -2.6800000000000001E-002     9.1766412265775433E-022
  -2.6749999999999999E-002     2.1326572609495690E-021
  -2.6700000000000002E-002     3.2381328547246044E-021
  -2.6650000000000000E-002     3.9718225596587194E-021
  -2.6599999999999999E-002     4.0786088133619960E-021
  -2.6550000000000001E-002     3.3679666636839630E-021
  -2.6500000000000003E-002     1.7728553226063266E-021
  -2.6450000000000001E-002    -6.0290738016608236E-022
  -2.6400000000000000E-002    -3.4625886008115163E-021
  -2.6349999999999998E-002    -6.3313085647781887E-021
  -2.6300000000000000E-002    -8.6136623477305770E-021
  -2.6250000000000002E-002    -9.6918092602703790E-021
  -2.6200000000000001E-002    -9.0519329280229568E-021
  -2.6150000000000000E-002    -6.4177455484998340E-021
  -2.6099999999999998E-002    -1.8633431020120220E-021
  -2.6050000000000000E-002     4.1236523686964687E-021
  -2.6000000000000002E-002     1.0652908542978994E-020
  -2.5950000000000001E-002     1.6529070669144240E-020
  -2.5899999999999999E-002     2.0432997917044616E-020
  -2.5849999999999998E-002     2.1164668120903882E-020
  -2.5800000000000000E-002     1.7908910122803765E-020
  -2.5750000000000002E-002     1.0473533012311921E-020
  -2.5700000000000001E-002    -5.5323236124192459E-022
  -2.5649999999999999E-002    -1.3771197588093712E-020
  -2.5599999999999998E-002    -2.7089510020179060E-020
  -2.5550000000000000E-002    -3.8001533647610719E-020
  -2.5500000000000002E-002    -4.3984430921292296E-020
  -2.5450000000000000E-002    -4.2967143190721167E-020
  -2.5399999999999999E-002    -3.3790432533448754E-020
  -2.5349999999999998E-002    -1.6574647793832798E-020
  -2.5300000000000000E-002     7.0829551840868745E-021
  -2.5250000000000002E-002     3.4139438534361634E-020
  -2.5200000000000000E-002     6.0392397295567288E-020
  -2.5149999999999999E-002     8.1009454144378819E-020
  -2.5100000000000001E-002     9.1249629911222408E-020
  -2.5049999999999999E-002     8.7289167218180718E-020
  -2.5000000000000001E-002     6.7037387134022866E-020
  -2.4950000000000000E-002     3.0813195602638009E-020
  -2.4899999999999999E-002    -1.8247705366130016E-020
  -2.4850000000000001E-002    -7.4168340164911315E-020
  -2.4800000000000003E-002    -1.2856782725330383E-019
  -2.4750000000000001E-002    -1.7158823643551930E-019
  -2.4700000000000000E-002    -1.9326896732909766E-019
  -2.4649999999999998E-002    -1.8524539343839576E-019
  -2.4600000000000000E-002    -1.4256237761203073E-019
  -2.4550000000000002E-002    -6.5317594827335149E-020
  -2.4500000000000001E-002     4.0199743681586718E-020
  -2.4450000000000000E-002     1.6121139552052287E-019
  -2.4399999999999998E-002     2.7926561938147013E-019
  -2.4350000000000000E-002     3.7230235841582084E-019
  -2.4299999999999999E-002     4.1789642274302558E-019
  -2.4250000000000001E-002     3.9735435405914188E-019
  -2.4199999999999999E-002     3.0008077610164186E-019
  -2.4150000000000001E-002     1.2742277260284350E-019
  -2.4100000000000000E-002    -1.0489643027395228E-019
  -2.4049999999999998E-002    -3.6657543737869221E-019
  -2.4000000000000000E-002    -6.1532493593688461E-019
  -2.3949999999999999E-002    -8.0236855653273805E-019
  -2.3900000000000001E-002    -8.8039903131715553E-019
  -2.3850000000000000E-002    -8.1292879622436549E-019
  -2.3800000000000002E-002    -5.8345907031584710E-019
  -2.3750000000000000E-002    -2.0260438559522699E-019
  -2.3699999999999999E-002     2.8864667104750847E-019
  -2.3650000000000001E-002     8.2092272726810757E-019
  -2.3599999999999999E-002     1.3042954811061230E-018
  -2.3550000000000001E-002     1.6414574484227880E-018
  -2.3500000000000000E-002     1.7446210990770483E-018
  -2.3449999999999999E-002     1.5535016952506979E-018
  -2.3400000000000001E-002     1.0511098568204009E-018
  -2.3349999999999999E-002     2.7401548819211464E-019
  -2.3300000000000001E-002    -6.8569142861012768E-019
  -2.3250000000000000E-002    -1.6883147482867388E-018
  -2.3199999999999998E-002    -2.5642771699027340E-018
  -2.3150000000000000E-002    -3.1397557213977791E-018
  -2.3099999999999999E-002    -3.2666573445280723E-018
  -2.3050000000000001E-002    -2.8521580604754542E-018
  -2.3000000000000000E-002    -1.8825954239883131E-018
  -2.2950000000000002E-002    -4.3691084767196260E-019
  -2.2900000000000000E-002     1.3138300461100985E-018
  -2.2849999999999999E-002     3.1223545583980365E-018
  -2.2800000000000001E-002     4.6956545814787730E-018
  -2.2749999999999999E-002     5.7367131179713437E-018
  -2.2700000000000001E-002     5.9921611107749484E-018
  -2.2650000000000000E-002     5.2991060361999117E-018
  -2.2599999999999999E-002     3.6238807387711360E-018
  -2.2550000000000001E-002     1.0858981149480556E-018
  -2.2499999999999999E-002    -2.0388054494734096E-018
  -2.2450000000000001E-002    -5.3375264804468434E-018
  -2.2400000000000000E-002    -8.3047106199902616E-018
  -2.2349999999999998E-002    -1.0406692083568824E-017
  -2.2300000000000000E-002    -1.1161084684641977E-017
  -2.2249999999999999E-002    -1.0221433525521553E-017
  -2.2200000000000001E-002    -7.4552929612547726E-018
  -2.2150000000000000E-002    -3.0025339527942841E-018
  -2.2100000000000002E-002     2.6989571190464001E-018
  -2.2050000000000000E-002     8.9306582733033446E-018
  -2.1999999999999999E-002     1.4759806146494506E-017
  -2.1950000000000001E-002     1.9153847733745684E-017
  -2.1899999999999999E-002     2.1133747751874327E-017
  -2.1850000000000001E-002     1.9948109452049380E-017
  -2.1800000000000000E-002     1.5242386998390952E-017
  -2.1749999999999999E-002     7.1926040293784906E-018
  -2.1700000000000001E-002    -3.4272368857252104E-018
  -2.1649999999999999E-002    -1.5269342085262987E-017
  -2.1600000000000001E-002    -2.6541676520766493E-017
  -2.1550000000000000E-002    -3.5239753682316476E-017
  -2.1499999999999998E-002    -3.9458116173535538E-017
  -2.1450000000000000E-002    -3.7739531330105062E-017
  -2.1399999999999999E-002    -2.9405159691136479E-017
  -2.1350000000000001E-002    -1.4802359882169851E-017
  -2.1299999999999999E-002     4.5889990113243985E-018
  -2.1250000000000002E-002     2.6234154163917130E-017
  -2.1200000000000000E-002     4.6820285280584278E-017
  -2.1149999999999999E-002     6.2713118378936907E-017
  -2.1100000000000001E-002     7.0537963572466119E-017
  -2.1049999999999999E-002     6.7798967614853982E-017
  -2.1000000000000001E-002     5.3431511926428984E-017
  -2.0950000000000000E-002     2.8181368400455606E-017
  -2.0899999999999998E-002    -5.2787333857242882E-018
  -2.0850000000000000E-002    -4.2547482677574370E-017
  -2.0799999999999999E-002    -7.8011933831799175E-017
  -2.0750000000000001E-002    -1.0563072906736650E-016
  -2.0700000000000000E-002    -1.1988034782785111E-016
  -2.0649999999999998E-002    -1.1672296167806562E-016
  -2.0600000000000000E-002    -9.4437693311691953E-017
  -2.0549999999999999E-002    -5.4165675820573992E-017
  -2.0500000000000001E-002    -5.3162314073243484E-020
  -2.0449999999999999E-002     6.1067453149779195E-017
  -2.0400000000000001E-002     1.2045116102316798E-016
  -2.0350000000000000E-002     1.6858955711443499E-016
  -2.0299999999999999E-002     1.9659420836642342E-016
  -2.0250000000000001E-002     1.9762723673803918E-016
  -2.0199999999999999E-002     1.6817139340955808E-016
  -2.0150000000000001E-002     1.0893918268457225E-016
  -2.0100000000000000E-002     2.5254688568141785E-017
  -2.0049999999999998E-002    -7.3198755673004862E-017
  -2.0000000000000000E-002    -1.7329642597916278E-016
  -1.9949999999999999E-002    -2.6000000393683784E-016
  -1.9900000000000001E-002    -3.1835108808051893E-016
  -1.9850000000000000E-002    -3.3570785886496945E-016
  -1.9799999999999998E-002    -3.0393823020603241E-016
  -1.9750000000000000E-002    -2.2125099935504272E-016
  -1.9699999999999999E-002    -9.3346136339351646E-017
  -1.9650000000000001E-002     6.6385681599561098E-017
  -1.9599999999999999E-002     2.3779399998336148E-016
  -1.9550000000000001E-002     3.9606985536812448E-016
  -1.9500000000000000E-002     5.1488753156982100E-016
  -1.9449999999999999E-002     5.7027063303732016E-016
  -1.9400000000000001E-002     5.4469472051143560E-016
  -1.9349999999999999E-002     4.3081008655401573E-016
  -1.9300000000000001E-002     2.3412156534146363E-016
  -1.9250000000000000E-002    -2.5986568823629596E-017
  -1.9199999999999998E-002    -3.1731582530285727E-016
  -1.9150000000000000E-002    -5.9817038776797284E-016
  -1.9099999999999999E-002    -8.2272504170008199E-016
  -1.9050000000000001E-002    -9.4786100108888522E-016
  -1.9000000000000000E-002    -9.4053757023663593E-016
  -1.8949999999999998E-002    -7.8453824607316109E-016
  -1.8900000000000000E-002    -4.8535922222043894E-016
  -1.8849999999999999E-002    -7.2159520046145070E-017
  -1.8800000000000001E-002     4.0394630142818934E-016
  -1.8749999999999999E-002     8.7543784827006972E-016
  -1.8700000000000001E-002     1.2673237736753790E-015
  -1.8650000000000000E-002     1.5083688598568398E-015
  -1.8599999999999998E-002     1.5430019014184741E-015
  -1.8550000000000001E-002     1.3420018383161699E-015
  -1.8499999999999999E-002     9.1006554330248989E-016
  -1.8450000000000001E-002     2.8869456506994310E-016
  -1.8400000000000000E-002    -4.4652429620552030E-016
  -1.8349999999999998E-002    -1.1943355009387938E-015
  -1.8300000000000000E-002    -1.8410871494888148E-015
  -1.8249999999999999E-002    -2.2771730103748258E-015
  -1.8200000000000001E-002    -2.4143170103289581E-015
  -1.8149999999999999E-002    -2.2010837878837323E-015
  -1.8100000000000002E-002    -1.6340791834439775E-015
  -1.8050000000000000E-002    -7.6282639370349416E-016
  -1.7999999999999999E-002     3.1289041362588966E-016
  -1.7950000000000001E-002     1.4533576278637383E-015
  -1.7899999999999999E-002     2.4959770200305815E-015
  -1.7850000000000001E-002     3.2770424356455024E-015
  -1.7800000000000000E-002     3.6554717098299057E-015
  -1.7749999999999998E-002     3.5352958189350737E-015
  -1.7700000000000000E-002     2.8836555190539799E-015
  -1.7649999999999999E-002     1.7414658444913183E-015
  -1.7600000000000001E-002     2.2466393869945242E-016
  -1.7550000000000000E-002    -1.4849550557746177E-015
  -1.7499999999999998E-002    -3.1590265546709363E-015
  -1.7450000000000000E-002    -4.5503872035399501E-015
  -1.7399999999999999E-002    -5.4264025183872610E-015
  -1.7350000000000001E-002    -5.6038663358932319E-015
  -1.7299999999999999E-002    -4.9808031788330335E-015
  -1.7250000000000001E-002    -3.5603553613387492E-015
  -1.7200000000000000E-002    -1.4623813422967761E-015
  -1.7149999999999999E-002     1.0804484932486758E-015
  -1.7100000000000001E-002     3.7435211552512012E-015
  -1.7049999999999999E-002     6.1472809063527771E-015
  -1.7000000000000001E-002     7.9070189574498476E-015
  -1.6950000000000000E-002     8.6896811859948406E-015
  -1.6899999999999998E-002     8.2699925986962847E-015
  -1.6850000000000000E-002     6.5772056552471827E-015
  -1.6799999999999999E-002     3.7240078815587133E-015
  -1.6750000000000001E-002     1.0761575664142700E-017
  -1.6700000000000000E-002    -4.0987357245572211E-015
  -1.6649999999999998E-002    -8.0296858352111896E-015
  -1.6600000000000000E-002    -1.1172079654434125E-014
  -1.6549999999999999E-002    -1.2970576850799459E-014
  -1.6500000000000001E-002    -1.3015808005552345E-014
  -1.6449999999999999E-002    -1.1122728540661834E-014
  -1.6400000000000001E-002    -7.3821631428865630E-015
  -1.6350000000000000E-002    -2.1745280849455684E-015
  -1.6299999999999999E-002     3.8602106214890715E-015
  -1.6250000000000001E-002     9.8958668410890195E-015
  -1.6199999999999999E-002     1.5029040207425620E-014
  -1.6150000000000001E-002     1.8409882485385480E-014
  -1.6100000000000000E-002     1.9375970511913092E-014
  -1.6049999999999998E-002     1.7568713594487856E-014
  -1.6000000000000000E-002     1.3012838958795617E-014
  -1.5949999999999999E-002     6.1440047017575454E-015
  -1.5900000000000001E-002    -2.2235152309688241E-015
  -1.5850000000000000E-002    -1.0988266954664030E-014
  -1.5799999999999998E-002    -1.8902419574644603E-014
  -1.5750000000000000E-002    -2.4744067543487901E-014
  -1.5699999999999999E-002    -2.7497562087307635E-014
  -1.5650000000000001E-002    -2.6515918488001435E-014
  -1.5599999999999999E-002    -2.1640656431339757E-014
  -1.5550000000000001E-002    -1.3259413918843470E-014
  -1.5500000000000000E-002    -2.2895310494673072E-015
  -1.5449999999999998E-002     9.9143746418272418E-015
  -1.5400000000000000E-002     2.1720307226951278E-014
  -1.5349999999999999E-002     3.1428098363838048E-014
  -1.5300000000000001E-002     3.7502155147877380E-014
  -1.5250000000000000E-002     3.8797447295054535E-014
  -1.5199999999999998E-002     3.4747634377620206E-014
  -1.5150000000000000E-002     2.5487374527564886E-014
  -1.5099999999999999E-002     1.1887667663623314E-014
  -1.5050000000000001E-002    -4.5068158127688908E-015
  -1.4999999999999999E-002    -2.1637585816989245E-014
  -1.4949999999999998E-002    -3.7175566519523600E-014
  -1.4900000000000000E-002    -4.8821740044618632E-014
  -1.4849999999999999E-002    -5.4629282854737284E-014
  -1.4800000000000001E-002    -5.3304989860537099E-014
  -1.4749999999999999E-002    -4.4446420258001860E-014
  -1.4700000000000001E-002    -2.8675721036237409E-014
  -1.4650000000000000E-002    -7.6413316132102454E-015
  -1.4599999999999998E-002     1.6125596338790409E-014
  -1.4550000000000000E-002     3.9494085272066067E-014
  -1.4499999999999999E-002     5.9128629848713723E-014
  -1.4450000000000001E-002     7.1950820989170779E-014
  -1.4400000000000000E-002     7.5606411775247174E-014
  -1.4349999999999998E-002     6.8869685338513354E-014
  -1.4300000000000000E-002     5.1919003598033639E-014
  -1.4249999999999999E-002     2.6430096692856169E-014
  -1.4200000000000001E-002    -4.5443295056372682E-015
  -1.4149999999999999E-002    -3.6910509873592033E-014
  -1.4099999999999998E-002    -6.6054203970971920E-014
  -1.4050000000000000E-002    -8.7483746458056733E-014
  -1.3999999999999999E-002    -9.7508745327927936E-014
  -1.3950000000000001E-002    -9.3854377949342060E-014
  -1.3899999999999999E-002    -7.6112358622616063E-014
  -1.3850000000000001E-002    -4.5946619921291194E-014
  -1.3800000000000000E-002    -7.0029635910138313E-015
  -1.3749999999999998E-002     3.5486528652298281E-014
  -1.3700000000000000E-002     7.5367231007987196E-014
  -1.3649999999999999E-002     1.0641312519376942E-013
  -1.3600000000000001E-002     1.2325022557427956E-013
  -1.3550000000000000E-002     1.2221855214297902E-013
  -1.3499999999999998E-002     1.0203981438797637E-013
  -1.3450000000000000E-002     6.4178983532784713E-014
  -1.3399999999999999E-002     1.2827630850505265E-014
  -1.3350000000000001E-002    -4.5511209674986274E-014
  -1.3299999999999999E-002    -1.0279877940290411E-013
  -1.3249999999999998E-002    -1.5050447855840677E-013
  -1.3200000000000000E-002    -1.8078213789405764E-013
  -1.3149999999999998E-002    -1.8761824871490915E-013
  -1.3100000000000001E-002    -1.6778849973365681E-013
  -1.3049999999999999E-002    -1.2148109517082420E-013
  -1.3000000000000001E-002    -5.2485599826220123E-014
  -1.2950000000000000E-002     3.2095917261008761E-014
  -1.2899999999999998E-002     1.2259507054808172E-013
  -1.2850000000000000E-002     2.0789724046381880E-013
  -1.2799999999999999E-002     2.7679982908069965E-013