  -4.0000000000000001E-002     0.0000000000000000     
  -3.9949999999999999E-002     0.0000000000000000     
  -3.9899999999999998E-002     0.0000000000000000     
  -3.9850000000000003E-002     0.0000000000000000     
  -3.9800000000000002E-002     0.0000000000000000     
  -3.9750000000000001E-002     0.0000000000000000     
  -3.9699999999999999E-002     0.0000000000000000     
  -3.9649999999999998E-002     0.0000000000000000     
  -3.9600000000000003E-002     0.0000000000000000     
  -3.9550000000000002E-002     0.0000000000000000     
  -3.9500000000000000E-002     0.0000000000000000     
  -3.9449999999999999E-002    -1.2639710711708526E-031
  -3.9399999999999998E-002     4.0690345683485364E-030
  -3.9350000000000003E-002     6.7977913789827444E-029
  -3.9300000000000002E-002     4.6156515779473957E-028
  -3.9250000000000000E-002     1.8121944527262598E-027
  -3.9199999999999999E-002     4.2125484422175007E-027
  -3.9150000000000004E-002     3.4909866284437199E-027
  -3.9100000000000003E-002    -1.4405854801557980E-026
  -3.9050000000000001E-002    -7.1263362950604859E-026
  -3.9000000000000000E-002    -1.7285789782045766E-025
  -3.8949999999999999E-002    -2.7496969541712640E-025
  -3.8900000000000004E-002    -2.9951278552331090E-025
  -3.8850000000000003E-002    -2.2765626164168934E-025
  -3.8800000000000001E-002    -3.4113259104472042E-026
  -3.8750000000000000E-002     1.0959843149136764E-024
  -3.8699999999999998E-002     6.3443446390261345E-024
  -3.8650000000000004E-002     2.1416990210969810E-023
  -3.8600000000000002E-002     4.8021842180061880E-023
  -3.8550000000000001E-002     6.6877107028039460E-023
  -3.8500000000000000E-002     1.9328908576569427E-023
  -3.8449999999999998E-002    -1.8123475406266700E-022
  -3.8400000000000004E-002    -5.6857761315596683E-022
  -3.8350000000000002E-002    -9.7622227765631180E-022
  -3.8300000000000001E-002    -9.3061264771767567E-022
  -3.8249999999999999E-002     2.1004278131819672E-022
  -3.8199999999999998E-002     2.7223034455300867E-021
  -3.8150000000000003E-002     5.7619204558782116E-021
  -3.8100000000000002E-002     7.0257258061333777E-021
  -3.8050000000000000E-002     3.6488725925713700E-021
  -3.7999999999999999E-002    -5.4582241010028391E-021
  -3.7949999999999998E-002    -1.7046147995632331E-020
  -3.7900000000000003E-002    -2.3247396399633017E-020
  -3.7850000000000002E-002    -1.5722752324273605E-020
  -3.7800000000000000E-002     6.5778523584807129E-021
  -3.7749999999999999E-002     3.1188356551691643E-020
  -3.7699999999999997E-002     3.4818785427880759E-020
  -3.7650000000000003E-002    -1.1842090378590796E-021
  -3.7600000000000001E-002    -6.8379806953709346E-020
  -3.7550000000000000E-002    -1.1797710109917767E-019
  -3.7499999999999999E-002    -7.5242369161519935E-020
  -3.7449999999999997E-002     1.1239943890360605E-019
  -3.7400000000000003E-002     4.1205642530120970E-019
  -3.7350000000000001E-002     6.6839948692481740E-019
  -3.7300000000000000E-002     6.3777065523653148E-019
  -3.7249999999999998E-002     1.0988233284516952E-019
  -3.7200000000000004E-002    -9.2027339684305553E-019
  -3.7150000000000002E-002    -2.1218738938346354E-018
  -3.7100000000000001E-002    -2.8492138044223422E-018
  -3.7050000000000000E-002    -2.3788738178806433E-018
  -3.6999999999999998E-002    -3.1819307838971590E-019
  -3.6950000000000004E-002     2.9926981446031255E-018
  -3.6900000000000002E-002     6.3425190776322854E-018
  -3.6850000000000001E-002     7.9783352693040352E-018
  -3.6799999999999999E-002     6.3939502334499294E-018
  -3.6749999999999998E-002     1.2671340674894112E-018
  -3.6700000000000003E-002    -5.9825848114291674E-018
  -3.6650000000000002E-002    -1.2488792560572292E-017
  -3.6600000000000001E-002    -1.5157333331914760E-017
  -3.6549999999999999E-002    -1.2287101262787450E-017
  -3.6499999999999998E-002    -4.6449935482030702E-018
  -3.6450000000000003E-002     4.8317848162641467E-018
  -3.6400000000000002E-002     1.2763030868364396E-017
  -3.6350000000000000E-002     1.7477477355512656E-017
  -3.6299999999999999E-002     1.9948778903712759E-017
  -3.6249999999999998E-002     2.2327892066787538E-017
  -3.6200000000000003E-002     2.4497054947624952E-017
  -3.6150000000000002E-002     2.1038275522343547E-017
  -3.6100000000000000E-002     1.9165808508903833E-018
  -3.6049999999999999E-002    -4.1179184044510653E-017
  -3.6000000000000004E-002    -1.0452889729772043E-016
  -3.5950000000000003E-002    -1.6402900254024690E-016
  -3.5900000000000001E-002    -1.7669114709450095E-016
  -3.5850000000000000E-002    -9.7110779269959297E-017
  -3.5799999999999998E-002     9.3750830032697736E-017
  -3.5750000000000004E-002     3.5984820361087121E-016
  -3.5700000000000003E-002     5.9983321258821747E-016
  -3.5650000000000001E-002     6.7073999593216807E-016
  -3.5600000000000000E-002     4.4714339043465248E-016
  -3.5549999999999998E-002    -1.0287141427162952E-016
  -3.5500000000000004E-002    -8.6043356425012323E-016
  -3.5450000000000002E-002    -1.5553232634548885E-015
  -3.5400000000000001E-002    -1.8423907660485028E-015
  -3.5349999999999999E-002    -1.4411198641153675E-015
  -3.5299999999999998E-002    -2.8804385062617169E-016
  -3.5250000000000004E-002     1.3683567421769356E-015
  -3.5200000000000002E-002     2.9901496969891261E-015
  -3.5150000000000001E-002     3.9074606328791124E-015
  -3.5099999999999999E-002     3.5694553968654843E-015
  -3.5049999999999998E-002     1.7970283583472081E-015
  -3.5000000000000003E-002    -1.0705253139213176E-015
  -3.4950000000000002E-002    -4.2121955613965584E-015
  -3.4900000000000000E-002    -6.5547311771118521E-015
  -3.4849999999999999E-002    -7.1261737228883839E-015
  -3.4799999999999998E-002    -5.4104224000231282E-015
  -3.4750000000000003E-002    -1.5740817971925657E-015
  -3.4700000000000002E-002     3.5172978233653384E-015
  -3.4650000000000000E-002     8.4997931385652808E-015
  -3.4599999999999999E-002     1.1861672849895188E-014
  -3.4549999999999997E-002     1.2338447629645724E-014
  -3.4500000000000003E-002     9.2535846677482549E-015
  -3.4450000000000001E-002     2.7441506560701633E-015
  -3.4400000000000000E-002    -6.1497862618236965E-015
  -3.4349999999999999E-002    -1.5538996945194488E-014
  -3.4299999999999997E-002    -2.2905185985507750E-014
  -3.4250000000000003E-002    -2.5531672521406812E-014
  -3.4200000000000001E-002    -2.1173820239451716E-014
  -3.4150000000000000E-002    -8.9138097036000413E-015
  -3.4099999999999998E-002     1.0002083877829539E-014
  -3.4049999999999997E-002     3.1693225327914429E-014
  -3.4000000000000002E-002     4.9941157646147435E-014
  -3.3950000000000001E-002     5.7515612004972120E-014
  -3.3900000000000000E-002     4.8445268445869009E-014
  -3.3849999999999998E-002     2.0677580974595795E-014
  -3.3799999999999997E-002    -2.1833325446229629E-014
  -3.3750000000000002E-002    -6.8683246832951263E-014
  -3.3700000000000001E-002    -1.0494965224501995E-013
  -3.3649999999999999E-002    -1.1544627264037658E-013
  -3.3599999999999998E-002    -9.0253180562683454E-014
  -3.3550000000000003E-002    -2.9659053959579452E-014
  -3.3500000000000002E-002     5.3573223779813768E-014
  -3.3450000000000001E-002     1.3610450860224092E-013
  -3.3399999999999999E-002     1.9021814355266927E-013
  -3.3349999999999998E-002     1.9278797374873491E-013
  -3.3300000000000003E-002     1.3413757374473725E-013
  -3.3250000000000002E-002     2.3499672429443416E-014
  -3.3200000000000000E-002    -1.1139156738183094E-013
  -3.3149999999999999E-002    -2.3115962219663803E-013
  -3.3099999999999997E-002    -2.9637212036160662E-013
  -3.3050000000000003E-002    -2.8027030917339800E-013
  -3.3000000000000002E-002    -1.7839780473170955E-013
  -3.2950000000000000E-002    -1.1750061890067653E-014
  -3.2899999999999999E-002     1.7782951019833903E-013
  -3.2850000000000004E-002     3.3870865620836956E-013
  -3.2800000000000003E-002     4.2360960725551763E-013
  -3.2750000000000001E-002     4.0263396013688165E-013
  -3.2700000000000000E-002     2.7159528163535477E-013
  -3.2649999999999998E-002     5.3788637704738649E-014
  -3.2600000000000004E-002    -2.0467464515596413E-013
  -3.2550000000000003E-002    -4.4433381637696258E-013
  -3.2500000000000001E-002    -6.0442739106953535E-013
  -3.2450000000000000E-002    -6.3551212370220653E-013
  -3.2399999999999998E-002    -5.1109923870731623E-013
  -3.2350000000000004E-002    -2.3687017207045038E-013
  -3.2300000000000002E-002     1.4441149439138208E-013
  -3.2250000000000001E-002     5.5479323810473381E-013
  -3.2199999999999999E-002     8.9226892452003954E-013
  -3.2149999999999998E-002     1.0520048491807127E-012
  -3.2100000000000004E-002     9.5519556361752229E-013
  -3.2050000000000002E-002     5.7889416719066150E-013
  -3.2000000000000001E-002    -2.3124496116170312E-014
  -3.1949999999999999E-002    -7.1872620267578906E-013
  -3.1899999999999998E-002    -1.3212905162279051E-012
  -3.1850000000000003E-002    -1.6374700242877550E-012
  -3.1800000000000002E-002    -1.5276755650099451E-012
  -3.1750000000000000E-002    -9.6063313369715175E-013
  -3.1699999999999999E-002    -4.1554412669858875E-014
  -3.1649999999999998E-002     1.0007125467713902E-012
  -3.1600000000000003E-002     1.8696565524288228E-012
  -3.1550000000000002E-002     2.2869719798889317E-012
  -3.1500000000000000E-002     2.0826021105079132E-012
  -3.1449999999999999E-002     1.2587922401509291E-012
  -3.1399999999999997E-002     4.2037919608490187E-015
  -3.1350000000000003E-002    -1.3504095234107439E-012
  -3.1300000000000001E-002    -2.4239072253863833E-012
  -3.1250000000000000E-002    -2.8962043241389823E-012
  -3.1199999999999999E-002    -2.6044327312744339E-012
  -3.1150000000000001E-002    -1.5935279907190606E-012
  -3.1100000000000003E-002    -1.0606287322562135E-013
  -3.1050000000000001E-002     1.4840222342667025E-012
  -3.1000000000000000E-002     2.7719191220631058E-012
  -3.0949999999999998E-002     3.4261556320452309E-012
  -3.0900000000000000E-002     3.2681756863374237E-012
  -3.0850000000000002E-002     2.3098395675911015E-012
  -3.0800000000000001E-002     7.4560996402569594E-013
  -3.0750000000000000E-002    -1.0920659782140069E-012
  -3.0699999999999998E-002    -2.8001533609298055E-012
  -3.0650000000000000E-002    -3.9818357613452000E-012
  -3.0600000000000002E-002    -4.3230382440717390E-012
  -3.0550000000000001E-002    -3.6613956542744619E-012
  -3.0499999999999999E-002    -2.0390062540551722E-012
  -3.0449999999999998E-002     2.7388495789841372E-013
  -3.0400000000000000E-002     2.7999201555479974E-012
  -3.0350000000000002E-002     4.9321194407346876E-012
  -3.0300000000000001E-002     6.0661473182615060E-012
  -3.0249999999999999E-002     5.7648941093385081E-012
  -3.0200000000000001E-002     3.9122928167293172E-012
  -3.0150000000000000E-002     8.0303205233735839E-013
  -3.0100000000000002E-002    -2.8768088742774895E-012
  -3.0050000000000000E-002    -6.1945091808795186E-012
  -2.9999999999999999E-002    -8.2153996191193772E-012
  -2.9950000000000001E-002    -8.2816914905240274E-012
  -2.9899999999999999E-002    -6.2371740854528832E-012
  -2.9850000000000002E-002    -2.5166800150893400E-012
  -2.9800000000000000E-002     1.9428200830306778E-012
  -2.9749999999999999E-002     5.9550628326860398E-012
  -2.9700000000000001E-002     8.4294578768353214E-012
  -2.9650000000000003E-002     8.7007384492962093E-012
  -2.9600000000000001E-002     6.7363086178611518E-012
  -2.9550000000000000E-002     3.1521190445581084E-012
  -2.9499999999999998E-002    -9.6975567777173807E-013
  -2.9450000000000000E-002    -4.4040121967526198E-012
  -2.9400000000000003E-002    -6.1435812935477653E-012
  -2.9350000000000001E-002    -5.6891861519976756E-012
  -2.9300000000000000E-002    -3.1846261313405297E-012
  -2.9249999999999998E-002     6.3206787192190679E-013
  -2.9200000000000000E-002     4.6346963593541521E-012
  -2.9150000000000002E-002     7.6039559388271769E-012
  -2.9100000000000001E-002     8.5288467709892784E-012
  -2.9049999999999999E-002     6.8440644256841385E-012
  -2.8999999999999998E-002     2.5618377473646977E-012
  -2.8950000000000000E-002    -3.7121600170463432E-012
  -2.8900000000000002E-002    -1.0866718257553271E-011
  -2.8850000000000001E-002    -1.7454678697518346E-011
  -2.8799999999999999E-002    -2.1920077065807956E-011
  -2.8749999999999998E-002    -2.2857004178828863E-011
  -2.8700000000000000E-002    -1.9267056914694288E-011
  -2.8650000000000002E-002    -1.0770460058427010E-011
  -2.8600000000000000E-002     2.2827024549941984E-012
  -2.8549999999999999E-002     1.8849089621995491E-011
  -2.8500000000000001E-002     3.7397721787219844E-011
  -2.8450000000000000E-002     5.6259712835725081E-011
  -2.8400000000000002E-002     7.4045221355846811E-011
  -2.8350000000000000E-002     9.0013080411971878E-011
  -2.8299999999999999E-002     1.0427384218159166E-010
  -2.8250000000000001E-002     1.1774442199274788E-010
  -2.8200000000000003E-002     1.3184464863501185E-010
  -2.8150000000000001E-002     1.4801162253446130E-010
  -2.8100000000000000E-002     1.6717520947748221E-010
  -2.8049999999999999E-002     1.8936275234376633E-010
  -2.8000000000000001E-002     2.1356981084359860E-010
  -2.7950000000000003E-002     2.3795442743167707E-010
  -2.7900000000000001E-002     2.6030999214034282E-010
  -2.7850000000000000E-002     2.7868255727130326E-010
  -2.7799999999999998E-002     2.9194968654427212E-010
  -2.7750000000000000E-002     3.0018961754453672E-010
  -2.7700000000000002E-002     3.0473312075570102E-010
  -2.7650000000000001E-002     3.0788468529509499E-010
  -2.7600000000000000E-002     3.1239410421255288E-010
  -2.7549999999999998E-002     3.2082369010376912E-010
  -2.7500000000000000E-002     3.3497410934969742E-010
  -2.7450000000000002E-002     3.5550501998577135E-010
  -2.7400000000000001E-002     3.8182597286002862E-010
  -2.7349999999999999E-002     4.1226227911881618E-010
  -2.7299999999999998E-002     4.4444002364931019E-010
  -2.7250000000000000E-002     4.7579203588808079E-010
  -2.7200000000000002E-002     5.0407459771421419E-010
  -2.7150000000000001E-002     5.2779047527368846E-010
  -2.7099999999999999E-002     5.4644143230932965E-010
  -2.7049999999999998E-002     5.6056787265664365E-010
  -2.7000000000000000E-002     5.7157541021740646E-010
  -2.6950000000000002E-002     5.8138794118153685E-010
  -2.6900000000000000E-002     5.9200339247984946E-010
  -2.6849999999999999E-002     6.0504857789969906E-010
  -2.6800000000000001E-002     6.2143557183951588E-010
  -2.6749999999999999E-002     6.4120029443247199E-010
  -2.6700000000000002E-002     6.6356411236656460E-010
  -2.6650000000000000E-002     6.8720539619999857E-010
  -2.6599999999999999E-002     7.1067602373057187E-010
  -2.6550000000000001E-002     7.3285599911363095E-010
  -2.6500000000000003E-002     7.5332633847184788E-010
  -2.6450000000000001E-002     7.7255461207371413E-010
  -2.6400000000000000E-002     7.9183346974953787E-010
  -2.6349999999999998E-002     8.1297418926200309E-010
  -2.6300000000000000E-002     8.3782353184505729E-010
  -2.6250000000000002E-002     8.6772601607187449E-010
  -2.6200000000000001E-002     9.0307649900270356E-010
  -2.6150000000000000E-002     9.4309380746775686E-010
  -2.6099999999999998E-002     9.8589557725675376E-010
  -2.6050000000000000E-002     1.0288748145374977E-009
  -2.6000000000000002E-002     1.0692981898883410E-009
  -2.5950000000000001E-002     1.1049807401353528E-009
  -2.5899999999999999E-002     1.1348613564836625E-009
  -2.5849999999999998E-002     1.1593271692534244E-009
  -2.5800000000000000E-002     1.1801962455367416E-009
  -2.5750000000000002E-002     1.2003549139087746E-009
  -2.5700000000000001E-002     1.2231376383847191E-009
  -2.5649999999999999E-002     1.2516028686149984E-009
  -2.5599999999999998E-002     1.2878802545939055E-009
  -2.5550000000000000E-002     1.3327433878183298E-009
  -2.5500000000000002E-002     1.3854977290687016E-009
  -2.5450000000000000E-002     1.4441942811827750E-009
  -2.5399999999999999E-002     1.5060995833729909E-009
  -2.5349999999999998E-002     1.5683010484040968E-009
  -2.5300000000000000E-002     1.6283024200547489E-009
  -2.5250000000000002E-002     1.6844801995793816E-009
  -2.5200000000000000E-002     1.7363155813467140E-009
  -2.5149999999999999E-002     1.7843706527700901E-009
  -2.5100000000000001E-002     1.8300436328009554E-009
  -2.5049999999999999E-002     1.8751790411129827E-009
  -2.5000000000000001E-002     1.9216418298244529E-009
  -2.4950000000000000E-002     1.9709546401735761E-009
  -2.4899999999999999E-002     2.0240755893182480E-009
  -2.4850000000000001E-002     2.0813470676408205E-009
  -2.4800000000000003E-002     2.1426036451378075E-009
  -2.4750000000000001E-002     2.2073846196332018E-009
  -2.4700000000000000E-002     2.2751873308629067E-009
  -2.4649999999999998E-002     2.3456924712655235E-009
  -2.4600000000000000E-002     2.4189107173805632E-009
  -2.4550000000000002E-002     2.4952327934713504E-009
  -2.4500000000000001E-002     2.5753728967953555E-009
  -2.4450000000000000E-002     2.6602148500206557E-009
  -2.4399999999999998E-002     2.7505776353734412E-009
  -2.4350000000000000E-002     2.8469348384197540E-009
  -2.4299999999999999E-002     2.9491457409004257E-009
  -2.4250000000000001E-002     3.0562710631588228E-009
  -2.4199999999999999E-002     3.1665558228005505E-009
  -2.4150000000000001E-002     3.2776340444877516E-009
  -2.4100000000000000E-002     3.3869582541056621E-009
  -2.4049999999999998E-002     3.4923811142582229E-009
  -2.4000000000000000E-002     3.5927416855490280E-009
  -2.3949999999999999E-002     3.6882765185931914E-009
  -2.3900000000000001E-002     3.7807051323772268E-009
  -2.3850000000000000E-002     3.8729305165754855E-009
  -2.3800000000000002E-002     3.9684266798657521E-009
  -2.3750000000000000E-002     4.0704781012280005E-009
  -2.3699999999999999E-002     4.1815042609052520E-009
  -2.3650000000000001E-002     4.3026468684917827E-009
  -2.3599999999999999E-002     4.4337207034910931E-009
  -2.3550000000000001E-002     4.5734893427110452E-009
  -2.3500000000000000E-002     4.7201357708802039E-009
  -2.3449999999999999E-002     4.8717622923302185E-009
  -2.3400000000000001E-002     5.0267741729826418E-009
  -2.3349999999999999E-002     5.1840836691764600E-009
  -2.3300000000000001E-002     5.3431515345138337E-009
  -2.3250000000000000E-002     5.5039352191184965E-009
  -2.3199999999999998E-002     5.6668218097430211E-009
  -2.3150000000000000E-002     5.8325857924501475E-009
  -2.3099999999999999E-002     6.0023597993059031E-009
  -2.3050000000000001E-002     6.1775640263645349E-009
  -2.3000000000000000E-002     6.3597554349021532E-009
  -2.2950000000000002E-002     6.5503947154399672E-009
  -2.2900000000000000E-002     6.7505743932128081E-009
  -2.2849999999999999E-002     6.9608005997116791E-009
  -2.2800000000000001E-002     7.1809080003569205E-009
  -2.2749999999999999E-002     7.4101535579689769E-009
  -2.2700000000000001E-002     7.6474672692697165E-009
  -2.2650000000000000E-002     7.8917606558738867E-009
  -2.2599999999999999E-002     8.1421832343692054E-009
  -2.2550000000000001E-002     8.3982363937894877E-009
  -2.2499999999999999E-002     8.6596966125514719E-009
  -2.2450000000000001E-002     8.9263954304080232E-009
  -2.2400000000000000E-002     9.1979552020847463E-009
  -2.2349999999999998E-002     9.4736051423710605E-009
  -2.2300000000000000E-002     9.7521693729882794E-009
  -2.2249999999999999E-002     1.0032241372216761E-008
  -2.2200000000000001E-002     1.0312523248178206E-008
  -2.2150000000000000E-002     1.0592186975801516E-008
  -2.2100000000000002E-002     1.0871178262036970E-008
  -2.2050000000000000E-002     1.1150366202486993E-008
  -2.1999999999999999E-002     1.1431516624260851E-008
  -2.1950000000000001E-002     1.1717109220718572E-008
  -2.1899999999999999E-002     1.2010064227905716E-008
  -2.1850000000000001E-002     1.2313439000691381E-008
  -2.1800000000000000E-002     1.2630168856119780E-008
  -2.1749999999999999E-002     1.2962858777762890E-008
  -2.1700000000000001E-002     1.3313648804625101E-008
  -2.1649999999999999E-002     1.3684119026351701E-008
  -2.1600000000000001E-002     1.4075255028382172E-008
  -2.1550000000000000E-002     1.4487434375092598E-008
  -2.1499999999999998E-002     1.4920499556966495E-008
  -2.1450000000000000E-002     1.5373884512038628E-008
  -2.1399999999999999E-002     1.5846801080445683E-008
  -2.1350000000000001E-002     1.6338448199151430E-008
  -2.1299999999999999E-002     1.6848192470801917E-008
  -2.1250000000000002E-002     1.7375681561238582E-008
  -2.1200000000000000E-002     1.7920828775775318E-008
  -2.1149999999999999E-002     1.8483701115635266E-008
  -2.1100000000000001E-002     1.9064308833537598E-008
  -2.1049999999999999E-002     1.9662379264590255E-008
  -2.1000000000000001E-002     2.0277158488963077E-008
  -2.0950000000000000E-002     2.0907270052282847E-008
  -2.0899999999999998E-002     2.1550676025221433E-008
  -2.0850000000000000E-002     2.2204736656211646E-008
  -2.0799999999999999E-002     2.2866411132636760E-008
  -2.0750000000000001E-002     2.3532539120663706E-008
  -2.0700000000000000E-002     2.4200223564997948E-008
  -2.0649999999999998E-002     2.4867225974637993E-008
  -2.0600000000000000E-002     2.5532302126943673E-008
  -2.0549999999999999E-002     2.6195397792143626E-008
  -2.0500000000000001E-002     2.6857632019860550E-008
  -2.0449999999999999E-002     2.7521085872350950E-008
  -2.0400000000000001E-002     2.8188414604792774E-008
  -2.0350000000000000E-002     2.8862500941403281E-008
  -2.0299999999999999E-002     2.9546218219012732E-008
  -2.0250000000000001E-002     3.0242447133233631E-008
  -2.0199999999999999E-002     3.0954307773975445E-008
  -2.0150000000000001E-002     3.1685537585080714E-008
  -2.0100000000000000E-002     3.2440774056265930E-008
  -2.0049999999999998E-002     3.3225652326925830E-008
  -2.0000000000000000E-002     3.4046634533175910E-008
  -1.9949999999999999E-002     3.4910584635914075E-008
  -1.9900000000000001E-002     3.5824260618274343E-008
  -1.9850000000000000E-002     3.6793858026334088E-008
  -1.9799999999999998E-002     3.7824707530341310E-008
  -1.9750000000000000E-002     3.8921217540654620E-008
  -1.9699999999999999E-002     4.0086930941246825E-008
  -1.9650000000000001E-002     4.1324578997356452E-008
  -1.9599999999999999E-002     4.2636090594227581E-008
  -1.9550000000000001E-002     4.4022493523938871E-008
  -1.9500000000000000E-002     4.5483735214135108E-008
  -1.9449999999999999E-002     4.7018540605973344E-008
  -1.9400000000000001E-002     4.8624461209576443E-008
  -1.9349999999999999E-002     5.0298096185038141E-008
  -1.9300000000000001E-002     5.2035443281914807E-008
  -1.9250000000000000E-002     5.3832200754220622E-008
  -1.9199999999999998E-002     5.5683938295646723E-008
  -1.9150000000000000E-002     5.7586087607254300E-008
  -1.9099999999999999E-002     5.9533714999980764E-008
  -1.9050000000000001E-002     6.1521208338178485E-008
  -1.9000000000000000E-002     6.3542136702591560E-008
  -1.8949999999999998E-002     6.5589414171786738E-008
  -1.8900000000000000E-002     6.7655760110033666E-008
  -1.8849999999999999E-002     6.9734445270419564E-008
  -1.8800000000000001E-002     7.1820067327926022E-008
  -1.8749999999999999E-002     7.3909115410983957E-008
  -1.8700000000000001E-002     7.6000059054511038E-008
  -1.8650000000000000E-002     7.8093066149805782E-008
  -1.8599999999999998E-002     8.0189369849229746E-008
  -1.8550000000000001E-002     8.2290675889919567E-008
  -1.8499999999999999E-002     8.4398765318193679E-008
  -1.8450000000000001E-002     8.6515443114111507E-008
  -1.8400000000000000E-002     8.8642700672440589E-008
  -1.8349999999999998E-002     9.0782967871182345E-008
  -1.8300000000000000E-002     9.2939188118837561E-008
  -1.8249999999999999E-002     9.5114740849853592E-008
  -1.8200000000000001E-002     9.7313171436234704E-008
  -1.8149999999999999E-002     9.9537922469579273E-008
  -1.8100000000000002E-002     1.0179202753765396E-007
  -1.8050000000000000E-002     1.0407818184344482E-007
  -1.7999999999999999E-002     1.0639899775268794E-007
  -1.7950000000000001E-002     1.0875752026630409E-007
  -1.7899999999999999E-002     1.1115759839023281E-007
  -1.7850000000000001E-002     1.1360401661757884E-007
  -1.7800000000000000E-002     1.1610207534987723E-007
  -1.7749999999999998E-002     1.1865685552013520E-007
  -1.7700000000000000E-002     1.2127262002139859E-007
  -1.7649999999999999E-002     1.2395225562277639E-007
  -1.7600000000000001E-002     1.2669728351664789E-007
  -1.7550000000000000E-002     1.2950808141531063E-007
  -1.7499999999999998E-002     1.3238426231779541E-007
  -1.7450000000000000E-002     1.3532520740872705E-007
  -1.7399999999999999E-002     1.3833031858187533E-007
  -1.7350000000000001E-002     1.4139917821367697E-007
  -1.7299999999999999E-002     1.4453170669128813E-007
  -1.7250000000000001E-002     1.4772803861148784E-007
  -1.7200000000000000E-002     1.5098863210898653E-007
  -1.7149999999999999E-002     1.5431455710012567E-007
  -1.7100000000000001E-002     1.5770786473197197E-007
  -1.7049999999999999E-002     1.6117200224091292E-007
  -1.7000000000000001E-002     1.6471198317818242E-007
  -1.6950000000000000E-002     1.6833419899392244E-007
  -1.6899999999999998E-002     1.7204589254362716E-007
  -1.6850000000000000E-002     1.7585452492786549E-007
  -1.6799999999999999E-002     1.7976711971310736E-007
  -1.6750000000000001E-002     1.8378985922012798E-007
  -1.6700000000000000E-002     1.8792798763751423E-007
  -1.6649999999999998E-002     1.9218591625183807E-007
  -1.6600000000000000E-002     1.9656744576104975E-007
  -1.6549999999999999E-002     2.0107579646557737E-007
  -1.6500000000000001E-002     2.0571354345480528E-007
  -1.6449999999999999E-002     2.1048243474345559E-007
  -1.6400000000000001E-002     2.1538315394090708E-007
  -1.6350000000000000E-002     2.2041511537901731E-007
  -1.6299999999999999E-002     2.2557645453414627E-007
  -1.6250000000000001E-002     2.3086405444781079E-007
  -1.6199999999999999E-002     2.3627407454048505E-007
  -1.6150000000000001E-002     2.4180243882738539E-007
  -1.6100000000000000E-002     2.4744539321938336E-007
  -1.6049999999999998E-002     2.5320015449158329E-007
  -1.6000000000000000E-002     2.5906513259878932E-007
  -1.5949999999999999E-002     2.6503993706217977E-007
  -1.5900000000000001E-002     2.7112475375761776E-007
  -1.5850000000000000E-002     2.7731991961581711E-007
  -1.5799999999999998E-002     2.8362571341135130E-007
  -1.5750000000000000E-002     2.9004220598314974E-007
  -1.5699999999999999E-002     2.9656921565951179E-007
  -1.5650000000000001E-002     3.0320675467407205E-007
  -1.5599999999999999E-002     3.0995507826646089E-007
  -1.5550000000000001E-002     3.1681507496710296E-007
  -1.5500000000000000E-002     3.2378824751000458E-007
  -1.5449999999999998E-002     3.3087687114103388E-007
  -1.5400000000000000E-002     3.3808381970247826E-007
  -1.5349999999999999E-002     3.4541274566072771E-007
  -1.5300000000000001E-002     3.5286814079165699E-007
  -1.5250000000000000E-002     3.6045542271898449E-007
  -1.5199999999999998E-002     3.6818104214232311E-007
  -1.5150000000000000E-002     3.7605277083406972E-007
  -1.5099999999999999E-002     3.8407992949038463E-007
  -1.5050000000000001E-002     3.9227298518800773E-007
  -1.4999999999999999E-002     4.0064283314548370E-007
  -1.4949999999999998E-002     4.0920005946437209E-007
  -1.4900000000000000E-002     4.1795432058991923E-007
  -1.4849999999999999E-002     4.2691379971503956E-007
  -1.4800000000000001E-002     4.3608490815898728E-007
  -1.4749999999999999E-002     4.4547191460882472E-007
  -1.4700000000000001E-002     4.5507702055303137E-007
  -1.4650000000000000E-002     4.6490063567365935E-007
  -1.4599999999999998E-002     4.7494195515359941E-007
  -1.4550000000000000E-002     4.8519940163308119E-007
  -1.4499999999999999E-002     4.9567112079334326E-007
  -1.4450000000000001E-002     5.0635477874507432E-007
  -1.4400000000000000E-002     5.1724721933973631E-007
  -1.4349999999999998E-002     5.2834505980075759E-007
  -1.4300000000000000E-002     5.3964492572444029E-007
  -1.4249999999999999E-002     5.5114440508337360E-007
  -1.4200000000000001E-002     5.6284262191904087E-007
  -1.4149999999999999E-002     5.7474109693185830E-007
  -1.4099999999999998E-002     5.8684357616140873E-007
  -1.4050000000000000E-002     5.9915612136238387E-007
  -1.3999999999999999E-002     6.1168623677658612E-007
  -1.3950000000000001E-002     6.2444193343801818E-007
  -1.3899999999999999E-002     6.3743098008085900E-007
  -1.3850000000000001E-002     6.5065985371778326E-007
  -1.3800000000000000E-002     6.6413316762183723E-007
  -1.3749999999999998E-002     6.7785443973006141E-007
  -1.3700000000000000E-002     6.9182658636612488E-007
  -1.3649999999999999E-002     7.0605346485950833E-007
  -1.3600000000000001E-002     7.2053926475792577E-007
  -1.3550000000000000E-002     7.3528793641702782E-007
  -1.3499999999999998E-002     7.5030293932296033E-007
  -1.3450000000000000E-002     7.6558783333773611E-007
  -1.3399999999999999E-002     7.8114670215580412E-007
  -1.3350000000000001E-002     7.9698391985129496E-007
  -1.3299999999999999E-002     8.1310497868336559E-007
  -1.3249999999999998E-002     8.2951603470744636E-007
  -1.3200000000000000E-002     8.4622501746010391E-007
  -1.3149999999999998E-002     8.6324090151933398E-007
  -1.3100000000000001E-002     8.8057337961449994E-007
  -1.3049999999999999E-002     8.9823132613924593E-007
  -1.3000000000000001E-002     9.1622099730754861E-007
  -1.2950000000000000E-002     9.3454520326085023E-007
  -1.2899999999999998E-002     9.5320392091635546E-007
  -1.2850000000000000E-002     9.7219542241609932E-007
  -1.2799999999999999E-002     9.9151769176784920E-007