  -4.0000000000000001E-002     0.0000000000000000     
  -3.9949999999999999E-002     0.0000000000000000     
  -3.9899999999999998E-002     0.0000000000000000     
  -3.9850000000000003E-002     0.0000000000000000     
  -3.9800000000000002E-002     0.0000000000000000     
  -3.9750000000000001E-002     0.0000000000000000     
  -3.9699999999999999E-002     0.0000000000000000     
  -3.9649999999999998E-002     0.0000000000000000     
  -3.9600000000000003E-002     0.0000000000000000     
  -3.9550000000000002E-002     0.0000000000000000     
  -3.9500000000000000E-002     0.0000000000000000     
  -3.9449999999999999E-002     0.0000000000000000     
  -3.9399999999999998E-002     0.0000000000000000     
  -3.9350000000000003E-002     0.0000000000000000     
  -3.9300000000000002E-002     2.4226840074295974E-038
  -3.9250000000000000E-002     1.1135882318432458E-036
  -3.9199999999999999E-002     2.2947061212486328E-035
  -3.9150000000000004E-002     2.6080363549735422E-034
  -3.9100000000000003E-002     1.8925064461198042E-033
  -3.9050000000000001E-002     9.4375760480245049E-033
  -3.9000000000000000E-002     3.2605012670676935E-032
  -3.8949999999999999E-002     6.9204253446916753E-032
  -3.8900000000000004E-002     1.2776906260520873E-032
  -3.8850000000000003E-002    -5.8874929352585616E-031
  -3.8800000000000001E-002    -2.8169464615403497E-030
  -3.8750000000000000E-002    -7.9404999633216318E-030
  -3.8699999999999998E-002    -1.4407600971169733E-029
  -3.8650000000000004E-002    -1.0421381488262237E-029
  -3.8600000000000002E-002     3.5263555601162179E-029
  -3.8550000000000001E-002     1.6974341350669508E-028
  -3.8500000000000000E-002     4.1075912995485442E-028
  -3.8449999999999998E-002     6.3644004410860415E-028
  -3.8400000000000004E-002     4.4489217346488925E-028
  -3.8350000000000002E-002    -8.6134255298770863E-028
  -3.8300000000000001E-002    -3.9038096208570906E-027
  -3.8249999999999999E-002    -8.2937619526834971E-027
  -3.8199999999999998E-002    -1.1417136996758102E-026
  -3.8150000000000003E-002    -7.9688259276068529E-027
  -3.8100000000000002E-002     8.2720537525520615E-027
  -3.8050000000000000E-002     3.9667200016706994E-026
  -3.7999999999999999E-002     7.8556030659383191E-026
  -3.7949999999999998E-002     1.0423017612597045E-025
  -3.7900000000000003E-002     8.8194051324283285E-026
  -3.7850000000000002E-002     8.4553769677074579E-027
  -3.7800000000000000E-002    -1.3496162314971943E-025
  -3.7749999999999999E-002    -3.1698356322737452E-025
  -3.7699999999999997E-002    -5.0419408915550085E-025
  -3.7650000000000003E-002    -6.7681754411204397E-025
  -3.7600000000000001E-002    -8.1848048097864618E-025
  -3.7550000000000000E-002    -8.4169768393076194E-025
  -3.7499999999999999E-002    -4.7497130497775109E-025
  -3.7449999999999997E-002     7.6851357909187406E-025
  -3.7400000000000003E-002     3.3665182588913904E-024
  -3.7350000000000001E-002     7.2250891346290657E-024
  -3.7300000000000000E-002     1.0977929730462039E-023
  -3.7249999999999998E-002     1.1707375814595674E-023
  -3.7200000000000004E-002     5.7857890478950526E-024
  -3.7150000000000002E-002    -8.8778677899140947E-024
  -3.7100000000000001E-002    -2.9944568880810282E-023
  -3.7050000000000000E-002    -4.9074938908676164E-023
  -3.6999999999999998E-002    -5.4044431201360756E-023
  -3.6950000000000004E-002    -3.5464209351017494E-023
  -3.6900000000000002E-002     4.3800042283521023E-024
  -3.6850000000000001E-002     4.6872578654704862E-023
  -3.6799999999999999E-002     6.3958522250098922E-023
  -3.6749999999999998E-002     3.9099378955716424E-023
  -3.6700000000000003E-002    -6.2389670149875451E-024
  -3.6650000000000002E-002    -1.3124481782436531E-024
  -3.6600000000000001E-002     1.4589762600033122E-022
  -3.6549999999999999E-002     4.7293224356485283E-022
  -3.6499999999999998E-002     8.6650674621616012E-022
  -3.6450000000000003E-002     1.0129788771650403E-021
  -3.6400000000000002E-002     4.7721958908358138E-022
  -3.6350000000000000E-002    -1.0512268040941151E-021
  -3.6299999999999999E-002    -3.4104459384416101E-021
  -3.6249999999999998E-002    -5.7073333224540140E-021
  -3.6200000000000003E-002    -6.3980338995495078E-021
  -3.6150000000000002E-002    -3.8679590576530293E-021
  -3.6100000000000000E-002     2.5872182178554382E-021
  -3.6049999999999999E-002     1.1806213157342046E-020
  -3.6000000000000004E-002     2.0453378783529447E-020
  -3.5950000000000003E-002     2.3836864997449993E-020
  -3.5900000000000001E-002     1.7813643459015559E-020
  -3.5850000000000000E-002     1.0577157716149133E-021
  -3.5799999999999998E-002    -2.3457650078066860E-020
  -3.5750000000000004E-002    -4.8697455320133394E-020
  -3.5700000000000003E-002    -6.5573751608604356E-020
  -3.5650000000000001E-002    -6.5719511120642144E-020
  -3.5600000000000000E-002    -4.3593428641179139E-020
  -3.5549999999999998E-002     2.7644642816519013E-021
  -3.5500000000000004E-002     7.1378456947531933E-020
  -3.5450000000000002E-002     1.5425569846127657E-019
  -3.5400000000000001E-002     2.3235676518603979E-019
  -3.5349999999999999E-002     2.6999720275266098E-019
  -3.5299999999999998E-002     2.1569277172259989E-019
  -3.5250000000000004E-002     1.8253804061959098E-020
  -3.5200000000000002E-002    -3.3820584689699326E-019
  -3.5150000000000001E-002    -7.8970970556159665E-019
  -3.5099999999999999E-002    -1.1636246822828776E-018
  -3.5049999999999998E-002    -1.1992740612326929E-018
  -3.5000000000000003E-002    -6.4095579102536651E-019
  -3.4950000000000002E-002     6.0740607321583084E-019
  -3.4900000000000000E-002     2.3238301224082742E-018
  -3.4849999999999999E-002     3.9001900367104308E-018
  -3.4799999999999998E-002     4.4550584993845087E-018
  -3.4750000000000003E-002     3.1575984478752785E-018
  -3.4700000000000002E-002    -3.1395578644702440E-019
  -3.4650000000000000E-002    -5.3650689238466975E-018
  -3.4599999999999999E-002    -1.0365180640100070E-017
  -3.4549999999999997E-002    -1.2993166717952287E-017
  -3.4500000000000003E-002    -1.1052551965304053E-017
  -3.4450000000000001E-002    -3.5289403108187566E-018
  -3.4400000000000000E-002     8.5263793870536161E-018
  -3.4349999999999999E-002     2.1742059099131002E-017
  -3.4299999999999997E-002     3.1093450342346169E-017
  -3.4250000000000003E-002     3.1451823230660673E-017
  -3.4200000000000001E-002     1.9600429123852338E-017
  -3.4150000000000000E-002    -3.9653454199822856E-018
  -3.4099999999999998E-002    -3.4173588164695866E-017
  -3.4049999999999997E-002    -6.1946622872129594E-017
  -3.4000000000000002E-002    -7.6301600531584729E-017
  -3.3950000000000001E-002    -6.7618849507691963E-017
  -3.3900000000000000E-002    -3.1329467874025603E-017
  -3.3849999999999998E-002     2.8973028708007229E-017
  -3.3799999999999997E-002     1.0007899718500953E-016
  -3.3750000000000002E-002     1.6034848946966741E-016
  -3.3700000000000001E-002     1.8415206791877977E-016
  -3.3649999999999999E-002     1.4943693039200550E-016
  -3.3599999999999998E-002     4.7126416332725383E-017
  -3.3550000000000003E-002    -1.1031743038563123E-016
  -3.3500000000000002E-002    -2.8490805219420939E-016
  -3.3450000000000001E-002    -4.1746059756220930E-016
  -3.3399999999999999E-002    -4.4222444166406767E-016
  -3.3349999999999998E-002    -3.1023305966037236E-016
  -3.3300000000000003E-002    -1.5203603836633614E-017
  -3.3250000000000002E-002     3.8797024038736386E-016
  -3.3200000000000000E-002     7.8288726417764237E-016
  -3.3149999999999999E-002     1.0164077433122314E-015
  -3.3099999999999997E-002     9.4705048278448985E-016
  -3.3050000000000003E-002     5.0479459189966435E-016
  -3.3000000000000002E-002    -2.5887230388382353E-016
  -3.2950000000000000E-002    -1.1543050493179620E-015
  -3.2899999999999999E-002    -1.8870853580467777E-015
  -3.2850000000000004E-002    -2.1419607387480372E-015
  -3.2800000000000003E-002    -1.6972539784331343E-015
  -3.2750000000000001E-002    -5.3226486442244062E-016
  -3.2700000000000000E-002     1.1158621176643430E-015
  -3.2649999999999998E-002     2.7790762219770090E-015
  -3.2600000000000004E-002     3.8768074826080298E-015
  -3.2550000000000003E-002     3.8999600737103106E-015
  -3.2500000000000001E-002     2.6053338617780477E-015
  -3.2450000000000000E-002     1.5220687847375835E-016
  -3.2399999999999998E-002    -2.8768146452437397E-015
  -3.2350000000000004E-002    -5.5957768396227866E-015
  -3.2300000000000002E-002    -7.0558712913790399E-015
  -3.2250000000000001E-002    -6.5431844846164629E-015
  -3.2199999999999999E-002    -3.8450182609057131E-015
  -3.2149999999999998E-002     6.0255715327345326E-016
  -3.2100000000000004E-002     5.7448309626675384E-015
  -3.2050000000000002E-002     1.0128065217067354E-014
  -3.2000000000000001E-002     1.2268032765367836E-014
  -3.1949999999999999E-002     1.1082991510655245E-014
  -3.1899999999999998E-002     6.2811597116787139E-015
  -3.1850000000000003E-002    -1.4091453129383989E-015
  -3.1800000000000002E-002    -1.0255768356674770E-014
  -3.1750000000000000E-002    -1.7828267591190507E-014
  -3.1699999999999999E-002    -2.1569667049278367E-014
  -3.1649999999999998E-002    -1.9533258917286016E-014
  -3.1600000000000003E-002    -1.1108742349503154E-014
  -3.1550000000000002E-002     2.4855132220417273E-015
  -3.1500000000000000E-002     1.8160149116096672E-014
  -3.1449999999999999E-002     3.1496306334339460E-014
  -3.1399999999999997E-002     3.7848024871461130E-014
  -3.1350000000000003E-002     3.3783284585230193E-014
  -3.1300000000000001E-002     1.8461702269686919E-014
  -3.1250000000000000E-002    -5.5368179952525320E-015
  -3.1199999999999999E-002    -3.2344618157715868E-014
  -3.1150000000000001E-002    -5.4066613959506187E-014
  -3.1100000000000003E-002    -6.2969755726247824E-014
  -3.1050000000000001E-002    -5.4030967460538284E-014
  -3.1000000000000000E-002    -2.7036340958645330E-014
  -3.0949999999999998E-002     1.2560889400235167E-014
  -3.0900000000000000E-002     5.4510933854508246E-014
  -3.0850000000000002E-002     8.6327208825682402E-014
  -3.0800000000000001E-002     9.6911426612561912E-014
  -3.0750000000000000E-002     8.0185021650012554E-014
  -3.0699999999999998E-002     3.7555047430212497E-014
  -3.0650000000000000E-002    -2.1680579134209624E-014
  -3.0600000000000002E-002    -8.2288014326824732E-014
  -3.0550000000000001E-002    -1.2698714776117728E-013
  -3.0499999999999999E-002    -1.4123761771604859E-013
  -3.0449999999999998E-002    -1.1758227718586078E-013
  -3.0400000000000000E-002    -5.8310520257945248E-014
  -3.0350000000000002E-002     2.4342173566796946E-014
  -3.0300000000000001E-002     1.1059487677962411E-013
  -3.0249999999999999E-002     1.7761293886998542E-013
  -3.0200000000000001E-002     2.0509737662557147E-013
  -3.0150000000000000E-002     1.8073301971296451E-013
  -3.0100000000000002E-002     1.0424797578637475E-013
  -3.0050000000000000E-002    -1.0971587064010119E-014
  -2.9999999999999999E-002    -1.3940330383219164E-013
  -2.9950000000000001E-002    -2.4820091563033256E-013
  -2.9899999999999999E-002    -3.0473885133117636E-013
  -2.9850000000000002E-002    -2.8551064862916254E-013
  -2.9800000000000000E-002    -1.8425825538490695E-013
  -2.9749999999999999E-002    -1.6830766773817382E-014
  -2.9700000000000001E-002     1.7942896802072052E-013
  -2.9650000000000003E-002     3.5282955592817865E-013
  -2.9600000000000001E-002     4.5020640016090354E-013
  -2.9550000000000000E-002     4.3262707505733241E-013
  -2.9499999999999998E-002     2.8942506822282563E-013
  -2.9450000000000000E-002     4.5701212275929648E-014
  -2.9400000000000003E-002    -2.4025955500783369E-013
  -2.9350000000000001E-002    -4.9038219932204989E-013
  -2.9300000000000000E-002    -6.2816827205354323E-013
  -2.9249999999999998E-002    -6.0210595744200163E-013
  -2.9200000000000000E-002    -4.0378725866436049E-013
  -2.9150000000000002E-002    -7.4393340555400427E-014
  -2.9100000000000001E-002     3.0350391752661649E-013
  -2.9049999999999999E-002     6.2728687136174913E-013
  -2.8999999999999998E-002     8.0290704176660191E-013
  -2.8950000000000000E-002     7.7233611938216248E-013
  -2.8900000000000002E-002     5.3158104132534454E-013
  -2.8850000000000001E-002     1.3382202355940901E-013
  -2.8799999999999999E-002    -3.2326492023707318E-013
  -2.8749999999999998E-002    -7.2232365915255535E-013
  -2.8700000000000000E-002    -9.5636304701185943E-013
  -2.8650000000000002E-002    -9.5614642754135721E-013
  -2.8600000000000000E-002    -7.0831507868313087E-013
  -2.8549999999999999E-002    -2.6039448190338708E-013
  -2.8500000000000001E-002     2.8799649335436632E-013
  -2.8450000000000000E-002     8.0570745815166930E-013
  -2.8400000000000002E-002     1.1584882519726703E-012
  -2.8350000000000000E-002     1.2402216727364416E-012
  -2.8299999999999999E-002     1.0011314217258449E-012
  -2.8250000000000001E-002     4.6674244625009411E-013
  -2.8200000000000003E-002    -2.5826144568769045E-013
  -2.8150000000000001E-002    -1.0053140183669196E-012
  -2.8100000000000000E-002    -1.5766203871100157E-012
  -2.8049999999999999E-002    -1.7939746310425779E-012
  -2.8000000000000001E-002    -1.5507629734989148E-012
  -2.7950000000000003E-002    -8.5231635898823749E-013
  -2.7900000000000001E-002     1.6995235523855395E-013
  -2.7850000000000000E-002     1.2796416251878709E-012
  -2.7799999999999998E-002     2.1906799891117724E-012
  -2.7750000000000000E-002     2.6442306698575089E-012
  -2.7700000000000002E-002     2.4854435523268780E-012
  -2.7650000000000001E-002     1.7156269366622982E-012
  -2.7600000000000000E-002     5.0102585876194463E-013
  -2.7549999999999998E-002    -8.6776721824985972E-013
  -2.7500000000000000E-002    -2.0557288435058570E-012
  -2.7450000000000002E-002    -2.7790335438186374E-012
  -2.7400000000000001E-002    -2.8867004689642619E-012
  -2.7349999999999999E-002    -2.4024785283878301E-012
  -2.7299999999999998E-002    -1.5138932817050275E-012
  -2.7250000000000000E-002    -5.1241294919950628E-013
  -2.7200000000000002E-002     2.9598880286700108E-013
  -2.7150000000000001E-002     6.8219607775999193E-013
  -2.7099999999999999E-002     5.6051836262005043E-013
  -2.7049999999999998E-002     1.2906825782767696E-014
  -2.7000000000000000E-002    -7.3332089223650491E-013
  -2.6950000000000002E-002    -1.3656582525527305E-012
  -2.6900000000000000E-002    -1.5676875654800829E-012
  -2.6849999999999999E-002    -1.1023214340311029E-012
  -2.6800000000000001E-002     1.1973496565988000E-013
  -2.6749999999999999E-002     1.9984358569959194E-012
  -2.6700000000000002E-002     4.2373309162732237E-012
  -2.6650000000000000E-002     6.3747500580994651E-012
  -2.6599999999999999E-002     7.8530504985863910E-012
  -2.6550000000000001E-002     8.1201272168548091E-012
  -2.6500000000000003E-002     6.7495036076970831E-012
  -2.6450000000000001E-002     3.5568210393206180E-012
  -2.6400000000000000E-002    -1.3151609691984500E-012
  -2.6349999999999998E-002    -7.3694570875483205E-012
  -2.6300000000000000E-002    -1.3801135889090570E-011
  -2.6250000000000002E-002    -1.9613262755639852E-011
  -2.6200000000000001E-002    -2.3776680367650298E-011
  -2.6150000000000000E-002    -2.5390882613139465E-011
  -2.6099999999999998E-002    -2.3798913057372443E-011
  -2.6050000000000000E-002    -1.8621244039479279E-011
  -2.6000000000000002E-002    -9.6993020287999543E-012
  -2.5950000000000001E-002     3.0293303634098597E-012
  -2.5899999999999999E-002     1.9676706725314495E-011
  -2.5849999999999998E-002     4.0514197960761632E-011
  -2.5800000000000000E-002     6.5999541765320497E-011
  -2.5750000000000002E-002     9.6702635134068156E-011
  -2.5700000000000001E-002     1.3314661587001096E-010
  -2.5649999999999999E-002     1.7561113901436631E-010
  -2.5599999999999998E-002     2.2395916848658251E-010
  -2.5550000000000000E-002     2.7754270126877128E-010
  -2.5500000000000002E-002     3.3521927797492140E-010
  -2.5450000000000000E-002     3.9547859820880504E-010
  -2.5399999999999999E-002     4.5664957981169090E-010
  -2.5349999999999998E-002     5.1713970745426966E-010
  -2.5300000000000000E-002     5.7565603281931665E-010
  -2.5250000000000002E-002     6.3136859751137008E-010
  -2.5200000000000000E-002     6.8399325152033577E-010
  -2.5149999999999999E-002     7.3379021794470180E-010
  -2.5100000000000001E-002     7.8148704063539921E-010
  -2.5049999999999999E-002     8.2814210142112705E-010
  -2.5000000000000001E-002     8.7497000847501972E-010
  -2.4950000000000000E-002     9.2315289716486374E-010
  -2.4899999999999999E-002     9.7366529250507463E-010
  -2.4850000000000001E-002     1.0271431513144913E-009
  -2.4800000000000003E-002     1.0838221806460288E-009
  -2.4750000000000001E-002     1.1435619286865413E-009
  -2.4700000000000000E-002     1.2059495798420002E-009
  -2.4649999999999998E-002     1.2704557405390248E-009
  -2.4600000000000000E-002     1.3365981004959559E-009
  -2.4550000000000002E-002     1.4040596758393858E-009
  -2.4500000000000001E-002     1.4727249739688170E-009
  -2.4450000000000000E-002     1.5426210287946941E-009
  -2.4399999999999998E-002     1.6137857404601433E-009
  -2.4350000000000000E-002     1.6861159637137533E-009
  -2.4299999999999999E-002     1.7592562274395598E-009
  -2.4250000000000001E-002     1.8325826333042394E-009
  -2.4199999999999999E-002     1.9053034718571826E-009
  -2.4150000000000001E-002     1.9766580955852166E-009
  -2.4100000000000000E-002     2.0461614206986165E-009
  -2.4049999999999998E-002     2.1138192372245729E-009
  -2.4000000000000000E-002     2.1802452986723229E-009
  -2.3949999999999999E-002     2.2466390812358149E-009
  -2.3900000000000001E-002     2.3146160247443065E-009
  -2.3850000000000000E-002     2.3859324815073846E-009
  -2.3800000000000002E-002     2.4621661168560834E-009
  -2.3750000000000000E-002     2.5444300353209481E-009
  -2.3699999999999999E-002     2.6331815190975910E-009
  -2.3650000000000001E-002     2.7281655618493055E-009
  -2.3599999999999999E-002     2.8284948485698803E-009
  -2.3550000000000001E-002     2.9328425161852879E-009
  -2.3500000000000000E-002     3.0396996325232379E-009
  -2.3449999999999999E-002     3.1476451917258456E-009
  -2.3400000000000001E-002     3.2555777399637475E-009
  -2.3349999999999999E-002     3.3628756326334065E-009
  -2.3300000000000001E-002     3.4694658580277841E-009
  -2.3250000000000000E-002     3.5758011864195571E-009
  -2.3199999999999998E-002     3.6827607625833966E-009
  -2.3150000000000000E-002     3.7914925297783718E-009
  -2.3099999999999999E-002     3.9032325175061444E-009
  -2.3050000000000001E-002     4.0191274598684859E-009
  -2.3000000000000000E-002     4.1400979013904161E-009
  -2.2950000000000002E-002     4.2667530095680380E-009
  -2.2900000000000000E-002     4.3993778125370040E-009
  -2.2849999999999999E-002     4.5379857402129548E-009
  -2.2800000000000001E-002     4.6824090304851822E-009
  -2.2749999999999999E-002     4.8323988850550545E-009
  -2.2700000000000001E-002     4.9876982448211300E-009
  -2.2650000000000000E-002     5.1480624569590656E-009
  -2.2599999999999999E-002     5.3132257240307848E-009
  -2.2550000000000001E-002     5.4828316575560429E-009
  -2.2499999999999999E-002     5.6563671499801782E-009
  -2.2450000000000001E-002     5.8331459231761633E-009
  -2.2400000000000000E-002     6.0123670709630785E-009
  -2.2349999999999998E-002     6.1932606473345411E-009
  -2.2300000000000000E-002     6.3752818205670060E-009
  -2.2249999999999999E-002     6.5583138841098082E-009
  -2.2200000000000001E-002     6.7428113048785952E-009
  -2.2150000000000000E-002     6.9298436414571306E-009
  -2.2100000000000002E-002     7.1210170343150957E-009
  -2.2050000000000000E-002     7.3182846577526522E-009
  -2.1999999999999999E-002     7.5236889221806200E-009
  -2.1950000000000001E-002     7.7390741398937160E-009
  -2.1899999999999999E-002     7.9658299028305314E-009
  -2.1850000000000001E-002     8.2046993662580073E-009
  -2.1800000000000000E-002     8.4556802237958938E-009
  -2.1749999999999999E-002     8.7180303030788461E-009
  -2.1700000000000001E-002     8.9903803812172878E-009
  -2.1649999999999999E-002     9.2709443765402922E-009
  -2.1600000000000001E-002     9.5577967536784780E-009
  -2.1550000000000000E-002     9.8491704335391736E-009
  -2.1499999999999998E-002     1.0143731006317180E-008
  -2.1450000000000000E-002     1.0440760031050041E-008
  -2.1399999999999999E-002     1.0740236413638082E-008
  -2.1350000000000001E-002     1.1042795788112416E-008
  -2.1299999999999999E-002     1.1349598265580348E-008
  -2.1250000000000002E-002     1.1662156854097773E-008
  -2.1200000000000000E-002     1.1982164181525583E-008
  -2.1149999999999999E-002     1.2311356354289374E-008
  -2.1100000000000001E-002     1.2651413600303150E-008
  -2.1049999999999999E-002     1.3003880256099871E-008
  -2.1000000000000001E-002     1.3370084313209860E-008
  -2.0950000000000000E-002     1.3751039826369158E-008
  -2.0899999999999998E-002     1.4147337436309319E-008
  -2.0850000000000000E-002     1.4559065440539051E-008
  -2.0799999999999999E-002     1.4985782747989884E-008
  -2.0750000000000001E-002     1.5426571250142245E-008
  -2.0700000000000000E-002     1.5880171533538677E-008
  -2.0649999999999998E-002     1.6345167471088913E-008
  -2.0600000000000000E-002     1.6820185113827679E-008
  -2.0549999999999999E-002     1.7304072024130884E-008
  -2.0500000000000001E-002     1.7796035113218434E-008
  -2.0449999999999999E-002     1.8295736941571362E-008
  -2.0400000000000001E-002     1.8803363129471894E-008
  -2.0350000000000000E-002     1.9319653737113712E-008
  -2.0299999999999999E-002     1.9845906716448847E-008
  -2.0250000000000001E-002     2.0383916231450696E-008
  -2.0199999999999999E-002     2.0935844645122835E-008
  -2.0150000000000001E-002     2.1504010472804386E-008
  -2.0100000000000000E-002     2.2090630158764623E-008
  -2.0049999999999998E-002     2.2697545616715689E-008
  -2.0000000000000000E-002     2.3326016574662824E-008
  -1.9949999999999999E-002     2.3976607721202743E-008
  -1.9900000000000001E-002     2.4649189103147469E-008
  -1.9850000000000000E-002     2.5343053122186975E-008
  -1.9799999999999998E-002     2.6057103401676615E-008
  -1.9750000000000000E-002     2.6790060013546101E-008
  -1.9699999999999999E-002     2.7540640727496524E-008
  -1.9650000000000001E-002     2.8307715592454581E-008
  -1.9599999999999999E-002     2.9090432394835759E-008
  -1.9550000000000001E-002     2.9888308836562272E-008
  -1.9500000000000000E-002     3.0701326815546598E-008
  -1.9449999999999999E-002     3.1530007541411936E-008
  -1.9400000000000001E-002     3.2375425138569869E-008
  -1.9349999999999999E-002     3.3239205242022830E-008
  -1.9300000000000001E-002     3.4123406721254488E-008
  -1.9250000000000000E-002     3.5030347605090524E-008
  -1.9199999999999998E-002     3.5962370979640554E-008
  -1.9150000000000000E-002     3.6921605246934457E-008
  -1.9099999999999999E-002     3.7909734347680675E-008
  -1.9050000000000001E-002     3.8927856531704296E-008
  -1.9000000000000000E-002     3.9976442705872718E-008
  -1.8949999999999998E-002     4.1055374853565993E-008
  -1.8900000000000000E-002     4.2164078997599808E-008
  -1.8849999999999999E-002     4.3301689928059632E-008
  -1.8800000000000001E-002     4.4467243508478688E-008
  -1.8749999999999999E-002     4.5659835031351009E-008
  -1.8700000000000001E-002     4.6878781593781470E-008
  -1.8650000000000000E-002     4.8123765699354741E-008
  -1.8599999999999998E-002     4.9394953387154132E-008
  -1.8550000000000001E-002     5.0693086890800301E-008
  -1.8499999999999999E-002     5.2019502907792889E-008
  -1.8450000000000001E-002     5.3376076616096156E-008
  -1.8400000000000000E-002     5.4765070786098578E-008
  -1.8349999999999998E-002     5.6188864906982377E-008
  -1.8300000000000000E-002     5.7649688406067062E-008
  -1.8249999999999999E-002     5.9149390677112653E-008
  -1.8200000000000001E-002     6.0689310019550627E-008
  -1.8149999999999999E-002     6.2270272051259438E-008
  -1.8100000000000002E-002     6.3892735668202369E-008
  -1.8050000000000000E-002     6.5556948049738019E-008
  -1.7999999999999999E-002     6.7263071810967387E-008
  -1.7950000000000001E-002     6.9011198643865807E-008
  -1.7899999999999999E-002     7.0801310552887997E-008
  -1.7850000000000001E-002     7.2633180584469493E-008
  -1.7800000000000000E-002     7.4506364474912080E-008
  -1.7749999999999998E-002     7.6420285112671019E-008
  -1.7700000000000000E-002     7.8374468170491362E-008
  -1.7649999999999999E-002     8.0368868458168970E-008
  -1.7600000000000001E-002     8.2404096247666430E-008
  -1.7550000000000000E-002     8.4481556901765972E-008
  -1.7499999999999998E-002     8.6603316030868772E-008
  -1.7450000000000000E-002     8.8771873889920341E-008
  -1.7399999999999999E-002     9.0989853277392973E-008
  -1.7350000000000001E-002     9.3259779724784820E-008
  -1.7299999999999999E-002     9.5584002690605137E-008
  -1.7250000000000001E-002     9.7964721594203192E-008
  -1.7200000000000000E-002     1.0040408366343653E-007
  -1.7149999999999999E-002     1.0290425526050137E-007
  -1.7100000000000001E-002     1.0546729905695600E-007
  -1.7049999999999999E-002     1.0809496822275441E-007
  -1.7000000000000001E-002     1.1078849356891298E-007
  -1.6950000000000000E-002     1.1354845949094236E-007
  -1.6899999999999998E-002     1.1637490583138603E-007
  -1.6850000000000000E-002     1.1926761101880421E-007
  -1.6799999999999999E-002     1.2222649122633846E-007
  -1.6750000000000001E-002     1.2525200853065208E-007
  -1.6700000000000000E-002     1.2834525393421031E-007
  -1.6649999999999998E-002     1.3150790118124091E-007
  -1.6600000000000000E-002     1.3474181460468228E-007
  -1.6549999999999999E-002     1.3804866478200355E-007
  -1.6500000000000001E-002     1.4142962954186976E-007
  -1.6449999999999999E-002     1.4488537872273736E-007
  -1.6400000000000001E-002     1.4841618746347190E-007
  -1.6350000000000000E-002     1.5202228883224097E-007
  -1.6299999999999999E-002     1.5570422329880291E-007
  -1.6250000000000001E-002     1.5946293240950427E-007
  -1.6199999999999999E-002     1.6329975817913493E-007
  -1.6150000000000001E-002     1.6721612983360588E-007
  -1.6100000000000000E-002     1.7121340349496250E-007
  -1.6049999999999998E-002     1.7529258656394894E-007
  -1.6000000000000000E-002     1.7945449502921775E-007
  -1.5949999999999999E-002     1.8369992938684971E-007
  -1.5900000000000001E-002     1.8803001629798865E-007
  -1.5850000000000000E-002     1.9244654674599748E-007
  -1.5799999999999998E-002     1.9695199173416983E-007
  -1.5750000000000000E-002     2.0154937510667934E-007
  -1.5699999999999999E-002     2.0624199799187528E-007
  -1.5650000000000001E-002     2.1103308176916871E-007
  -1.5599999999999999E-002     2.1592571403727640E-007
  -1.5550000000000001E-002     2.2092285085595957E-007
  -1.5500000000000000E-002     2.2602766061507250E-007
  -1.5449999999999998E-002     2.3124375539048008E-007
  -1.5400000000000000E-002     2.3657540613155674E-007
  -1.5349999999999999E-002     2.4202738557441655E-007
  -1.5300000000000001E-002     2.4760457315614622E-007
  -1.5250000000000000E-002     2.5331152050438471E-007
  -1.5199999999999998E-002     2.5915197702384971E-007
  -1.5150000000000000E-002     2.6512887467768743E-007
  -1.5099999999999999E-002     2.7124432490646216E-007
  -1.5050000000000001E-002     2.7749992700477371E-007
  -1.4999999999999999E-002     2.8389721224211647E-007
  -1.4949999999999998E-002     2.9043771426545347E-007
  -1.4900000000000000E-002     2.9712291063074581E-007
  -1.4849999999999999E-002     3.0395400207441473E-007
  -1.4800000000000001E-002     3.1093151467503489E-007
  -1.4749999999999999E-002     3.1805510027793924E-007
  -1.4700000000000001E-002     3.2532357253436237E-007
  -1.4650000000000000E-002     3.3273525459903042E-007
  -1.4599999999999998E-002     3.4028833050511149E-007
  -1.4550000000000000E-002     3.4798131600920580E-007
  -1.4499999999999999E-002     3.5581299638145877E-007
  -1.4450000000000001E-002     3.6378252431836600E-007
  -1.4400000000000000E-002     3.7188900515070079E-007
  -1.4349999999999998E-002     3.8013146516731222E-007
  -1.4300000000000000E-002     3.8850888866848477E-007
  -1.4249999999999999E-002     3.9702051561097218E-007
  -1.4200000000000001E-002     4.0566634437520540E-007
  -1.4149999999999999E-002     4.1444741223420190E-007
  -1.4099999999999998E-002     4.2336592324781134E-007
  -1.4050000000000000E-002     4.3242485649870509E-007
  -1.3999999999999999E-002     4.4162753930619985E-007
  -1.3950000000000001E-002     4.5097708756869739E-007
  -1.3899999999999999E-002     4.6047606146792107E-007
  -1.3850000000000001E-002     4.7012672655896014E-007
  -1.3800000000000000E-002     4.7993145263495115E-007
  -1.3749999999999998E-002     4.8989336280531882E-007
  -1.3700000000000000E-002     5.0001673824266289E-007
  -1.3649999999999999E-002     5.1030701776927802E-007
  -1.3600000000000001E-002     5.2077050358411677E-007
  -1.3550000000000000E-002     5.3141347111295053E-007
  -1.3499999999999998E-002     5.4224192786082266E-007
  -1.3450000000000000E-002     5.5326104740456242E-007
  -1.3399999999999999E-002     5.6447573821747712E-007
  -1.3350000000000001E-002     5.7589103348852704E-007
  -1.3299999999999999E-002     5.8751261350042410E-007
  -1.3249999999999998E-002     5.9934725869065185E-007
  -1.3200000000000000E-002     6.1140244630103092E-007
  -1.3149999999999998E-002     6.2368581756167789E-007
  -1.3100000000000001E-002     6.3620406818336144E-007
  -1.3049999999999999E-002     6.4896215606149914E-007
  -1.3000000000000001E-002     6.6196335539329331E-007
  -1.2950000000000000E-002     6.7520950902573857E-007
  -1.2899999999999998E-002     6.8870212821970072E-007
  -1.2850000000000000E-002     7.0244315736251030E-007
  -1.2799999999999999E-002     7.1643570616925059E-007