  -4.0000000000000001E-002     0.0000000000000000     
  -3.9949999999999999E-002     0.0000000000000000     
  -3.9899999999999998E-002     0.0000000000000000     
  -3.9850000000000003E-002     0.0000000000000000     
  -3.9800000000000002E-002     0.0000000000000000     
  -3.9750000000000001E-002     0.0000000000000000     
  -3.9699999999999999E-002     0.0000000000000000     
  -3.9649999999999998E-002     0.0000000000000000     
  -3.9600000000000003E-002     0.0000000000000000     
  -3.9550000000000002E-002     0.0000000000000000     
  -3.9500000000000000E-002     0.0000000000000000     
  -3.9449999999999999E-002     0.0000000000000000     
  -3.9399999999999998E-002     0.0000000000000000     
  -3.9350000000000003E-002     0.0000000000000000     
  -3.9300000000000002E-002     0.0000000000000000     
  -3.9250000000000000E-002     0.0000000000000000     
  -3.9199999999999999E-002     0.0000000000000000     
  -3.9150000000000004E-002     0.0000000000000000     
  -3.9100000000000003E-002     0.0000000000000000     
  -3.9050000000000001E-002     0.0000000000000000     
  -3.9000000000000000E-002     0.0000000000000000     
  -3.8949999999999999E-002     0.0000000000000000     
  -3.8900000000000004E-002     0.0000000000000000     
  -3.8850000000000003E-002     0.0000000000000000     
  -3.8800000000000001E-002     0.0000000000000000     
  -3.8750000000000000E-002     0.0000000000000000     
  -3.8699999999999998E-002     0.0000000000000000     
  -3.8650000000000004E-002     0.0000000000000000     
  -3.8600000000000002E-002     0.0000000000000000     
  -3.8550000000000001E-002     0.0000000000000000     
  -3.8500000000000000E-002     0.0000000000000000     
  -3.8449999999999998E-002     0.0000000000000000     
  -3.8400000000000004E-002     0.0000000000000000     
  -3.8350000000000002E-002     0.0000000000000000     
  -3.8300000000000001E-002     0.0000000000000000     
  -3.8249999999999999E-002     0.0000000000000000     
  -3.8199999999999998E-002     0.0000000000000000     
  -3.8150000000000003E-002     0.0000000000000000     
  -3.8100000000000002E-002     0.0000000000000000     
  -3.8050000000000000E-002     0.0000000000000000     
  -3.7999999999999999E-002     0.0000000000000000     
  -3.7949999999999998E-002     0.0000000000000000     
  -3.7900000000000003E-002     0.0000000000000000     
  -3.7850000000000002E-002     0.0000000000000000     
  -3.7800000000000000E-002     0.0000000000000000     
  -3.7749999999999999E-002     0.0000000000000000     
  -3.7699999999999997E-002     0.0000000000000000     
  -3.7650000000000003E-002     0.0000000000000000     
  -3.7600000000000001E-002     0.0000000000000000     
  -3.7550000000000000E-002     0.0000000000000000     
  -3.7499999999999999E-002     0.0000000000000000     
  -3.7449999999999997E-002     0.0000000000000000     
  -3.7400000000000003E-002     0.0000000000000000     
  -3.7350000000000001E-002     0.0000000000000000     
  -3.7300000000000000E-002     0.0000000000000000     
  -3.7249999999999998E-002     0.0000000000000000     
  -3.7200000000000004E-002     0.0000000000000000     
  -3.7150000000000002E-002     0.0000000000000000     
  -3.7100000000000001E-002     0.0000000000000000     
  -3.7050000000000000E-002     0.0000000000000000     
  -3.6999999999999998E-002     0.0000000000000000     
  -3.6950000000000004E-002     0.0000000000000000     
  -3.6900000000000002E-002     0.0000000000000000     
  -3.6850000000000001E-002     0.0000000000000000     
  -3.6799999999999999E-002     0.0000000000000000     
  -3.6749999999999998E-002     0.0000000000000000     
  -3.6700000000000003E-002     0.0000000000000000     
  -3.6650000000000002E-002     0.0000000000000000     
  -3.6600000000000001E-002     0.0000000000000000     
  -3.6549999999999999E-002     0.0000000000000000     
  -3.6499999999999998E-002     0.0000000000000000     
  -3.6450000000000003E-002     0.0000000000000000     
  -3.6400000000000002E-002    -1.3192113811935943E-038
  -3.6350000000000000E-002    -1.3192113811935943E-038
  -3.6299999999999999E-002     4.3646310530651365E-038
  -3.6249999999999998E-002     1.3437880543101551E-037
  -3.6200000000000003E-002     1.7891443601906598E-037
  -3.6150000000000002E-002     5.2350918752119693E-038
  -3.6100000000000000E-002    -3.2302799461941971E-037
  -3.6049999999999999E-002    -8.7252519262370068E-037
  -3.6000000000000004E-002    -1.2749371264003036E-036
  -3.5950000000000003E-002    -9.9107324904354587E-037
  -3.5900000000000001E-002     5.1048392771870660E-037
  -3.5850000000000000E-002     3.2697232021109526E-036
  -3.5799999999999998E-002     6.2583458425952451E-036
  -3.5750000000000004E-002     7.1437340134488796E-036
  -3.5700000000000003E-002     3.0112618839492717E-036
  -3.5650000000000001E-002    -7.6028110491649129E-036
  -3.5600000000000000E-002    -2.1903507692298305E-035
  -3.5549999999999998E-002    -3.1138730558912199E-035
  -3.5500000000000004E-002    -2.2758111600389042E-035
  -3.5450000000000002E-002     1.1773527281828221E-035
  -3.5400000000000001E-002     6.5408586619612598E-035
  -3.5349999999999999E-002     1.0749482578537108E-034
  -3.5299999999999998E-002     9.0115233643959720E-035
  -3.5250000000000004E-002    -2.3917269277402599E-035
  -3.5200000000000002E-002    -2.1768079895015594E-034
  -3.5150000000000001E-002    -3.8730587355301016E-034
  -3.5099999999999999E-002    -3.5820814097846124E-034
  -3.5049999999999998E-002     2.3090864606350876E-035
  -3.5000000000000003E-002     7.4068339855693894E-034
  -3.4950000000000002E-002     1.4879188005872698E-033
  -3.4900000000000000E-002     1.6952360556314926E-033
  -3.4849999999999999E-002     7.8881410658685366E-034
  -3.4799999999999998E-002    -1.3794799059013945E-033
  -3.4750000000000003E-002    -4.1746803922110270E-033
  -3.4700000000000002E-002    -6.2250257607152477E-033
  -3.4650000000000000E-002    -6.0434813111482997E-033
  -3.4599999999999999E-002    -2.9696987655983625E-033
  -3.4549999999999997E-002     2.2822990565962593E-033
  -3.4500000000000003E-002     8.2261844048192329E-033
  -3.4450000000000001E-002     1.4344525236989727E-032
  -3.4400000000000000E-002     2.2525244459055031E-032
  -3.4349999999999999E-002     3.5640912309798954E-032
  -3.4299999999999997E-002     5.1515187691382404E-032
  -3.4250000000000003E-002     5.4287197327189243E-032
  -3.4200000000000001E-002     1.0875340187285758E-032
  -3.4150000000000000E-002    -1.1623372776524038E-031
  -3.4099999999999998E-002    -3.3319956313323537E-031
  -3.4049999999999997E-002    -5.6563062535861468E-031
  -3.4000000000000002E-002    -6.2924593459686717E-031
  -3.3950000000000001E-002    -2.6949392890906570E-031
  -3.3900000000000000E-002     6.9471988848286582E-031
  -3.3849999999999998E-002     2.1461792175957217E-030
  -3.3799999999999997E-002     3.4763911944777580E-030
  -3.3750000000000002E-002     3.6093382890020858E-030
  -3.3700000000000001E-002     1.4054028021708022E-030
  -3.3649999999999999E-002    -3.5610188884149252E-030
  -3.3599999999999998E-002    -1.0149958504322004E-029
  -3.3550000000000003E-002    -1.5302693040247526E-029
  -3.3500000000000002E-002    -1.4782752140573734E-029
  -3.3450000000000001E-002    -5.1961977342505654E-030
  -3.3399999999999999E-002     1.3331691821263322E-029
  -3.3349999999999998E-002     3.5278315043544874E-029
  -3.3300000000000003E-002     5.0334362661758233E-029
  -3.3250000000000002E-002     4.7310968621951774E-029
  -3.3200000000000000E-002     2.0214408728378753E-029
  -3.3149999999999999E-002    -2.6689699669657372E-029
  -3.3099999999999997E-002    -7.8597507975527982E-029
  -3.3050000000000003E-002    -1.1634894276258142E-028
  -3.3000000000000002E-002    -1.2627789403493753E-028
  -3.2950000000000000E-002    -1.0667075960604669E-028
  -3.2899999999999999E-002    -6.3667355990366786E-029
  -3.2850000000000004E-002     3.7971657353030278E-030
  -3.2800000000000003E-002     1.1858250390439806E-028
  -3.2750000000000001E-002     3.1894427844160442E-028
  -3.2700000000000000E-002     6.1519922435663143E-028
  -3.2649999999999998E-002     9.1822687143996629E-028
  -3.2600000000000004E-002     9.8645265083039246E-028
  -3.2550000000000003E-002     4.6486296253121097E-028
  -3.2500000000000001E-002    -9.2724648285201781E-028
  -3.2450000000000000E-002    -3.0835330560275222E-027
  -3.2399999999999998E-002    -5.2219167622189861E-027
  -3.2350000000000004E-002    -5.8702587372095942E-027
  -3.2300000000000002E-002    -3.3562846029026036E-027
  -3.2250000000000001E-002     3.1795660860304918E-027
  -3.2199999999999999E-002     1.2600133193937098E-026
  -3.2149999999999998E-002     2.1126983103765502E-026
  -3.2100000000000004E-002     2.3025558679966617E-026
  -3.2050000000000002E-002     1.2986373051680114E-026
  -3.2000000000000001E-002    -1.0352954282966183E-026
  -3.1949999999999999E-002    -4.1359983423713471E-026
  -3.1899999999999998E-002    -6.7000822464177781E-026
  -3.1850000000000003E-002    -7.0654838503113152E-026
  -3.1800000000000002E-002    -3.9839472517827437E-026
  -3.1750000000000000E-002     2.5027960369097671E-026
  -3.1699999999999999E-002     1.0556330790275124E-025
  -3.1649999999999998E-002     1.6842386169861058E-025
  -3.1600000000000003E-002     1.7754239118372177E-025
  -3.1550000000000002E-002     1.1160863251634767E-025
  -3.1500000000000000E-002    -2.1569555642009867E-026
  -3.1449999999999999E-002    -1.8270412995371244E-025
  -3.1399999999999997E-002    -3.1451884291161741E-025
  -3.1350000000000003E-002    -3.6596877023248770E-025
  -3.1300000000000001E-002    -3.1407767245037256E-025
  -3.1250000000000000E-002    -1.6936641489488161E-025
  -3.1199999999999999E-002     3.9845444441398993E-026
  -3.1150000000000001E-002     2.9281947342838002E-025
  -3.1100000000000003E-002     5.8717125986134528E-025
  -3.1050000000000001E-002     9.1346010469408648E-025
  -3.1000000000000000E-002     1.1960120357510460E-024
  -3.0949999999999998E-002     1.2391535567586121E-024
  -3.0900000000000000E-002     7.4412489910876768E-025
  -3.0850000000000002E-002    -5.5075043933580953E-025
  -3.0800000000000001E-002    -2.6192684714559406E-024
  -3.0750000000000000E-002    -4.8976563407000406E-024
  -3.0699999999999998E-002    -6.2262401000551642E-024
  -3.0650000000000000E-002    -5.1608881807196191E-024
  -3.0600000000000002E-002    -6.8722544669892078E-025
  -3.0550000000000001E-002     6.8815334433868700E-024
  -3.0499999999999999E-002     1.5287794599324826E-023
  -3.0449999999999998E-002     2.0532187651166616E-023
  -3.0400000000000000E-002     1.8203555455931953E-023
  -3.0350000000000002E-002     5.7118767574411922E-024
  -3.0300000000000001E-002    -1.5441209112728588E-023
  -3.0249999999999999E-002    -3.8624564206560340E-023
  -3.0200000000000001E-002    -5.3370371920953070E-023
  -3.0150000000000000E-002    -4.9218688484639891E-023
  -3.0100000000000002E-002    -2.1000083142158544E-023
  -3.0050000000000000E-002     2.6741535872658282E-023
  -2.9999999999999999E-002     7.8787129499263015E-023
  -2.9950000000000001E-002     1.1330412968221738E-022
  -2.9899999999999999E-002     1.1028669254353631E-022
  -2.9850000000000002E-002     6.1253925952482532E-023
  -2.9800000000000000E-002    -2.4342712411798864E-023
  -2.9749999999999999E-002    -1.1985962691347640E-022
  -2.9700000000000001E-002    -1.9026810065531876E-022
  -2.9650000000000003E-002    -2.0591161630263490E-022
  -2.9600000000000001E-002    -1.5503927656770365E-022
  -2.9550000000000000E-002    -4.8835093825423501E-023
  -2.9499999999999998E-002     8.3843658481970041E-023
  -2.9450000000000000E-002     2.0914634991082452E-022
  -2.9400000000000003E-002     3.0076618267790534E-022
  -2.9350000000000001E-002     3.4434331346619544E-022
  -2.9300000000000000E-002     3.3088622994733883E-022
  -2.9249999999999998E-002     2.4496289430549101E-022
  -2.9200000000000000E-002     6.0267344949976926E-023
  -2.9150000000000002E-002    -2.4550305576628843E-022
  -2.9100000000000001E-002    -6.5531021233330300E-022
  -2.9049999999999999E-002    -1.0731899024503018E-021
  -2.8999999999999998E-002    -1.3109337475963853E-021
  -2.8950000000000000E-002    -1.1311555532272355E-021
  -2.8900000000000002E-002    -3.5502416195675137E-022
  -2.8850000000000001E-002     9.9580529822076206E-022
  -2.8799999999999999E-002     2.5918371634963661E-021
  -2.8749999999999998E-002     3.8052901194789171E-021
  -2.8700000000000000E-002     3.8887618521321808E-021
  -2.8650000000000002E-002     2.3013814559585718E-021
  -2.8600000000000000E-002    -9.3091786631705706E-022
  -2.8549999999999999E-002    -4.9982590461908434E-021
  -2.8500000000000001E-002    -8.4001693700794481E-021
  -2.8450000000000000E-002    -9.4128678532173667E-021
  -2.8400000000000002E-002    -6.8215597945073504E-021
  -2.8350000000000000E-002    -6.3889301977546954E-022
  -2.8299999999999999E-002     7.5455593191671913E-021
  -2.8250000000000001E-002     1.4855629042111059E-020
  -2.8200000000000003E-002     1.8084867836509920E-020
  -2.8150000000000001E-002     1.5025275384692588E-020
  -2.8100000000000000E-002     5.6266315644987958E-021
  -2.8049999999999999E-002    -7.5879676736383059E-021
  -2.8000000000000001E-002    -2.0177445762574414E-020
  -2.7950000000000003E-002    -2.7377758957990152E-020
  -2.7900000000000001E-002    -2.6030611319916584E-020
  -2.7850000000000000E-002    -1.5991414262218855E-020
  -2.7799999999999998E-002    -3.0981508621483798E-022
  -2.7750000000000000E-002     1.5990979669279838E-020
  -2.7700000000000002E-002     2.8013586199230668E-020
  -2.7650000000000001E-002     3.2936645318893778E-020
  -2.7600000000000000E-002     3.0785956339210299E-020
  -2.7549999999999998E-002     2.3585691611408579E-020
  -2.7500000000000000E-002     1.3390016054064113E-020
  -2.7450000000000002E-002     4.9339324249709909E-022
  -2.7400000000000001E-002    -1.6751420377331761E-020
  -2.7349999999999999E-002    -3.9859546047548812E-020
  -2.7299999999999998E-002    -6.6680896796626341E-020
  -2.7250000000000000E-002    -8.8588083848799973E-020
  -2.7200000000000002E-002    -9.0989673510376977E-020
  -2.7150000000000001E-002    -5.8652688899144395E-020
  -2.7099999999999999E-002     1.5179500948081113E-020
  -2.7049999999999998E-002     1.1972176623801225E-019
  -2.7000000000000000E-002     2.2308115032729549E-019
  -2.6950000000000002E-002     2.7864830044525224E-019
  -2.6900000000000000E-002     2.4202971266117154E-019
  -2.6849999999999999E-002     9.3568299210085936E-020
  -2.6800000000000001E-002    -1.4317651128104456E-019
  -2.6749999999999999E-002    -3.9766211640119274E-019
  -2.6700000000000002E-002    -5.6977420684056062E-019
  -2.6650000000000000E-002    -5.6615984115401017E-019
  -2.6599999999999999E-002    -3.4328383161862783E-019
  -2.6550000000000001E-002     6.1375269874831723E-020
  -2.6500000000000003E-002     5.2731652526307396E-019
  -2.6450000000000001E-002     8.8546417210382028E-019
  -2.6400000000000000E-002     9.8058084356068038E-019
  -2.6349999999999998E-002     7.3832900705564421E-019
  -2.6300000000000000E-002     2.0731922375509755E-019
  -2.6250000000000002E-002    -4.4662335044851272E-019
  -2.6200000000000001E-002    -9.9764981889828868E-019
  -2.6150000000000000E-002    -1.2483383806634829E-018
  -2.6099999999999998E-002    -1.1117398422580073E-018
  -2.6050000000000000E-002    -6.4814367621809555E-019
  -2.6000000000000002E-002    -3.5883637809827328E-020
  -2.5950000000000001E-002     5.1333169283936963E-019
  -2.5899999999999999E-002     8.5429554133372764E-019
  -2.5849999999999998E-002     9.7080760122578979E-019
  -2.5800000000000000E-002     9.6291702196506989E-019
  -2.5750000000000002E-002     9.5926688071702652E-019
  -2.5700000000000001E-002     9.9968582057851138E-019
  -2.5649999999999999E-002     9.6040963073326852E-019
  -2.5599999999999998E-002     5.8471655252208337E-019
  -2.5550000000000000E-002    -3.6758489875057553E-019
  -2.5500000000000002E-002    -1.9086814199530871E-018
  -2.5450000000000000E-002    -3.6625158700071662E-018
  -2.5399999999999999E-002    -4.8757259580070533E-018
  -2.5349999999999998E-002    -4.6597677116332403E-018
  -2.5300000000000000E-002    -2.4128552411345173E-018
  -2.5250000000000002E-002     1.7454168533455864E-018
  -2.5200000000000000E-002     6.7529164052450935E-018
  -2.5149999999999999E-002     1.0779583650677704E-017
  -2.5100000000000001E-002     1.1829998803862868E-017
  -2.5049999999999999E-002     8.6005583066415144E-018
  -2.5000000000000001E-002     1.2482908177782611E-018
  -2.4950000000000000E-002    -8.3121965276606285E-018
  -2.4899999999999999E-002    -1.6829656269965066E-017
  -2.4850000000000001E-002    -2.0815536893753912E-017
  -2.4800000000000003E-002    -1.7958043122050703E-017
  -2.4750000000000001E-002    -8.2742429996148580E-018
  -2.4700000000000000E-002     5.5554872689714930E-018
  -2.4649999999999998E-002     1.8940217529061467E-017
  -2.4600000000000000E-002     2.7030766875685449E-017
  -2.4550000000000002E-002     2.6647653211897838E-017
  -2.4500000000000001E-002     1.7658795646208619E-017
  -2.4450000000000000E-002     3.1440330649994874E-018
  -2.4399999999999998E-002    -1.1817648997317451E-017
  -2.4350000000000000E-002    -2.2267123063498718E-017
  -2.4299999999999999E-002    -2.5443959836845374E-017
  -2.4250000000000001E-002    -2.1820844233775334E-017
  -2.4199999999999999E-002    -1.4532668353133914E-017
  -2.4150000000000001E-002    -7.4225182839261569E-018
  -2.4100000000000000E-002    -2.6893538025653208E-018
  -2.4049999999999998E-002     5.4103914143259898E-019
  -2.4000000000000000E-002     5.7355864086105198E-018
  -2.3949999999999999E-002     1.6517436947756925E-017
  -2.3900000000000001E-002     3.3368455984221786E-017
  -2.3850000000000000E-002     5.1326434586184709E-017
  -2.3800000000000002E-002     6.0418906449763546E-017
  -2.3750000000000000E-002     4.9464580067503402E-017
  -2.3699999999999999E-002     1.2144037923418625E-017
  -2.3650000000000001E-002    -4.7320855483288526E-017
  -2.3599999999999999E-002    -1.1207172334460453E-016
  -2.3550000000000001E-002    -1.5628804756625088E-016
  -2.3500000000000000E-002    -1.5444261423708998E-016
  -2.3449999999999999E-002    -9.3111539329917257E-017
  -2.3400000000000001E-002     1.9667385388111933E-017
  -2.3349999999999999E-002     1.5246205268306241E-016
  -2.3300000000000001E-002     2.5848020360720787E-016
  -2.3250000000000000E-002     2.9199112987141334E-016
  -2.3199999999999998E-002     2.2740807048660474E-016
  -2.3150000000000000E-002     7.3090764186149195E-017
  -2.3099999999999999E-002    -1.2698823824354877E-016
  -2.3050000000000001E-002    -3.0617504068032142E-016
  -2.3000000000000000E-002    -3.9897729387048265E-016
  -2.2950000000000002E-002    -3.6684083738187489E-016
  -2.2900000000000000E-002    -2.1502249003405634E-016
  -2.2849999999999999E-002     7.4143705548925095E-018
  -2.2800000000000001E-002     2.2564653312389142E-016
  -2.2749999999999999E-002     3.6833653874804838E-016
  -2.2700000000000001E-002     3.9567823288982516E-016
  -2.2650000000000000E-002     3.1363091584962939E-016
  -2.2599999999999999E-002     1.6750501371916396E-016
  -2.2550000000000001E-002     1.7618210856634317E-017
  -2.2499999999999999E-002    -9.1243461104307101E-017
  -2.2450000000000001E-002    -1.5090880601603484E-016
  -2.2400000000000000E-002    -1.8954045672797638E-016
  -2.2349999999999998E-002    -2.4848330900547580E-016
  -2.2300000000000000E-002    -3.4727959084688209E-016
  -2.2249999999999999E-002    -4.5628907832892551E-016
  -2.2200000000000001E-002    -4.9556096683498309E-016
  -2.2150000000000000E-002    -3.6749628206437211E-016
  -2.2100000000000002E-002    -1.3453715468815671E-017
  -2.2050000000000000E-002     5.3124085330953121E-016
  -2.1999999999999999E-002     1.1149427980863759E-015
  -2.1950000000000001E-002     1.5015588107619845E-015
  -2.1899999999999999E-002     1.4555833446926788E-015
  -2.1850000000000001E-002     8.5227798702193578E-016
  -2.1800000000000000E-002    -2.3382331274065160E-016
  -2.1749999999999999E-002    -1.5088017894939560E-015
  -2.1700000000000001E-002    -2.5319383921965826E-015
  -2.1649999999999999E-002    -2.8673359107384997E-015
  -2.1600000000000001E-002    -2.2625977968374761E-015
  -2.1550000000000000E-002    -7.8170394301053632E-016
  -2.1499999999999998E-002     1.1719291630743955E-015
  -2.1450000000000000E-002     2.9674240766431464E-015
  -2.1399999999999999E-002     3.9635034823951552E-015
  -2.1350000000000001E-002     3.7520112139270180E-015
  -2.1299999999999999E-002     2.3297723799941888E-015
  -2.1250000000000002E-002     1.2227002649932591E-016
  -2.1200000000000000E-002    -2.1601900312067735E-015
  -2.1149999999999999E-002    -3.7828148376033415E-015
  -2.1100000000000001E-002    -4.2592653647197283E-015
  -2.1049999999999999E-002    -3.5232706017957046E-015
  -2.1000000000000001E-002    -1.9255932450363807E-015
  -2.0950000000000000E-002    -5.9124554079575270E-017
  -2.0899999999999998E-002     1.5066544550935480E-015
  -2.0850000000000000E-002     2.4567523596665019E-015
  -2.0799999999999999E-002     2.8164624766516960E-015
  -2.0750000000000001E-002     2.8508069098057793E-015
  -2.0700000000000000E-002     2.8317048345375372E-015
  -2.0649999999999998E-002     2.8018551817180588E-015
  -2.0600000000000000E-002     2.4786667960778651E-015
  -2.0549999999999999E-002     1.3808921911620314E-015
  -2.0500000000000001E-002    -8.5329204427847679E-016
  -2.0449999999999999E-002    -4.1035040525326614E-015
  -2.0400000000000001E-002    -7.5637280862400971E-015
  -2.0350000000000000E-002    -9.8622172101515797E-015
  -2.0299999999999999E-002    -9.5350854626254436E-015
  -2.0250000000000001E-002    -5.7077577730944677E-015
  -2.0199999999999999E-002     1.3001181763997957E-015
  -2.0150000000000001E-002     9.7570724693100616E-015
  -2.0100000000000000E-002     1.6882250941175139E-014
  -2.0049999999999998E-002     1.9750168975306640E-014
  -2.0000000000000000E-002     1.6446686270906244E-014
  -1.9949999999999999E-002     7.0225714417335335E-015
  -1.9900000000000001E-002    -6.1933435505469921E-015
  -1.9850000000000000E-002    -1.9147943796401883E-014
  -1.9799999999999998E-002    -2.7372772627644489E-014
  -1.9750000000000000E-002    -2.7605444107925772E-014
  -1.9699999999999999E-002    -1.9103752393477731E-014
  -1.9650000000000001E-002    -4.1018481031207792E-015
  -1.9599999999999999E-002     1.2833417359673586E-014
  -1.9550000000000001E-002     2.6353803850558827E-014
  -1.9500000000000000E-002     3.2215237964240695E-014
  -1.9449999999999999E-002     2.8764740833383054E-014
  -1.9400000000000001E-002     1.7440013666612623E-014
  -1.9349999999999999E-002     2.0930711404663427E-015
  -1.9300000000000001E-002    -1.2559291239920729E-014
  -1.9250000000000000E-002    -2.2687933346268729E-014
  -1.9199999999999998E-002    -2.6561992690532672E-014
  -1.9150000000000000E-002    -2.4734927376712096E-014
  -1.9099999999999999E-002    -1.9210732654715949E-014
  -1.9050000000000001E-002    -1.2084884179789594E-014
  -1.9000000000000000E-002    -4.4105568840441343E-015
  -1.8949999999999998E-002     4.0753486773659284E-015
  -1.8900000000000000E-002     1.4184992258223488E-014
  -1.8849999999999999E-002     2.5875045582177646E-014
  -1.8800000000000001E-002     3.7036996733408323E-014
  -1.8749999999999999E-002     4.3344969676223713E-014
  -1.8700000000000001E-002     3.9589147661066998E-014
  -1.8650000000000000E-002     2.2181312776120565E-014
  -1.8599999999999998E-002    -8.1974120688058788E-015
  -1.8550000000000001E-002    -4.5161774032921251E-014
  -1.8499999999999999E-002    -7.7463866755573402E-014
  -1.8450000000000001E-002    -9.2305862660433530E-014
  -1.8400000000000000E-002    -8.0195575115522832E-014
  -1.8349999999999998E-002    -3.9526297816380729E-014
  -1.8300000000000000E-002     2.1149152307914365E-014
  -1.8249999999999999E-002     8.4518546675238504E-014
  -1.8200000000000001E-002     1.2959590540463639E-013
  -1.8149999999999999E-002     1.3896105403518599E-013
  -1.8100000000000002E-002     1.0554277178782823E-013
  -1.8050000000000000E-002     3.6233470786456792E-014
  -1.7999999999999999E-002    -4.9361878381440003E-014
  -1.7950000000000001E-002    -1.2494082916696125E-013
  -1.7899999999999999E-002    -1.6629231357808555E-013
  -1.7850000000000001E-002    -1.5967278497661108E-013
  -1.7800000000000000E-002    -1.0661767692668467E-013
  -1.7749999999999998E-002    -2.3343956975785396E-014
  -1.7700000000000000E-002     6.5016155165794481E-014
  -1.7649999999999999E-002     1.3309531699413207E-013
  -1.7600000000000001E-002     1.6353104038014515E-013
  -1.7550000000000000E-002     1.5169926404455525E-013
  -1.7499999999999998E-002     1.0543179691921076E-013
  -1.7450000000000000E-002     4.0355038240106125E-014
  -1.7399999999999999E-002    -2.6723262681492208E-014
  -1.7350000000000001E-002    -8.3317575928776311E-014
  -1.7299999999999999E-002    -1.2339837539374759E-013
  -1.7250000000000001E-002    -1.4574657398926799E-013
  -1.7200000000000000E-002    -1.5012767233795604E-013
  -1.7149999999999999E-002    -1.3405402276515238E-013
  -1.7100000000000001E-002    -9.2605807191451645E-014
  -1.7049999999999999E-002    -2.2080946148134509E-014
  -1.7000000000000001E-002     7.4082321494754050E-014
  -1.6950000000000000E-002     1.8045639852207196E-013
  -1.6899999999999998E-002     2.6943727739377199E-013
  -1.6850000000000000E-002     3.0765174479155388E-013
  -1.6799999999999999E-002     2.6787984807805088E-013
  -1.6750000000000001E-002     1.4233536224650400E-013
  -1.6700000000000000E-002    -4.8511270955148289E-014
  -1.6649999999999998E-002    -2.5660419969431025E-013
  -1.6600000000000000E-002    -4.1827365139177064E-013
  -1.6549999999999999E-002    -4.7473819580340360E-013
  -1.6500000000000001E-002    -3.9430232082887651E-013
  -1.6449999999999999E-002    -1.8769287881727215E-013
  -1.6400000000000001E-002     9.0372167757014898E-014
  -1.6350000000000000E-002     3.5561435523731588E-013
  -1.6299999999999999E-002     5.2080377770796771E-013
  -1.6250000000000001E-002     5.2567379702633810E-013
  -1.6199999999999999E-002     3.5935298248364334E-013
  -1.6150000000000001E-002     6.6718244156379475E-014
  -1.6100000000000000E-002    -2.6428910600805045E-013
  -1.6049999999999998E-002    -5.3036107406853605E-013
  -1.6000000000000000E-002    -6.4591599213334461E-013
  -1.5949999999999999E-002    -5.6999354238265743E-013
  -1.5900000000000001E-002    -3.1781641120914861E-013
  -1.5850000000000000E-002     4.6230160406215623E-014
  -1.5799999999999998E-002     4.3051719415994338E-013
  -1.5750000000000000E-002     7.4413874584858264E-013
  -1.5699999999999999E-002     9.2069320917209652E-013
  -1.5650000000000001E-002     9.3042739311710587E-013
  -1.5599999999999999E-002     7.7883825690822084E-013
  -1.5550000000000001E-002     4.9557992258530970E-013
  -1.5500000000000000E-002     1.2090958930680712E-013
  -1.5449999999999998E-002    -3.0346629072489084E-013
  -1.5400000000000000E-002    -7.3604626083315083E-013
  -1.5349999999999999E-002    -1.1317064906729568E-012
  -1.5300000000000001E-002    -1.4382197689732923E-012
  -1.5250000000000000E-002    -1.5993387170176732E-012
  -1.5199999999999998E-002    -1.5672103371999757E-012
  -1.5150000000000000E-002    -1.3211231154192093E-012
  -1.5099999999999999E-002    -8.8436755748405593E-013
  -1.5050000000000001E-002    -3.2922931958792589E-013
  -1.4999999999999999E-002     2.3666409543904310E-013
  -1.4949999999999998E-002     7.0198474854191173E-013
  -1.4900000000000000E-002     9.9193244763873256E-013
  -1.4849999999999999E-002     1.1015285905635608E-012
  -1.4800000000000001E-002     1.1062249206938990E-012
  -1.4749999999999999E-002     1.1407481946903997E-012
  -1.4700000000000001E-002     1.3487707044984587E-012
  -1.4650000000000000E-002     1.8183310759867233E-012
  -1.4599999999999998E-002     2.5258703548886041E-012
  -1.4550000000000000E-002     3.3115719368093099E-012
  -1.4499999999999999E-002     3.8996653128897663E-012
  -1.4450000000000001E-002     3.9623217901185726E-012
  -1.4400000000000000E-002     3.2101413541263391E-012
  -1.4349999999999998E-002     1.4819334995253008E-012
  -1.4300000000000000E-002    -1.1943224187405121E-012
  -1.4249999999999999E-002    -4.5882572914657249E-012
  -1.4200000000000001E-002    -8.3046373597350787E-012
  -1.4149999999999999E-002    -1.1857901813239202E-011
  -1.4099999999999998E-002    -1.4758614469423392E-011
  -1.4050000000000000E-002    -1.6584797771224125E-011
  -1.3999999999999999E-002    -1.7018868953000421E-011
  -1.3950000000000001E-002    -1.5844854941993169E-011
  -1.3899999999999999E-002    -1.2915179342654071E-011
  -1.3850000000000001E-002    -8.1056567707848970E-012
  -1.3800000000000000E-002    -1.2786332322795024E-012
  -1.3749999999999998E-002     7.7324865260797182E-012
  -1.3700000000000000E-002     1.9114824306720735E-011
  -1.3649999999999999E-002     3.3051218012447592E-011
  -1.3600000000000001E-002     4.9691285808339813E-011
  -1.3550000000000000E-002     6.9128827662190417E-011
  -1.3499999999999998E-002     9.1389437684163966E-011
  -1.3450000000000000E-002     1.1642485586715878E-010
  -1.3399999999999999E-002     1.4410686532961847E-010
  -1.3350000000000001E-002     1.7421562803487944E-010
  -1.3299999999999999E-002     2.0642484943600437E-010
  -1.3249999999999998E-002     2.4029420120363909E-010
  -1.3200000000000000E-002     2.7528454515923784E-010
  -1.3149999999999998E-002     3.1080785167780789E-010
  -1.3100000000000001E-002     3.4631297829434970E-010
  -1.3049999999999999E-002     3.8139214009191846E-010
  -1.3000000000000001E-002     4.1587930321718147E-010
  -1.2950000000000000E-002     4.4990713932158144E-010
  -1.2899999999999998E-002     4.8389481310806559E-010
  -1.2850000000000000E-002     5.1845994164523290E-010
  -1.2799999999999999E-002     5.5427118450523949E-010