  -4.0000000000000001E-002     0.0000000000000000     
  -3.9949999999999999E-002     0.0000000000000000     
  -3.9899999999999998E-002     0.0000000000000000     
  -3.9850000000000003E-002     0.0000000000000000     
  -3.9800000000000002E-002     0.0000000000000000     
  -3.9750000000000001E-002     0.0000000000000000     
  -3.9699999999999999E-002     0.0000000000000000     
  -3.9649999999999998E-002     0.0000000000000000     
  -3.9600000000000003E-002     0.0000000000000000     
  -3.9550000000000002E-002     0.0000000000000000     
  -3.9500000000000000E-002     0.0000000000000000     
  -3.9449999999999999E-002     0.0000000000000000     
  -3.9399999999999998E-002     0.0000000000000000     
  -3.9350000000000003E-002     7.5303887422964717E-038
  -3.9300000000000002E-002     1.2836004601490588E-036
  -3.9250000000000000E-002     9.7348149819983523E-036
  -3.9199999999999999E-002     3.5426193394605040E-035
  -3.9150000000000004E-002    -3.2130879173385027E-035
  -3.9100000000000003E-002    -1.2914405809923000E-033
  -3.9050000000000001E-002    -9.4948163068555000E-033
  -3.9000000000000000E-002    -4.5877157229202777E-032
  -3.8949999999999999E-002    -1.6857887125477706E-031
  -3.8900000000000004E-002    -4.8819372119478058E-031
  -3.8850000000000003E-002    -1.0868059206992900E-030
  -3.8800000000000001E-002    -1.5760229501670457E-030
  -3.8750000000000000E-002     2.3438301068158392E-031
  -3.8699999999999998E-002     1.1210967068636534E-029
  -3.8650000000000004E-002     4.7262434528523685E-029
  -3.8600000000000002E-002     1.3632488611301454E-028
  -3.8550000000000001E-002     3.1076136189426480E-028
  -3.8500000000000000E-002     5.7038305704593269E-028
  -3.8449999999999998E-002     7.8978921829954714E-028
  -3.8400000000000004E-002     5.5267200378357318E-028
  -3.8350000000000002E-002    -1.0547319898962569E-027
  -3.8300000000000001E-002    -5.5441825319293053E-027
  -3.8249999999999999E-002    -1.4694524973498199E-026
  -3.8199999999999998E-002    -2.9291249116177988E-026
  -3.8150000000000003E-002    -4.6451525412473232E-026
  -3.8100000000000002E-002    -5.5535763978689009E-026
  -3.8050000000000000E-002    -3.3893474773588095E-026
  -3.7999999999999999E-002     5.4267547690909536E-026
  -3.7949999999999998E-002     2.5035143441134551E-025
  -3.7900000000000003E-002     5.7871187350464723E-025
  -3.7850000000000002E-002     1.0051426124278462E-024
  -3.7800000000000000E-002     1.3816648054143793E-024
  -3.7749999999999999E-002     1.3983794688689534E-024
  -3.7699999999999997E-002     5.8215165918969801E-025
  -3.7650000000000003E-002    -1.6049871061944259E-024
  -3.7600000000000001E-002    -5.5220235829374562E-024
  -3.7550000000000000E-002    -1.0956487087759814E-023
  -3.7499999999999999E-002    -1.6663929847657375E-023
  -3.7449999999999997E-002    -2.0031302630435533E-023
  -3.7400000000000003E-002    -1.7153068907221966E-023
  -3.7350000000000001E-002    -3.6248932191970327E-024
  -3.7300000000000000E-002     2.3775503907337625E-023
  -3.7249999999999998E-002     6.4673529882080586E-023
  -3.7200000000000004E-002     1.1257158351195325E-022
  -3.7150000000000002E-002     1.5330366372803654E-022
  -3.7100000000000001E-002     1.6579470095473523E-022
  -3.7050000000000000E-002     1.2618657155603891E-022
  -3.6999999999999998E-002     1.5486183259055226E-023
  -3.6950000000000004E-002    -1.7056900046980992E-022
  -3.6900000000000002E-002    -4.1233312194720605E-022
  -3.6850000000000001E-002    -6.6172423878657656E-022
  -3.6799999999999999E-002    -8.4607856202100171E-022
  -3.6749999999999998E-002    -8.8214693785384002E-022
  -3.6700000000000003E-002    -6.9847207591513537E-022
  -3.6650000000000002E-002    -2.6034427484392728E-022
  -3.6600000000000001E-002     4.1132220032372667E-022
  -3.6549999999999999E-002     1.2356873523353925E-021
  -3.6499999999999998E-002     2.0865206677089233E-021
  -3.6450000000000003E-002     2.8220899376063700E-021
  -3.6400000000000002E-002     3.3182603721482264E-021
  -3.6350000000000000E-002     3.4873033133910065E-021
  -3.6299999999999999E-002     3.2671872372482227E-021
  -3.6249999999999998E-002     2.5783982338425334E-021
  -3.6200000000000003E-002     1.2657697855795141E-021
  -3.6150000000000002E-002    -9.3559947001373897E-022
  -3.6100000000000000E-002    -4.3596345134333472E-021
  -3.6049999999999999E-002    -9.2531212909756586E-021
  -3.6000000000000004E-002    -1.5501905201399587E-020
  -3.5950000000000003E-002    -2.2300199670085970E-020
  -3.5900000000000001E-002    -2.7893443824624131E-020
  -3.5850000000000000E-002    -2.9571488750626343E-020
  -3.5799999999999998E-002    -2.4078340987112240E-020
  -3.5750000000000004E-002    -8.5133063764324785E-021
  -3.5700000000000003E-002     1.8372335704969836E-020
  -3.5650000000000001E-002     5.4791931036767235E-020
  -3.5600000000000000E-002     9.4945608207577582E-020
  -3.5549999999999998E-002     1.2900523707134296E-019
  -3.5500000000000004E-002     1.4449069760932037E-019
  -3.5450000000000002E-002     1.2912036703600314E-019
  -3.5400000000000001E-002     7.4712521795867132E-020
  -3.5349999999999999E-002    -1.8809744322149000E-020
  -3.5299999999999998E-002    -1.4060516385187683E-019
  -3.5250000000000004E-002    -2.6857175467708171E-019
  -3.5200000000000002E-002    -3.7227964744208194E-019
  -3.5150000000000001E-002    -4.1910749012892605E-019
  -3.5099999999999999E-002    -3.8246217978945762E-019
  -3.5049999999999998E-002    -2.5008701047197465E-019
  -3.5000000000000003E-002    -3.0113995417775063E-020
  -3.4950000000000002E-002     2.4710489527770067E-019
  -3.4900000000000000E-002     5.3229506296688206E-019
  -3.4849999999999999E-002     7.6519405608199339E-019
  -3.4799999999999998E-002     8.8540666538716151E-019
  -3.4750000000000003E-002     8.4390031402827581E-019
  -3.4700000000000002E-002     6.1317580176108888E-019
  -3.4650000000000000E-002     1.9513412683884623E-019
  -3.4599999999999999E-002    -3.7331453512728347E-019
  -3.4549999999999997E-002    -1.0165640679547320E-018
  -3.4500000000000003E-002    -1.6191914465060639E-018
  -3.4450000000000001E-002    -2.0301420146004811E-018
  -3.4400000000000000E-002    -2.0771530969559366E-018
  -3.4349999999999999E-002    -1.5969179862039697E-018
  -3.4299999999999997E-002    -4.8373196684664881E-019
  -3.4250000000000003E-002     1.2475598695150204E-018
  -3.4200000000000001E-002     3.3985493260712772E-018
  -3.4150000000000000E-002     5.5484592584711340E-018
  -3.4099999999999998E-002     7.0689994644757270E-018
  -3.4049999999999997E-002     7.2177317340921230E-018
  -3.4000000000000002E-002     5.3174832199065578E-018
  -3.3950000000000001E-002     1.0005942864945238E-018
  -3.3900000000000000E-002    -5.5369017349987434E-018
  -3.3849999999999998E-002    -1.3353556139912689E-017
  -3.3799999999999997E-002    -2.0744103119619589E-017
  -3.3750000000000002E-002    -2.5454416752598560E-017
  -3.3700000000000001E-002    -2.5147075966467985E-017
  -3.3649999999999999E-002    -1.8057953632907980E-017
  -3.3599999999999998E-002    -3.7027177600178538E-018
  -3.3550000000000003E-002     1.6567908811011184E-017
  -3.3500000000000002E-002     3.9377358173917825E-017
  -3.3450000000000001E-002     5.9657510530303950E-017
  -3.3399999999999999E-002     7.1551949279639270E-017
  -3.3349999999999998E-002     6.9773399607491325E-017
  -3.3300000000000003E-002     5.1140029221356222E-017
  -3.3250000000000002E-002     1.5903117439644545E-017
  -3.3200000000000000E-002    -3.1542370103682308E-017
  -3.3149999999999999E-002    -8.2878551631221573E-017
  -3.3099999999999997E-002    -1.2713085116311969E-016
  -3.3050000000000003E-002    -1.5282934009202808E-016
  -3.3000000000000002E-002    -1.5065435941542002E-016
  -3.2950000000000000E-002    -1.1597286115907768E-016
  -3.2899999999999999E-002    -5.0628239174690447E-017
  -3.2850000000000004E-002     3.6533903510054753E-017
  -3.2800000000000003E-002     1.3065812795743808E-016
  -3.2750000000000001E-002     2.1329883105914891E-016
  -3.2700000000000000E-002     2.6583973338049572E-016
  -3.2649999999999998E-002     2.7324497477669322E-016
  -3.2600000000000004E-002     2.2739200617632065E-016
  -3.2550000000000003E-002     1.2932771227732709E-016
  -3.2500000000000001E-002    -9.9791136658115317E-018
  -3.2450000000000000E-002    -1.7052198989537983E-016
  -3.2399999999999998E-002    -3.2563453317718542E-016
  -3.2350000000000004E-002    -4.4553211247003510E-016
  -3.2300000000000002E-002    -5.0160929542921311E-016
  -3.2250000000000001E-002    -4.7108896905063570E-016
  -3.2199999999999999E-002    -3.4163547377454042E-016
  -3.2149999999999998E-002    -1.1550022599692426E-016
  -3.2100000000000004E-002     1.8737244335690623E-016
  -3.2050000000000002E-002     5.2806553168147471E-016
  -3.2000000000000001E-002     8.5019988246442722E-016
  -3.1949999999999999E-002     1.0851824535931377E-015
  -3.1899999999999998E-002     1.1617619039555912E-015
  -3.1850000000000003E-002     1.0196387018280812E-015
  -3.1800000000000002E-002     6.2565221524006271E-016
  -3.1750000000000000E-002    -1.0319032991348340E-017
  -3.1699999999999999E-002    -8.2377034369448659E-016
  -3.1649999999999998E-002    -1.6927754095406257E-015
  -3.1600000000000003E-002    -2.4477893851095783E-015
  -3.1550000000000002E-002    -2.8958403409807987E-015
  -3.1500000000000000E-002    -2.8576815832318133E-015
  -3.1449999999999999E-002    -2.2126112880957695E-015
  -3.1399999999999997E-002    -9.4205607603784995E-016
  -3.1350000000000003E-002     8.3923149105251435E-016
  -3.1300000000000001E-002     2.8753843519715770E-015
  -3.1250000000000000E-002     4.7929862661793120E-015
  -3.1199999999999999E-002     6.1579767126183127E-015
  -3.1150000000000001E-002     6.5599766921975807E-015
  -3.1100000000000003E-002     5.7099162892508150E-015
  -3.1050000000000001E-002     3.5304624956627103E-015
  -3.1000000000000000E-002     2.1623146803996419E-016
  -3.0949999999999998E-002    -3.7564446074343900E-015
  -3.0900000000000000E-002    -7.6820622120536097E-015
  -3.0850000000000002E-002    -1.0739832356272820E-014
  -3.0800000000000001E-002    -1.2153132487570987E-014
  -3.0750000000000000E-002    -1.1365381686338865E-014
  -3.0699999999999998E-002    -8.1947974660420058E-015
  -3.0650000000000000E-002    -2.9298942547816954E-015
  -3.0600000000000002E-002     3.6640318315805792E-015
  -3.0550000000000001E-002     1.0440700186918740E-014
  -3.0499999999999999E-002     1.6062640296393386E-014
  -3.0449999999999998E-002     1.9254644196414384E-014
  -3.0400000000000000E-002     1.9073269310325539E-014
  -3.0350000000000002E-002     1.5136561282361505E-014
  -3.0300000000000001E-002     7.7619740684678454E-015
  -3.0249999999999999E-002    -2.0241104412228930E-015
  -3.0200000000000001E-002    -1.2617335929520151E-014
  -3.0150000000000000E-002    -2.2090526875241342E-014
  -3.0100000000000002E-002    -2.8530646640396484E-014
  -3.0050000000000000E-002    -3.0397134797828657E-014
  -2.9999999999999999E-002    -2.6835064956218931E-014
  -2.9950000000000001E-002    -1.7883830995275723E-014
  -2.9899999999999999E-002    -4.5405540830238632E-015
  -2.9850000000000002E-002     1.1336894370891086E-014
  -2.9800000000000000E-002     2.7274917743452246E-014
  -2.9749999999999999E-002     4.0541431063685957E-014
  -2.9700000000000001E-002     4.8563396480638609E-014
  -2.9650000000000003E-002     4.9345812123127249E-014
  -2.9600000000000001E-002     4.1834898089967212E-014
  -2.9550000000000000E-002     2.6175636076557435E-014
  -2.9499999999999998E-002     3.8249217007791393E-015
  -2.9450000000000000E-002    -2.2506122249667517E-014
  -2.9400000000000003E-002    -4.9093403839843870E-014
  -2.9350000000000001E-002    -7.1621236796033361E-014
  -2.9300000000000000E-002    -8.5759873614390744E-014
  -2.9249999999999998E-002    -8.7849300131675223E-014
  -2.9200000000000000E-002    -7.5609617603455639E-014
  -2.9150000000000002E-002    -4.8769892688286987E-014
  -2.9100000000000001E-002    -9.4883675271114545E-015
  -2.9049999999999999E-002     3.7562664043961779E-014
  -2.8999999999999998E-002     8.5545385743481578E-014
  -2.8950000000000000E-002     1.2627625206357680E-013
  -2.8900000000000002E-002     1.5146744808336807E-013
  -2.8850000000000001E-002     1.5423834178914249E-013
  -2.8799999999999999E-002     1.3065119864109446E-013
  -2.8749999999999998E-002     8.0963505634469589E-014
  -2.8700000000000000E-002     1.0283873727559546E-014
  -2.8650000000000002E-002    -7.1616388950667784E-014
  -2.8600000000000000E-002    -1.5144887165082535E-013
  -2.8549999999999999E-002    -2.1443698056126485E-013
  -2.8500000000000001E-002    -2.4695043379218004E-013
  -2.8450000000000000E-002    -2.3929247550194262E-013
  -2.8400000000000002E-002    -1.8808566672387004E-013
  -2.8350000000000000E-002    -9.7709546806374236E-014
  -2.8299999999999999E-002     1.9626450476799013E-014
  -2.8250000000000001E-002     1.4535245108107286E-013
  -2.8200000000000003E-002     2.5742238294900968E-013
  -2.8150000000000001E-002     3.3417402279983748E-013
  -2.8100000000000000E-002     3.5847848827409064E-013
  -2.8049999999999999E-002     3.2137268441856962E-013
  -2.8000000000000001E-002     2.2440779704754073E-013
  -2.7950000000000003E-002     8.0155867376523009E-014
  -2.7900000000000001E-002    -8.9346664519714388E-014
  -2.7850000000000000E-002    -2.5603536694302051E-013
  -2.7799999999999998E-002    -3.9056745627893720E-013
  -2.7750000000000000E-002    -4.6753665223097248E-013
  -2.7700000000000002E-002    -4.7018778467718747E-013
  -2.7650000000000001E-002    -3.9374187177896260E-013
  -2.7600000000000000E-002    -2.4669552966332667E-013
  -2.7549999999999998E-002    -4.9835529959749258E-014
  -2.7500000000000000E-002     1.6686993688242664E-013
  -2.7450000000000002E-002     3.6896165865032301E-013
  -2.7400000000000001E-002     5.2295886505979177E-013
  -2.7349999999999999E-002     6.0170242577369270E-013
  -2.7299999999999998E-002     5.8873363951020311E-013
  -2.7250000000000000E-002     4.8107179425583752E-013
  -2.7200000000000002E-002     2.9003915586521749E-013
  -2.7150000000000001E-002     4.0083398801029721E-014
  -2.7099999999999999E-002    -2.3419128316664303E-013
  -2.7049999999999998E-002    -4.9238258601561747E-013
  -2.7000000000000000E-002    -6.9352826083303001E-013
  -2.6950000000000002E-002    -8.0166627967579899E-013
  -2.6900000000000000E-002    -7.9114876185198276E-013
  -2.6849999999999999E-002    -6.5113911876613021E-013
  -2.6800000000000001E-002    -3.8872360449416455E-013
  -2.6749999999999999E-002    -3.0091637055124618E-014
  -2.6700000000000002E-002     3.8068570459534425E-013
  -2.6650000000000000E-002     7.8557161701172253E-013
  -2.6599999999999999E-002     1.1191649005349214E-012
  -2.6550000000000001E-002     1.3175524545980918E-012
  -2.6500000000000003E-002     1.3284813059821504E-012
  -2.6450000000000001E-002     1.1214448282375987E-012
  -2.6400000000000000E-002     6.9595206025583381E-013
  -2.6349999999999998E-002     8.6195600557943444E-014
  -2.6300000000000000E-002    -6.3936125870396107E-013
  -2.6250000000000002E-002    -1.3842733018600321E-012
  -2.6200000000000001E-002    -2.0360849646890091E-012
  -2.6150000000000000E-002    -2.4826604582999740E-012
  -2.6099999999999998E-002    -2.6304960466816158E-012
  -2.6050000000000000E-002    -2.4219229126848913E-012
  -2.6000000000000002E-002    -1.8479216089882950E-012
  -2.5950000000000001E-002    -9.5373741096072377E-013
  -2.5899999999999999E-002     1.6441095217630229E-013
  -2.5849999999999998E-002     1.3716705054883141E-012
  -2.5800000000000000E-002     2.5143293419447798E-012
  -2.5750000000000002E-002     3.4438384513778154E-012
  -2.5700000000000001E-002     4.0408358405438514E-012
  -2.5649999999999999E-002     4.2346708846965216E-012
  -2.5599999999999998E-002     4.0145610357355333E-012
  -2.5550000000000000E-002     3.4299820821010926E-012
  -2.5500000000000002E-002     2.5799465562919208E-012
  -2.5450000000000000E-002     1.5930121673311299E-012
  -2.5399999999999999E-002     6.0180709202540130E-013
  -2.5349999999999998E-002    -2.8292821381490735E-013
  -2.5300000000000000E-002    -9.9353504827579027E-013
  -2.5250000000000002E-002    -1.5174450603850417E-012
  -2.5200000000000000E-002    -1.8973266444216539E-012
  -2.5149999999999999E-002    -2.2190193142570641E-012
  -2.5100000000000001E-002    -2.5893402422415779E-012
  -2.5049999999999999E-002    -3.1078971106436383E-012
  -2.5000000000000001E-002    -3.8382807908858713E-012
  -2.4950000000000000E-002    -4.7842011984915187E-012
  -2.4899999999999999E-002    -5.8752562228367232E-012
  -2.4850000000000001E-002    -6.9652899027272489E-012
  -2.4800000000000003E-002    -7.8440760249680861E-012
  -2.4750000000000001E-002    -8.2608391474761852E-012
  -2.4700000000000000E-002    -7.9563373832880239E-012
  -2.4649999999999998E-002    -6.6991296330506566E-012
  -2.4600000000000000E-002    -4.3214907783706500E-012
  -2.4550000000000002E-002    -7.5094901321489598E-013
  -2.4500000000000001E-002     3.9654667489336331E-012
  -2.4450000000000000E-002     9.6459522286999472E-012
  -2.4399999999999998E-002     1.5968187734787098E-011
  -2.4350000000000000E-002     2.2472945425875297E-011
  -2.4299999999999999E-002     2.8576509297532386E-011
  -2.4250000000000001E-002     3.3591330448536854E-011
  -2.4199999999999999E-002     3.6754317440720583E-011
  -2.4150000000000001E-002     3.7261943046534337E-011
  -2.4100000000000000E-002     3.4310807460978220E-011
  -2.4049999999999998E-002     2.7141297144209539E-011
  -2.4000000000000000E-002     1.5080774785087422E-011
  -2.3949999999999999E-002    -2.4182193063828465E-012
  -2.3900000000000001E-002    -2.5749676825922395E-011
  -2.3850000000000000E-002    -5.5140137617274405E-011
  -2.3800000000000002E-002    -9.0651637225679014E-011
  -2.3750000000000000E-002    -1.3220159259100634E-010
  -2.3699999999999999E-002    -1.7959625771428825E-010
  -2.3650000000000001E-002    -2.3257148248620396E-010
  -2.3599999999999999E-002    -2.9083238962924453E-010
  -2.3550000000000001E-002    -3.5408288998278599E-010
  -2.3500000000000000E-002    -4.2203839980005021E-010
  -2.3449999999999999E-002    -4.9441785162537720E-010
  -2.3400000000000001E-002    -5.7091644218684974E-010
  -2.3349999999999999E-002    -6.5116617180307200E-010
  -2.3300000000000001E-002    -7.3469408914865733E-010
  -2.3250000000000000E-002    -8.2089197838254176E-010
  -2.3199999999999998E-002    -9.0900866833489030E-010
  -2.3150000000000000E-002    -9.9817374166263923E-010
  -2.3099999999999999E-002    -1.0874541151150460E-009
  -2.3050000000000001E-002    -1.1759374383011515E-009
  -2.3000000000000000E-002    -1.2628314538624807E-009
  -2.2950000000000002E-002    -1.3475614499337911E-009
  -2.2900000000000000E-002    -1.4298463525413208E-009
  -2.2849999999999999E-002    -1.5097408051502590E-009
  -2.2800000000000001E-002    -1.5876304747389866E-009
  -2.2749999999999999E-002    -1.6641815980480792E-009
  -2.2700000000000001E-002    -1.7402527949991354E-009
  -2.2650000000000000E-002    -1.8167832473188233E-009
  -2.2599999999999999E-002    -1.8946773002782539E-009
  -2.2550000000000001E-002    -1.9747057536265711E-009
  -2.2499999999999999E-002    -2.0574383780348721E-009
  -2.2450000000000001E-002    -2.1432167163750231E-009
  -2.2400000000000000E-002    -2.2321665326566078E-009
  -2.2349999999999998E-002    -2.3242415644750311E-009
  -2.2300000000000000E-002    -2.4192854572488071E-009
  -2.2249999999999999E-002    -2.5170972063192077E-009
  -2.2200000000000001E-002    -2.6174843139520774E-009
  -2.2150000000000000E-002    -2.7202974319057842E-009
  -2.2100000000000002E-002    -2.8254452896820089E-009
  -2.2050000000000000E-002    -2.9328915438305353E-009
  -2.1999999999999999E-002    -3.0426419071891474E-009
  -2.1950000000000001E-002    -3.1547319887524101E-009
  -2.1899999999999999E-002    -3.2692217426307428E-009
  -2.1850000000000001E-002    -3.3861984037729586E-009
  -2.1800000000000000E-002    -3.5057854250570878E-009
  -2.1749999999999999E-002    -3.6281515799669882E-009
  -2.1700000000000001E-002    -3.7535119567384474E-009
  -2.1649999999999999E-002    -3.8821168501821581E-009
  -2.1600000000000001E-002    -4.0142255636353241E-009
  -2.1550000000000000E-002    -4.1500706366484034E-009
  -2.1499999999999998E-002    -4.2898207976059969E-009
  -2.1450000000000000E-002    -4.4335565365540190E-009
  -2.1399999999999999E-002    -4.5812657525386489E-009
  -2.1350000000000001E-002    -4.7328664315863827E-009
  -2.1299999999999999E-002    -4.8882566987682491E-009
  -2.1250000000000002E-002    -5.0473778516535970E-009
  -2.1200000000000000E-002    -5.2102804712627422E-009
  -2.1149999999999999E-002    -5.3771680727997097E-009
  -2.1100000000000001E-002    -5.5484092976145055E-009
  -2.1049999999999999E-002    -5.7245035719867259E-009
  -2.1000000000000001E-002    -5.9060118563253159E-009
  -2.0950000000000000E-002    -6.0934546473266115E-009
  -2.0899999999999998E-002    -6.2872098427310050E-009
  -2.0850000000000000E-002    -6.4874313728567546E-009
  -2.0799999999999999E-002    -6.6940081473039499E-009
  -2.0750000000000001E-002    -6.9065836445222262E-009
  -2.0700000000000000E-002    -7.1246325249357033E-009
  -2.0649999999999998E-002    -7.3475819783166462E-009
  -2.0600000000000000E-002    -7.5749563453003239E-009
  -2.0549999999999999E-002    -7.8065136018111885E-009
  -2.0500000000000001E-002    -8.0423420942898796E-009
  -2.0449999999999999E-002    -8.2829000147854581E-009
  -2.0400000000000001E-002    -8.5289880926116850E-009
  -2.0350000000000000E-002    -8.7816562655771387E-009
  -2.0299999999999999E-002    -9.0420712045279556E-009
  -2.0250000000000001E-002    -9.3113600512363451E-009
  -2.0199999999999999E-002    -9.5904752941316179E-009
  -2.0150000000000001E-002    -9.8800861050741649E-009
  -2.0100000000000000E-002    -1.0180529676186505E-008
  -2.0049999999999998E-002    -1.0491815111464888E-008
  -2.0000000000000000E-002    -1.0813677622333200E-008
  -1.9949999999999999E-002    -1.1145667021731764E-008
  -1.9900000000000001E-002    -1.1487253639175064E-008
  -1.9850000000000000E-002    -1.1837928569513615E-008
  -1.9799999999999998E-002    -1.2197283471649439E-008
  -1.9750000000000000E-002    -1.2565064504168733E-008
  -1.9699999999999999E-002    -1.2941197728752052E-008
  -1.9650000000000001E-002    -1.3325791375255525E-008
  -1.9599999999999999E-002    -1.3719114857761096E-008
  -1.9550000000000001E-002    -1.4121577988817931E-008
  -1.9500000000000000E-002    -1.4533696920999274E-008
  -1.9449999999999999E-002    -1.4956067192558356E-008
  -1.9400000000000001E-002    -1.5389334846525115E-008
  -1.9349999999999999E-002    -1.5834173383768487E-008
  -1.9300000000000001E-002    -1.6291252954059525E-008
  -1.9250000000000000E-002    -1.6761214443473846E-008
  -1.9199999999999998E-002    -1.7244648954143781E-008
  -1.9150000000000000E-002    -1.7742076198339755E-008
  -1.9099999999999999E-002    -1.8253941242590309E-008
  -1.9050000000000001E-002    -1.8780618244669466E-008
  -1.9000000000000000E-002    -1.9322422531237377E-008
  -1.8949999999999998E-002    -1.9879652403279359E-008
  -1.8900000000000000E-002    -2.0452613176529978E-008
  -1.8849999999999999E-002    -2.1041663422811258E-008
  -1.8800000000000001E-002    -2.1647236605078920E-008
  -1.8749999999999999E-002    -2.2269840521935517E-008
  -1.8700000000000001E-002    -2.2910042398217560E-008
  -1.8650000000000000E-002    -2.3568427760057642E-008
  -1.8599999999999998E-002    -2.4245543916456050E-008
  -1.8550000000000001E-002    -2.4941836830074785E-008
  -1.8499999999999999E-002    -2.5657598317217020E-008
  -1.8450000000000001E-002    -2.6392950638020091E-008
  -1.8400000000000000E-002    -2.7147845431792002E-008
  -1.8349999999999998E-002    -2.7922124027569480E-008
  -1.8300000000000000E-002    -2.8715593451669926E-008
  -1.8249999999999999E-002    -2.9528131534010734E-008
  -1.8200000000000001E-002    -3.0359795182879879E-008
  -1.8149999999999999E-002    -3.1210902384838067E-008
  -1.8100000000000002E-002    -3.2082082946075592E-008
  -1.8050000000000000E-002    -3.2974268573476776E-008
  -1.7999999999999999E-002    -3.3888659537611197E-008
  -1.7950000000000001E-002    -3.4826622472940148E-008
  -1.7899999999999999E-002    -3.5789581898901387E-008
  -1.7850000000000001E-002    -3.6778908272506327E-008
  -1.7800000000000000E-002    -3.7795816196316056E-008
  -1.7749999999999998E-002    -3.8841301432530099E-008
  -1.7700000000000000E-002    -3.9916116507523192E-008
  -1.7649999999999999E-002    -4.1020785122133537E-008
  -1.7600000000000001E-002    -4.2155628252793904E-008
  -1.7550000000000000E-002    -4.3320839021752309E-008
  -1.7499999999999998E-002    -4.4516540034859429E-008
  -1.7450000000000000E-002    -4.5742848050674493E-008
  -1.7399999999999999E-002    -4.6999947918971505E-008
  -1.7350000000000001E-002    -4.8288140755916952E-008
  -1.7299999999999999E-002    -4.9607876810033850E-008
  -1.7250000000000001E-002    -5.0959795004588469E-008
  -1.7200000000000000E-002    -5.2344725972382929E-008
  -1.7149999999999999E-002    -5.3763692382086350E-008
  -1.7100000000000001E-002    -5.5217857236710930E-008
  -1.7049999999999999E-002    -5.6708474302902151E-008
  -1.7000000000000001E-002    -5.8236805457270248E-008
  -1.6950000000000000E-002    -5.9804042465757640E-008
  -1.6899999999999998E-002    -6.1411253164235345E-008
  -1.6850000000000000E-002    -6.3059355583067133E-008
  -1.6799999999999999E-002    -6.4749098096294349E-008
  -1.6750000000000001E-002    -6.6481166383221467E-008
  -1.6700000000000000E-002    -6.8256248556692048E-008
  -1.6649999999999998E-002    -7.0075133544675990E-008
  -1.6600000000000000E-002    -7.1938835194552116E-008
  -1.6549999999999999E-002    -7.3848643949989819E-008
  -1.6500000000000001E-002    -7.5806078076641198E-008
  -1.6449999999999999E-002    -7.7812849503723577E-008
  -1.6400000000000001E-002    -7.9870731562017919E-008
  -1.6350000000000000E-002    -8.1981399702021174E-008
  -1.6299999999999999E-002    -8.4146317169196224E-008
  -1.6250000000000001E-002    -8.6366643770852125E-008
  -1.6199999999999999E-002    -8.8643204204117226E-008
  -1.6150000000000001E-002    -9.0976541878569834E-008
  -1.6100000000000000E-002    -9.3367016466452398E-008
  -1.6049999999999998E-002    -9.5814936763012474E-008
  -1.6000000000000000E-002    -9.8320662585489729E-008
  -1.5949999999999999E-002    -1.0088472114733363E-007
  -1.5900000000000001E-002    -1.0350783402253790E-007
  -1.5850000000000000E-002    -1.0619094228513546E-007
  -1.5799999999999998E-002    -1.0893513201045064E-007
  -1.5750000000000000E-002    -1.1174164762294882E-007
  -1.5699999999999999E-002    -1.1461182395479339E-007
  -1.5650000000000001E-002    -1.1754711657753042E-007
  -1.5599999999999999E-002    -1.2054913596963839E-007
  -1.5550000000000001E-002    -1.2361966151428720E-007
  -1.5500000000000000E-002    -1.2676071802990237E-007
  -1.5449999999999998E-002    -1.2997449607895744E-007
  -1.5400000000000000E-002    -1.3326335923761307E-007
  -1.5349999999999999E-002    -1.3662972291821749E-007
  -1.5300000000000001E-002    -1.4007590278426347E-007
  -1.5250000000000000E-002    -1.4360404599236543E-007
  -1.5199999999999998E-002    -1.4721602893552066E-007
  -1.5150000000000000E-002    -1.5091344003193857E-007
  -1.5099999999999999E-002    -1.5469767259118535E-007
  -1.5050000000000001E-002    -1.5857004814913631E-007
  -1.4999999999999999E-002    -1.6253196594229328E-007
  -1.4949999999999998E-002    -1.6658511564704587E-007
  -1.4900000000000000E-002    -1.7073151877973731E-007
  -1.4849999999999999E-002    -1.7497354614642985E-007
  -1.4800000000000001E-002    -1.7931389408919567E-007
  -1.4749999999999999E-002    -1.8375540264889227E-007
  -1.4700000000000001E-002    -1.8830086200493798E-007
  -1.4650000000000000E-002    -1.9295287165799063E-007
  -1.4599999999999998E-002    -1.9771372706494705E-007
  -1.4550000000000000E-002    -2.0258534729978714E-007
  -1.4499999999999999E-002    -2.0756935767441459E-007
  -1.4450000000000001E-002    -2.1266717403800428E-007
  -1.4400000000000000E-002    -2.1788024154133089E-007
  -1.4349999999999998E-002    -2.2321013351021578E-007
  -1.4300000000000000E-002    -2.2865870939325668E-007
  -1.4249999999999999E-002    -2.3422818380596786E-007
  -1.4200000000000001E-002    -2.3992104418584715E-007
  -1.4149999999999999E-002    -2.4573995224006964E-007
  -1.4099999999999998E-002    -2.5168766837790937E-007
  -1.4050000000000000E-002    -2.5776677905134663E-007
  -1.3999999999999999E-002    -2.6397964037521551E-007
  -1.3950000000000001E-002    -2.7032825431161281E-007
  -1.3899999999999999E-002    -2.7681426922546871E-007
  -1.3850000000000001E-002    -2.8343911855909382E-007
  -1.3800000000000000E-002    -2.9020399353552056E-007
  -1.3749999999999998E-002    -2.9711001785932144E-007
  -1.3700000000000000E-002    -3.0415851057807329E-007
  -1.3649999999999999E-002    -3.1135098701859753E-007
  -1.3600000000000001E-002    -3.1868928167252181E-007
  -1.3550000000000000E-002    -3.2617557575037396E-007
  -1.3499999999999998E-002    -3.3381231243906124E-007
  -1.3450000000000000E-002    -3.4160239144390263E-007
  -1.3399999999999999E-002    -3.4954890536728116E-007
  -1.3350000000000001E-002    -3.5765533576832289E-007
  -1.3299999999999999E-002    -3.6592542810489411E-007
  -1.3249999999999998E-002    -3.7436331034562779E-007
  -1.3200000000000000E-002    -3.8297343046135126E-007
  -1.3149999999999998E-002    -3.9176065375884840E-007
  -1.3100000000000001E-002    -4.0073012781812281E-007
  -1.3049999999999999E-002    -4.0988712473195211E-007
  -1.3000000000000001E-002    -4.1923707753543576E-007
  -1.2950000000000000E-002    -4.2878524636148008E-007
  -1.2899999999999998E-002    -4.3853666943468963E-007
  -1.2850000000000000E-002    -4.4849604193639493E-007
  -1.2799999999999999E-002    -4.5866785691044133E-007