  -4.0000000000000001E-002     0.0000000000000000     
  -3.9949999999999999E-002     0.0000000000000000     
  -3.9899999999999998E-002     0.0000000000000000     
  -3.9850000000000003E-002     0.0000000000000000     
  -3.9800000000000002E-002     0.0000000000000000     
  -3.9750000000000001E-002     0.0000000000000000     
  -3.9699999999999999E-002     0.0000000000000000     
  -3.9649999999999998E-002     0.0000000000000000     
  -3.9600000000000003E-002     0.0000000000000000     
  -3.9550000000000002E-002     0.0000000000000000     
  -3.9500000000000000E-002     0.0000000000000000     
  -3.9449999999999999E-002     0.0000000000000000     
  -3.9399999999999998E-002     0.0000000000000000     
  -3.9350000000000003E-002     0.0000000000000000     
  -3.9300000000000002E-002     0.0000000000000000     
  -3.9250000000000000E-002     0.0000000000000000     
  -3.9199999999999999E-002     0.0000000000000000     
  -3.9150000000000004E-002     0.0000000000000000     
  -3.9100000000000003E-002     0.0000000000000000     
  -3.9050000000000001E-002     0.0000000000000000     
  -3.9000000000000000E-002     0.0000000000000000     
  -3.8949999999999999E-002     8.0845526352584273E-052
  -3.8900000000000004E-002    -2.6711132778352864E-037
  -3.8850000000000003E-002    -2.0709993509619275E-036
  -3.8800000000000001E-002    -9.9389894305009854E-036
  -3.8750000000000000E-002    -3.2595519919928910E-035
  -3.8699999999999998E-002    -6.4497238970088670E-035
  -3.8650000000000004E-002     4.2165660699558172E-036
  -3.8600000000000002E-002     6.1422172499217143E-034
  -3.8550000000000001E-002     2.7837714097524818E-033
  -3.8500000000000000E-002     7.5749881649858530E-033
  -3.8449999999999998E-002     1.2767865661213419E-032
  -3.8400000000000004E-002     4.4492090273344660E-033
  -3.8350000000000002E-002    -5.3901687614962598E-032
  -3.8300000000000001E-002    -2.1685140792895497E-031
  -3.8249999999999999E-002    -4.9573131586042421E-031
  -3.8199999999999998E-002    -6.9555122531477519E-031
  -3.8150000000000003E-002    -1.8047993183041562E-031
  -3.8100000000000002E-002     2.1909838600282412E-030
  -3.8050000000000000E-002     7.4317390872525638E-030
  -3.7999999999999999E-002     1.4508781332677901E-029
  -3.7949999999999998E-002     1.7297787108196578E-029
  -3.7900000000000003E-002     2.5058708099322474E-030
  -3.7850000000000002E-002    -4.6788845983753968E-029
  -3.7800000000000000E-002    -1.3656003443399791E-028
  -3.7749999999999999E-002    -2.3559142878027810E-028
  -3.7699999999999997E-002    -2.4975360701659719E-028
  -3.7650000000000003E-002    -2.6212823121266067E-029
  -3.7600000000000001E-002     5.7459116212243001E-028
  -3.7550000000000000E-002     1.5218424495760163E-027
  -3.7499999999999999E-002     2.4180611274507693E-027
  -3.7449999999999997E-002     2.4026278467410823E-027
  -3.7400000000000003E-002     3.6088742460399299E-028
  -3.7350000000000001E-002    -4.4060537279847539E-027
  -3.7300000000000000E-002    -1.1141840913707895E-026
  -3.7249999999999998E-002    -1.6738730814916614E-026
  -3.7200000000000004E-002    -1.5895422573619004E-026
  -3.7150000000000002E-002    -3.2269666443386818E-027
  -3.7100000000000001E-002     2.2605361415741828E-026
  -3.7050000000000000E-002     5.4387306515116873E-026
  -3.6999999999999998E-002     7.4989810505115090E-026
  -3.6950000000000004E-002     6.3100772185801795E-026
  -3.6900000000000002E-002     7.1139964393637969E-027
  -3.6850000000000001E-002    -7.8406568872197384E-026
  -3.6799999999999999E-002    -1.4676765688099122E-025
  -3.6749999999999998E-002    -1.3843601203614734E-025
  -3.6700000000000003E-002    -2.8852366946753015E-026
  -3.6650000000000002E-002     1.1742902072659346E-025
  -3.6600000000000001E-002     1.3531038912537517E-025
  -3.6549999999999999E-002    -1.5814674034883725E-025
  -3.6499999999999998E-002    -7.8207520193691736E-025
  -3.6450000000000003E-002    -1.3992811884555555E-024
  -3.6400000000000002E-002    -1.2893041155673209E-024
  -3.6350000000000000E-002     3.4110698619494615E-025
  -3.6299999999999999E-002     3.7061149445519686E-024
  -3.6249999999999998E-002     7.7448601319029309E-024
  -3.6200000000000003E-002     9.9378238952292366E-024
  -3.6150000000000002E-002     7.1476229509130929E-024
  -3.6100000000000000E-002    -2.5132364232592177E-024
  -3.6049999999999999E-002    -1.7608691167205297E-023
  -3.6000000000000004E-002    -3.2533499248878818E-023
  -3.5950000000000003E-002    -3.9085706882764213E-023
  -3.5900000000000001E-002    -3.0301283016050226E-023
  -3.5850000000000000E-002    -4.5644019464162453E-024
  -3.5799999999999998E-002     3.2904628016113272E-023
  -3.5750000000000004E-002     7.2760362582474601E-023
  -3.5700000000000003E-002     1.0656892798706131E-022
  -3.5650000000000001E-002     1.2901371132048484E-022
  -3.5600000000000000E-002     1.3260026036339867E-022
  -3.5549999999999998E-002     9.6600734642820380E-023
  -3.5500000000000004E-002    -1.8171439740594986E-023
  -3.5450000000000002E-002    -2.5182383040865403E-022
  -3.5400000000000001E-002    -5.9683708060830338E-022
  -3.5349999999999999E-002    -9.3595281260979275E-022
  -3.5299999999999998E-002    -1.0154687189313664E-021
  -3.5250000000000004E-002    -5.1511894968229714E-022
  -3.5200000000000002E-002     7.5766957688083102E-022
  -3.5150000000000001E-002     2.6053269591615402E-021
  -3.5099999999999999E-002     4.2654433175724980E-021
  -3.5049999999999998E-002     4.5241397465639782E-021
  -3.5000000000000003E-002     2.2348716137432911E-021
  -3.4950000000000002E-002    -2.8656159012384400E-021
  -3.4900000000000000E-002    -9.4344421705902791E-021
  -3.4849999999999999E-002    -1.4443443937323177E-020
  -3.4799999999999998E-002    -1.4149319068416854E-020
  -3.4750000000000003E-002    -6.0143985022185115E-021
  -3.4700000000000002E-002     9.2040506339776079E-021
  -3.4650000000000000E-002     2.6445978804746612E-020
  -3.4599999999999999E-002     3.7504343806071437E-020
  -3.4549999999999997E-002     3.4468758942021967E-020
  -3.4500000000000003E-002     1.4169941222216172E-020
  -3.4450000000000001E-002    -1.8737942096806653E-020
  -3.4400000000000000E-002    -5.2304406224051393E-020
  -3.4349999999999999E-002    -7.2023718317140199E-020
  -3.4299999999999997E-002    -6.7848073076870803E-020
  -3.4250000000000003E-002    -3.9570076057065027E-020
  -3.4200000000000001E-002     3.1200147966285113E-021
  -3.4150000000000000E-002     4.6670218519351745E-020
  -3.4099999999999998E-002     8.2204165841901099E-020
  -3.4049999999999997E-002     1.1001700980977379E-019
  -3.4000000000000002E-002     1.3478984279198734E-019
  -3.3950000000000001E-002     1.5250628071830154E-019
  -3.3900000000000000E-002     1.3827695918892811E-019
  -3.3849999999999998E-002     4.8718077619509992E-020
  -3.3799999999999997E-002    -1.5225528961604109E-019
  -3.3750000000000002E-002    -4.5017394209700019E-019
  -3.3700000000000001E-002    -7.4358228584952811E-019
  -3.3649999999999999E-002    -8.4832697690062568E-019
  -3.3599999999999998E-002    -5.6580242193732911E-019
  -3.3550000000000003E-002     1.9476987935360071E-019
  -3.3500000000000002E-002     1.2929292749816913E-018
  -3.3450000000000001E-002     2.3130471980685386E-018
  -3.3399999999999999E-002     2.6675310102609558E-018
  -3.3349999999999998E-002     1.8523046060942420E-018
  -3.3300000000000003E-002    -2.3233722604553480E-019
  -3.3250000000000002E-002    -3.0574049057127768E-018
  -3.3200000000000000E-002    -5.5043783635343837E-018
  -3.3149999999999999E-002    -6.2418484212408672E-018
  -3.3099999999999997E-002    -4.3453578344198945E-018
  -3.3050000000000003E-002     1.0176705454679632E-019
  -3.3000000000000002E-002     5.7576951259894289E-018
  -3.2950000000000000E-002     1.0353262147092827E-017
  -3.2899999999999999E-002     1.1580017278067706E-017
  -3.2850000000000004E-002     8.2012912682182631E-018
  -3.2800000000000003E-002     8.5466608322152205E-019
  -3.2750000000000001E-002    -7.9337243796294378E-018
  -3.2700000000000000E-002    -1.4673615213057136E-017
  -3.2649999999999998E-002    -1.6445127316544890E-017
  -3.2600000000000004E-002    -1.2326953884883993E-017
  -3.2550000000000003E-002    -3.9455144326774850E-018
  -3.2500000000000001E-002     5.2549849760978002E-018
  -3.2450000000000000E-002     1.1754357304595627E-017
  -3.2399999999999998E-002     1.3816025790220960E-017
  -3.2350000000000004E-002     1.2365014156494498E-017
  -3.2300000000000002E-002     1.0209520055831608E-017
  -3.2250000000000001E-002     9.8590507239522836E-018
  -3.2199999999999999E-002     1.1162151659308933E-017
  -3.2149999999999998E-002     1.0405338720563893E-017
  -3.2100000000000004E-002     1.9839287790929723E-018
  -3.2050000000000002E-002    -1.7640622673288253E-017
  -3.2000000000000001E-002    -4.5606645491270632E-017
  -3.1949999999999999E-002    -7.0760563136323975E-017
  -3.1899999999999998E-002    -7.6454377569828405E-017
  -3.1850000000000003E-002    -4.8140267813966103E-017
  -3.1800000000000002E-002     1.7014382011031018E-017
  -3.1750000000000000E-002     1.0341286836538378E-016
  -3.1699999999999999E-002     1.7808198131133227E-016
  -3.1649999999999998E-002     2.0151225188757854E-016
  -3.1600000000000003E-002     1.4550798726746472E-016
  -3.1550000000000002E-002     1.0668559474133780E-017
  -3.1500000000000000E-002    -1.6569640532105312E-016
  -3.1449999999999999E-002    -3.1776587641988809E-016
  -3.1399999999999997E-002    -3.7530125576543354E-016
  -3.1350000000000003E-002    -2.9519752588096480E-016
  -3.1300000000000001E-002    -8.6432599403921743E-017
  -3.1250000000000000E-002     1.8514177246837064E-016
  -3.1199999999999999E-002     4.1809569587263760E-016
  -3.1150000000000001E-002     5.1659863777169021E-016
  -3.1100000000000003E-002     4.3416638655739723E-016
  -3.1050000000000001E-002     1.9865121353327867E-016
  -3.1000000000000000E-002    -9.6372334855432389E-017
  -3.0949999999999998E-002    -3.3330994101063574E-016
  -3.0900000000000000E-002    -4.2728695295639537E-016
  -3.0850000000000002E-002    -3.6928632796742370E-016
  -3.0800000000000001E-002    -2.3041940272000297E-016
  -3.0750000000000000E-002    -1.2002464473382948E-016
  -3.0699999999999998E-002    -1.1553023499672059E-016
  -3.0650000000000000E-002    -2.0174893224649520E-016
  -3.0600000000000002E-002    -2.5927798836595767E-016
  -3.0550000000000001E-002    -1.2113450855496059E-016
  -3.0499999999999999E-002     3.1952271324460494E-016
  -3.0449999999999998E-002     1.0026894267075433E-015
  -3.0400000000000000E-002     1.6615258859866344E-015
  -3.0350000000000002E-002     1.8943837699401088E-015
  -3.0300000000000001E-002     1.3430705262812675E-015
  -3.0249999999999999E-002    -8.9436604018797303E-017
  -3.0200000000000001E-002    -2.0887070459231295E-015
  -3.0150000000000000E-002    -3.9457311801186408E-015
  -3.0100000000000002E-002    -4.7791853417460311E-015
  -3.0050000000000000E-002    -3.9055212866728854E-015
  -2.9999999999999999E-002    -1.2111681428891852E-015
  -2.9950000000000001E-002     2.6528044570508751E-015
  -2.9899999999999999E-002     6.3849678334901980E-015
  -2.9850000000000002E-002     8.4660362702726174E-015
  -2.9800000000000000E-002     7.7696991033504786E-015
  -2.9749999999999999E-002     4.1042105924305076E-015
  -2.9700000000000001E-002    -1.5698964361204980E-015
  -2.9650000000000003E-002    -7.3880131197660066E-015
  -2.9600000000000001E-002    -1.1242492554055602E-014
  -2.9550000000000000E-002    -1.1608531916883852E-014
  -2.9499999999999998E-002    -8.1861672817256979E-015
  -2.9450000000000000E-002    -2.0626807770721022E-015
  -2.9400000000000003E-002     4.7022289189545109E-015
  -2.9350000000000001E-002     9.9045913597937894E-015
  -2.9300000000000000E-002     1.2071017316237385E-014
  -2.9249999999999998E-002     1.0975915916716972E-014
  -2.9200000000000000E-002     7.5580285063726958E-015
  -2.9150000000000002E-002     3.2892569716449244E-015
  -2.9100000000000001E-002    -6.6156698241314757E-016
  -2.9049999999999999E-002    -3.9982802461523269E-015
  -2.8999999999999998E-002    -7.2475916455514781E-015
  -2.8950000000000000E-002    -1.1069660087705122E-014
  -2.8900000000000002E-002    -1.5299896371234037E-014
  -2.8850000000000001E-002    -1.8332103809478980E-014
  -2.8799999999999999E-002    -1.7379183455057379E-014
  -2.8749999999999998E-002    -9.7435600861510775E-015
  -2.8700000000000000E-002     5.3449201613520493E-015
  -2.8650000000000002E-002     2.5227833478559974E-014
  -2.8600000000000000E-002     4.3630845685188747E-014
  -2.8549999999999999E-002     5.2327605726805097E-014
  -2.8500000000000001E-002     4.4361262496986561E-014
  -2.8450000000000000E-002     1.7655744749033868E-014
  -2.8400000000000002E-002    -2.2632616290503033E-014
  -2.8350000000000000E-002    -6.4442305223490400E-014
  -2.8299999999999999E-002    -9.2267522516064372E-014
  -2.8250000000000001E-002    -9.2843014900547604E-014
  -2.8200000000000003E-002    -6.0962065022651895E-014
  -2.8150000000000001E-002    -2.9249896887764675E-015
  -2.8100000000000000E-002     6.4219383268937621E-014
  -2.8049999999999999E-002     1.1789175233520404E-013
  -2.8000000000000001E-002     1.3801497778498821E-013
  -2.7950000000000003E-002     1.1483224893581878E-013
  -2.7900000000000001E-002     5.3289608664491872E-014
  -2.7850000000000000E-002    -2.8034986747662916E-014
  -2.7799999999999998E-002    -1.0330083550937240E-013
  -2.7750000000000000E-002    -1.4867478482899142E-013
  -2.7700000000000002E-002    -1.5080226283189415E-013
  -2.7650000000000001E-002    -1.1105444864065617E-013
  -2.7600000000000000E-002    -4.3930186011891630E-014
  -2.7549999999999998E-002     2.9448991721851944E-014
  -2.7500000000000000E-002     8.9663733208490847E-014
  -2.7450000000000002E-002     1.2534858055533730E-013
  -2.7400000000000001E-002     1.3489385520488759E-013
  -2.7349999999999999E-002     1.2326140609946913E-013
  -2.7299999999999998E-002     9.6253424524567317E-014
  -2.7250000000000000E-002     5.5951308764193239E-014
  -2.7200000000000002E-002     4.1581427862008897E-016
  -2.7150000000000001E-002    -7.1711557167765113E-014
  -2.7099999999999999E-002    -1.5417637746405054E-013
  -2.7049999999999998E-002    -2.2823807805069617E-013
  -2.7000000000000000E-002    -2.6434476888180479E-013
  -2.6950000000000002E-002    -2.3195356625361064E-013
  -2.6900000000000000E-002    -1.1477443631335570E-013
  -2.6849999999999999E-002     7.5097647047251194E-014
  -2.6800000000000001E-002     2.9190450152364217E-013
  -2.6749999999999999E-002     4.6503158295619915E-013
  -2.6700000000000002E-002     5.2148118185227643E-013
  -2.6650000000000000E-002     4.1501905024353223E-013
  -2.6599999999999999E-002     1.5050905371387610E-013
  -2.6550000000000001E-002    -2.0800735429666703E-013
  -2.6500000000000003E-002    -5.5170707544501328E-013
  -2.6450000000000001E-002    -7.6132893632314336E-013
  -2.6400000000000000E-002    -7.5015432982802530E-013
  -2.6349999999999998E-002    -4.9938022182867765E-013
  -2.6300000000000000E-002    -7.1117680857133893E-014
  -2.6250000000000002E-002     4.0791596367424244E-013
  -2.6200000000000001E-002     7.8761124235856490E-013
  -2.6150000000000000E-002     9.4597015210973742E-013
  -2.6099999999999998E-002     8.3158726801191006E-013
  -2.6050000000000000E-002     4.8087799476194301E-013
  -2.6000000000000002E-002     3.6416520152768436E-015
  -2.5950000000000001E-002    -4.5690692255957269E-013
  -2.5899999999999999E-002    -7.7352693134832249E-013
  -2.5849999999999998E-002    -8.7453523543046025E-013
  -2.5800000000000000E-002    -7.5938621076412745E-013
  -2.5750000000000002E-002    -4.8690992598172803E-013
  -2.5700000000000001E-002    -1.4459811796185956E-013
  -2.5649999999999999E-002     1.8541196698073142E-013
  -2.5599999999999998E-002     4.4844051570759664E-013
  -2.5550000000000000E-002     6.1993720492715330E-013
  -2.5500000000000002E-002     6.9220733031239139E-013
  -2.5450000000000000E-002     6.5735050667402236E-013
  -2.5399999999999999E-002     5.0033508513763604E-013
  -2.5349999999999998E-002     2.0979865491897333E-013
  -2.5300000000000000E-002    -1.9729292413726406E-013
  -2.5250000000000002E-002    -6.5166692734060986E-013
  -2.5200000000000000E-002    -1.0268387121094926E-012
  -2.5149999999999999E-002    -1.1655900124987567E-012
  -2.5100000000000001E-002    -9.3579950092617049E-013
  -2.5049999999999999E-002    -2.9713411920985085E-013
  -2.5000000000000001E-002     6.5043726953338209E-013
  -2.4950000000000000E-002     1.6637535646948077E-012
  -2.4899999999999999E-002     2.4117113369451306E-012
  -2.4850000000000001E-002     2.5778657229599720E-012
  -2.4800000000000003E-002     1.9773538769841672E-012
  -2.4750000000000001E-002     6.4401976858284266E-013
  -2.4700000000000000E-002    -1.1501757517193747E-012
  -2.4649999999999998E-002    -2.9586962343387509E-012
  -2.4600000000000000E-002    -4.2910721709167189E-012
  -2.4550000000000002E-002    -4.7675708867150433E-012
  -2.4500000000000001E-002    -4.2429412010334842E-012
  -2.4450000000000000E-002    -2.8534728100194860E-012
  -2.4399999999999998E-002    -9.6904612959023886E-013
  -2.4350000000000000E-002     9.3283793161377096E-013
  -2.4299999999999999E-002     2.4248800766119069E-012
  -2.4250000000000001E-002     3.2620991149124499E-012
  -2.4199999999999999E-002     3.4416272812512194E-012
  -2.4150000000000001E-002     3.1722321096428222E-012
  -2.4100000000000000E-002     2.7702063242800403E-012
  -2.4049999999999998E-002     2.5248064599470048E-012
  -2.4000000000000000E-002     2.5846501051360819E-012
  -2.3949999999999999E-002     2.9040989379472356E-012
  -2.3900000000000001E-002     3.2621323783080456E-012
  -2.3850000000000000E-002     3.3376329622406238E-012
  -2.3800000000000002E-002     2.8066313900013547E-012
  -2.3750000000000000E-002     1.4258034838328929E-012
  -2.3699999999999999E-002    -9.1883107302766745E-013
  -2.3650000000000001E-002    -4.1972239859305149E-012
  -2.3599999999999999E-002    -8.2363904014543766E-012
  -2.3550000000000001E-002    -1.2715115258337417E-011
  -2.3500000000000000E-002    -1.7141538779001085E-011
  -2.3449999999999999E-002    -2.0823452993319639E-011
  -2.3400000000000001E-002    -2.2859244841279953E-011
  -2.3349999999999999E-002    -2.2181838926899196E-011
  -2.3300000000000001E-002    -1.7673582174004598E-011
  -2.3250000000000000E-002    -8.3406965573845517E-012
  -2.3199999999999998E-002     6.4959446850098412E-012
  -2.3150000000000000E-002     2.7056303909556389E-011
  -2.3099999999999999E-002     5.3060756553958500E-011
  -2.3050000000000001E-002     8.3821260831595991E-011
  -2.3000000000000000E-002     1.1844510931110744E-010
  -2.2950000000000002E-002     1.5608761626468176E-010
  -2.2900000000000000E-002     1.9616605513039780E-010
  -2.2849999999999999E-002     2.3845618223395982E-010
  -2.2800000000000001E-002     2.8303266338949934E-010
  -2.2749999999999999E-002     3.3007337146778402E-010
  -2.2700000000000001E-002     3.7960094830975108E-010
  -2.2650000000000000E-002     4.3126376516380284E-010
  -2.2599999999999999E-002     4.8424785379801363E-010
  -2.2550000000000001E-002     5.3736680809809664E-010
  -2.2499999999999999E-002     5.8931178542285845E-010
  -2.2450000000000001E-002     6.3898604841974327E-010
  -2.2400000000000000E-002     6.8581478808242088E-010
  -2.2349999999999998E-002     7.2993016266678125E-010
  -2.2300000000000000E-002     7.7217324101143695E-010
  -2.2249999999999999E-002     8.1391532973580078E-010
  -2.2200000000000001E-002     8.5675751797996369E-010
  -2.2150000000000000E-002     9.0220013631821832E-010
  -2.2100000000000002E-002     9.5137089990652081E-010
  -2.2050000000000000E-002     1.0048701056133429E-009
  -2.1999999999999999E-002     1.0627454462741811E-009
  -2.1950000000000001E-002     1.1245693612456904E-009
  -2.1899999999999999E-002     1.1895720253845590E-009
  -2.1850000000000001E-002     1.2567840118167984E-009
  -2.1800000000000000E-002     1.3251656023933552E-009
  -2.1749999999999999E-002     1.3937184740675680E-009
  -2.1700000000000001E-002     1.4615912837660016E-009
  -2.1649999999999999E-002     1.5281852382019703E-009
  -2.1600000000000001E-002     1.5932496070212169E-009
  -2.1550000000000000E-002     1.6569387721729488E-009
  -2.1499999999999998E-002     1.7197979604492916E-009
  -2.1450000000000000E-002     1.7826558251949942E-009
  -2.1399999999999999E-002     1.8464363672235586E-009
  -2.1350000000000001E-002     1.9119360065457415E-009
  -2.1299999999999999E-002     1.9796373970910560E-009
  -2.1250000000000002E-002     2.0496315275135142E-009
  -2.1200000000000000E-002     2.1216856472276254E-009
  -2.1149999999999999E-002     2.1954427724690044E-009
  -2.1100000000000001E-002     2.2706881411775984E-009
  -2.1049999999999999E-002     2.3475809765590975E-009
  -2.1000000000000001E-002     2.4267569028024667E-009
  -2.0950000000000000E-002     2.5092422506087443E-009
  -2.0899999999999998E-002     2.5961893134021975E-009
  -2.0850000000000000E-002     2.6885109338061381E-009
  -2.0799999999999999E-002     2.7865303064404477E-009
  -2.0750000000000001E-002     2.8897704730893854E-009
  -2.0700000000000000E-002     2.9969679039412472E-009
  -2.0649999999999998E-002     3.1063208911963105E-009
  -2.0600000000000000E-002     3.2159147173887619E-009
  -2.0549999999999999E-002     3.3242067279037524E-009
  -2.0500000000000001E-002     3.4304336960595118E-009
  -2.0449999999999999E-002     3.5348355111185933E-009
  -2.0400000000000001E-002     3.6386345203925706E-009
  -2.0350000000000000E-002     3.7437870936502757E-009
  -2.0299999999999999E-002     3.8525778258861367E-009
  -2.0250000000000001E-002     3.9671675359213005E-009
  -2.0199999999999999E-002     4.0891984155929905E-009
  -2.0150000000000001E-002     4.2195416434143712E-009
  -2.0100000000000000E-002     4.3582237728884228E-009
  -2.0049999999999998E-002     4.5045204383811107E-009
  -2.0000000000000000E-002     4.6571753497462198E-009
  -1.9949999999999999E-002     4.8146807907314160E-009
  -1.9900000000000001E-002     4.9755589788985616E-009
  -1.9850000000000000E-002     5.1385899616078319E-009
  -1.9799999999999998E-002     5.3029653558888709E-009
  -1.9750000000000000E-002     5.4683567901445046E-009
  -1.9699999999999999E-002     5.6349044823839363E-009
  -1.9650000000000001E-002     5.8031438803131497E-009
  -1.9599999999999999E-002     5.9738854334425028E-009
  -1.9550000000000001E-002     6.1480712115268423E-009
  -1.9500000000000000E-002     6.3266326534040398E-009
  -1.9449999999999999E-002     6.5103720272840094E-009
  -1.9400000000000001E-002     6.6999002258258940E-009
  -1.9349999999999999E-002     6.8956377393471285E-009
  -1.9300000000000001E-002     7.0978849327493591E-009
  -1.9250000000000000E-002     7.3069408810297309E-009
  -1.9199999999999998E-002     7.5232276601186617E-009
  -1.9150000000000000E-002     7.7473722422271676E-009
  -1.9099999999999999E-002     7.9801870048774732E-009
  -1.9050000000000001E-002     8.2225398136036460E-009
  -1.9000000000000000E-002     8.4751143622939014E-009
  -1.8949999999999998E-002     8.7381371703303873E-009
  -1.8900000000000000E-002     9.0111503814196875E-009
  -1.8849999999999999E-002     9.2929193231655256E-009
  -1.8800000000000001E-002     9.5815494744146780E-009
  -1.8749999999999999E-002     9.8748188921142334E-009
  -1.8700000000000001E-002     1.0170649784168822E-008
  -1.8650000000000000E-002     1.0467626272704892E-008
  -1.8599999999999998E-002     1.0765404301855626E-008
  -1.8550000000000001E-002     1.1064912467091288E-008
  -1.8499999999999999E-002     1.1368259979221435E-008
  -1.8450000000000001E-002     1.1678394487960670E-008
  -1.8400000000000000E-002     1.1998573968554900E-008
  -1.8349999999999998E-002     1.2331802974593456E-008
  -1.8300000000000000E-002     1.2680356173346477E-008
  -1.8249999999999999E-002     1.3045490572567402E-008
  -1.8200000000000001E-002     1.3427398782882637E-008
  -1.8149999999999999E-002     1.3825361778206184E-008
  -1.8100000000000002E-002     1.4238047246637877E-008
  -1.8050000000000000E-002     1.4663848736232420E-008
  -1.7999999999999999E-002     1.5101181694030195E-008
  -1.7950000000000001E-002     1.5548700075599953E-008
  -1.7899999999999999E-002     1.6005397602320425E-008
  -1.7850000000000001E-002     1.6470641868336637E-008
  -1.7800000000000000E-002     1.6944157832060114E-008
  -1.7749999999999998E-002     1.7426001723598261E-008
  -1.7700000000000000E-002     1.7916544923769753E-008
  -1.7649999999999999E-002     1.8416455088135049E-008
  -1.7600000000000001E-002     1.8926691619628284E-008
  -1.7550000000000000E-002     1.9448469286697270E-008
  -1.7499999999999998E-002     1.9983184662162263E-008
  -1.7450000000000000E-002     2.0532339738931063E-008
  -1.7399999999999999E-002     2.1097447482869373E-008
  -1.7350000000000001E-002     2.1679947081489406E-008
  -1.7299999999999999E-002     2.2281140737716593E-008
  -1.7250000000000001E-002     2.2902133842460897E-008
  -1.7200000000000000E-002     2.3543778146780855E-008
  -1.7149999999999999E-002     2.4206606335156862E-008
  -1.7100000000000001E-002     2.4890740164380479E-008
  -1.7049999999999999E-002     2.5595809606364770E-008
  -1.7000000000000001E-002     2.6320938625490816E-008
  -1.6950000000000000E-002     2.7064806391856237E-008
  -1.6899999999999998E-002     2.7825837413693494E-008
  -1.6850000000000000E-002     2.8602501993566657E-008
  -1.6799999999999999E-002     2.9393664317808966E-008
  -1.6750000000000001E-002     3.0198906653963203E-008
  -1.6700000000000000E-002     3.1018738360757378E-008
  -1.6649999999999998E-002     3.1854631897064855E-008
  -1.6600000000000000E-002     3.2708876583660763E-008
  -1.6549999999999999E-002     3.3584267269805425E-008
  -1.6500000000000001E-002     3.4483718666626704E-008
  -1.6449999999999999E-002     3.5409903904045798E-008
  -1.6400000000000001E-002     3.6364950832004325E-008
  -1.6350000000000000E-002     3.7350271750292577E-008
  -1.6299999999999999E-002     3.8366523514629960E-008
  -1.6250000000000001E-002     3.9413656140487278E-008
  -1.6199999999999999E-002     4.0491054892140177E-008
  -1.6150000000000001E-002     4.1597707607141235E-008
  -1.6100000000000000E-002     4.2732397533497401E-008
  -1.6049999999999998E-002     4.3893895745659163E-008
  -1.6000000000000000E-002     4.5081139862917574E-008
  -1.5949999999999999E-002     4.6293405052156103E-008
  -1.5900000000000001E-002     4.7530429156605828E-008
  -1.5850000000000000E-002     4.8792483378035234E-008
  -1.5799999999999998E-002     5.0080416291406832E-008
  -1.5750000000000000E-002     5.1395599668601791E-008
  -1.5699999999999999E-002     5.2739871728973465E-008
  -1.5650000000000001E-002     5.4115427423264633E-008
  -1.5599999999999999E-002     5.5524698070273975E-008
  -1.5550000000000001E-002     5.6970207294666453E-008
  -1.5500000000000000E-002     5.8454381242216642E-008
  -1.5449999999999998E-002     5.9979375996659141E-008
  -1.5400000000000000E-002     6.1546903521348045E-008
  -1.5349999999999999E-002     6.3158095528900544E-008
  -1.5300000000000001E-002     6.4813439462693855E-008
  -1.5250000000000000E-002     6.6512845115081630E-008
  -1.5199999999999998E-002     6.8255763128941853E-008
  -1.5150000000000000E-002     7.0041431133533566E-008
  -1.5099999999999999E-002     7.1869117006521751E-008
  -1.5050000000000001E-002     7.3738345016374473E-008
  -1.4999999999999999E-002     7.5649002289255821E-008
  -1.4949999999999998E-002     7.7601390004538687E-008
  -1.4900000000000000E-002     7.9596199081062668E-008
  -1.4849999999999999E-002     8.1634418208561014E-008
  -1.4800000000000001E-002     8.3717290381478865E-008
  -1.4749999999999999E-002     8.5846305686669660E-008
  -1.4700000000000001E-002     8.8023210640325873E-008
  -1.4650000000000000E-002     9.0250018478807466E-008
  -1.4599999999999998E-002     9.2529025438480428E-008
  -1.4550000000000000E-002     9.4862704454789756E-008
  -1.4499999999999999E-002     9.7253551558863131E-008
  -1.4450000000000001E-002     9.9703851745639695E-008
  -1.4400000000000000E-002     1.0221542128553503E-007
  -1.4349999999999998E-002     1.0478943536492910E-007
  -1.4300000000000000E-002     1.0742636717161481E-007
  -1.4249999999999999E-002     1.1012610526438090E-007
  -1.4200000000000001E-002     1.1288814746697598E-007
  -1.4149999999999999E-002     1.1571195507795848E-007
  -1.4099999999999998E-002     1.1859719829402915E-007
  -1.4050000000000000E-002     1.2154403032688110E-007
  -1.3999999999999999E-002     1.2455315217461625E-007
  -1.3950000000000001E-002     1.2762588286828424E-007
  -1.3899999999999999E-002     1.3076403822395662E-007
  -1.3850000000000001E-002     1.3396983804031951E-007
  -1.3800000000000000E-002     1.3724583979379326E-007
  -1.3749999999999998E-002     1.4059485500253795E-007
  -1.3700000000000000E-002     1.4401986395969425E-007
  -1.3649999999999999E-002     1.4752390881195620E-007
  -1.3600000000000001E-002     1.5110992264243914E-007
  -1.3550000000000000E-002     1.5478050782600692E-007
  -1.3499999999999998E-002     1.5853768548827506E-007
  -1.3450000000000000E-002     1.6238284942511825E-007
  -1.3399999999999999E-002     1.6631671998610001E-007
  -1.3350000000000001E-002     1.7033956120925253E-007
  -1.3299999999999999E-002     1.7445151833661029E-007
  -1.3249999999999998E-002     1.7865293843226767E-007
  -1.3200000000000000E-002     1.8294463667338236E-007
  -1.3149999999999998E-002     1.8732799092309003E-007
  -1.3100000000000001E-002     1.9180469604269565E-007
  -1.3049999999999999E-002     1.9637662390335335E-007
  -1.3000000000000001E-002     2.0104550802141689E-007
  -1.2950000000000000E-002     2.0581277615138774E-007
  -1.2899999999999998E-002     2.1067962342336008E-007
  -1.2850000000000000E-002     2.1564718956277046E-007
  -1.2799999999999999E-002     2.2071695803968946E-007