  -4.0000000000000001E-002     0.0000000000000000     
  -3.9949999999999999E-002     0.0000000000000000     
  -3.9899999999999998E-002     0.0000000000000000     
  -3.9850000000000003E-002     0.0000000000000000     
  -3.9800000000000002E-002     0.0000000000000000     
  -3.9750000000000001E-002     0.0000000000000000     
  -3.9699999999999999E-002     0.0000000000000000     
  -3.9649999999999998E-002     0.0000000000000000     
  -3.9600000000000003E-002     0.0000000000000000     
  -3.9550000000000002E-002     2.4623667947709064E-026
  -3.9500000000000000E-002     7.4754302163868563E-026
  -3.9449999999999999E-002    -9.4165922217685860E-025
  -3.9399999999999998E-002    -8.9387578321930855E-024
  -3.9350000000000003E-002    -3.7754925736665910E-023
  -3.9300000000000002E-002    -9.4409644365640702E-023
  -3.9250000000000000E-002    -1.2669513584889206E-022
  -3.9199999999999999E-002     3.4979536428037577E-023
  -3.9150000000000004E-002     6.1854774708282216E-022
  -3.9100000000000003E-002     1.6492716336939127E-021
  -3.9050000000000001E-002     2.7465742376748093E-021
  -3.9000000000000000E-002     3.5879471527223208E-021
  -3.8949999999999999E-002     5.0115230228650887E-021
  -3.8900000000000004E-002     8.5704109257303194E-021
  -3.8850000000000003E-002     1.0849749437782063E-020
  -3.8800000000000001E-002    -6.9350942997434706E-021
  -3.8750000000000000E-002    -8.1408831046065752E-020
  -3.8699999999999998E-002    -2.3865099020015996E-019
  -3.8650000000000004E-002    -4.2561455668423202E-019
  -3.8600000000000002E-002    -4.4262652397857105E-019
  -3.8550000000000001E-002     2.2852138583101992E-020
  -3.8500000000000000E-002     1.1704786849415723E-018
  -3.8449999999999998E-002     2.7215638125996748E-018
  -3.8400000000000004E-002     3.6938065892566858E-018
  -3.8350000000000002E-002     2.7030968504825664E-018
  -3.8300000000000001E-002    -1.0698299874875932E-018
  -3.8249999999999999E-002    -6.7152452115443291E-018
  -3.8199999999999998E-002    -1.1250930783264523E-017
  -3.8150000000000003E-002    -1.0980027758205220E-017
  -3.8100000000000002E-002    -4.3065150500881005E-018
  -3.8050000000000000E-002     5.7940165743752396E-018
  -3.7999999999999999E-002     1.2148984437390601E-017
  -3.7949999999999998E-002     7.8321438578907880E-018
  -3.7900000000000003E-002    -7.1389075667288812E-018
  -3.7850000000000002E-002    -2.1568091688035482E-017
  -3.7800000000000000E-002    -1.6264806711707856E-017
  -3.7749999999999999E-002     2.4071638503464509E-017
  -3.7699999999999997E-002     9.5179272378515145E-017
  -3.7650000000000003E-002     1.6373493971910246E-016
  -3.7600000000000001E-002     1.7400337172903825E-016
  -3.7550000000000000E-002     7.3903162383214616E-017
  -3.7499999999999999E-002    -1.4768470602955500E-016
  -3.7449999999999997E-002    -4.3137797795599877E-016
  -3.7400000000000003E-002    -6.4794827380375882E-016
  -3.7350000000000001E-002    -6.4243108614074826E-016
  -3.7300000000000000E-002    -3.1346792951344984E-016
  -3.7249999999999998E-002     3.0587250078372278E-016
  -3.7200000000000004E-002     1.0142083983138582E-015
  -3.7150000000000002E-002     1.4926774090042042E-015
  -3.7100000000000001E-002     1.4393314195176421E-015
  -3.7050000000000000E-002     7.3435115912130202E-016
  -3.6999999999999998E-002    -4.5066623933365055E-016
  -3.6950000000000004E-002    -1.6748266475668148E-015
  -3.6900000000000002E-002    -2.3960820342898009E-015
  -3.6850000000000001E-002    -2.2178930486290872E-015
  -3.6799999999999999E-002    -1.0919227973609969E-015
  -3.6749999999999998E-002     6.3446425852143059E-016
  -3.6700000000000003E-002     2.3579510865663979E-015
  -3.6650000000000002E-002     3.4733626132569783E-015
  -3.6600000000000001E-002     3.6022696533838947E-015
  -3.6549999999999999E-002     2.6739718768445816E-015
  -3.6499999999999998E-002     8.3605196249532668E-016
  -3.6450000000000003E-002    -1.7050305073777995E-015
  -3.6400000000000002E-002    -4.7493091860834381E-015
  -3.6350000000000000E-002    -7.9665276916141578E-015
  -3.6299999999999999E-002    -1.0614092606231361E-014
  -3.6249999999999998E-002    -1.1348916328270646E-014
  -3.6200000000000003E-002    -8.4378076410453892E-015
  -3.6150000000000002E-002    -5.2350778476727273E-016
  -3.6100000000000000E-002     1.2235536767844757E-014
  -3.6049999999999999E-002     2.7201789344339956E-014
  -3.6000000000000004E-002     3.9181568181795506E-014
  -3.5950000000000003E-002     4.1717874199070730E-014
  -3.5900000000000001E-002     2.9635503146514665E-014
  -3.5850000000000000E-002     1.9849483360217275E-015
  -3.5799999999999998E-002    -3.5962591359857948E-014
  -3.5750000000000004E-002    -7.2942796221118764E-014
  -3.5700000000000003E-002    -9.4688038757073040E-014
  -3.5650000000000001E-002    -8.9050322219177078E-014
  -3.5600000000000000E-002    -5.1501532557303178E-014
  -3.5549999999999998E-002     1.1293219928766841E-014
  -3.5500000000000004E-002     8.1748275767186636E-014
  -3.5450000000000002E-002     1.3609153388944458E-013
  -3.5400000000000001E-002     1.5238568990393583E-013
  -3.5349999999999999E-002     1.1910689287815053E-013
  -3.5299999999999998E-002     4.0944538277016450E-014
  -3.5250000000000004E-002    -6.0790712336496315E-014
  -3.5200000000000002E-002    -1.5388189495545068E-013
  -3.5150000000000001E-002    -2.0543664195164903E-013
  -3.5099999999999999E-002    -1.9318580087884230E-013
  -3.5049999999999998E-002    -1.1383543633577968E-013
  -3.5000000000000003E-002     1.4564674308439812E-014
  -3.4950000000000002E-002     1.5713787175239790E-013
  -3.4900000000000000E-002     2.7205160203322464E-013
  -3.4849999999999999E-002     3.2245056556712647E-013
  -3.4799999999999998E-002     2.8672762904707906E-013
  -3.4750000000000003E-002     1.6436690866476323E-013
  -3.4700000000000002E-002    -2.3623897933988066E-014
  -3.4650000000000000E-002    -2.3895296732653708E-013
  -3.4599999999999999E-002    -4.3332230582759640E-013
  -3.4549999999999997E-002    -5.5723229104731634E-013
  -3.4500000000000003E-002    -5.6946496974427243E-013
  -3.4450000000000001E-002    -4.4676995387935277E-013
  -3.4400000000000000E-002    -1.9276064281610566E-013
  -3.4349999999999999E-002     1.5623955927217838E-013
  -3.4299999999999997E-002     5.3175362329113543E-013
  -3.4250000000000003E-002     8.4317286523953976E-013
  -3.4200000000000001E-002     9.9793405833245959E-013
  -3.4150000000000000E-002     9.2848148290464430E-013
  -3.4099999999999998E-002     6.1845115425708130E-013
  -3.4049999999999997E-002     1.1828257840031498E-013
  -3.4000000000000002E-002    -4.5812990936952865E-013
  -3.3950000000000001E-002    -9.5878511435440828E-013
  -3.3900000000000000E-002    -1.2361171019693261E-012
  -3.3849999999999998E-002    -1.1944735536562888E-012
  -3.3799999999999997E-002    -8.2641996071547375E-013
  -3.3750000000000002E-002    -2.2370239934161282E-013
  -3.3700000000000001E-002     4.4362671404889723E-013
  -3.3649999999999999E-002     9.7548655182527817E-013
  -3.3599999999999998E-002     1.2029421234597456E-012
  -3.3550000000000003E-002     1.0424946811304821E-012
  -3.3500000000000002E-002     5.2546240169674276E-013
  -3.3450000000000001E-002    -2.0743645140814831E-013
  -3.3399999999999999E-002    -9.4467241344458779E-013
  -3.3349999999999998E-002    -1.4634318706084095E-012
  -3.3300000000000003E-002    -1.5918317732460260E-012
  -3.3250000000000002E-002    -1.2559201596842003E-012
  -3.3200000000000000E-002    -4.9960185829188088E-013
  -3.3149999999999999E-002     5.2547692966097064E-013
  -3.3099999999999997E-002     1.5947665123490049E-012
  -3.3050000000000003E-002     2.4601011536057213E-012
  -3.3000000000000002E-002     2.9022863748155356E-012
  -3.2950000000000000E-002     2.7776737433612443E-012
  -3.2899999999999999E-002     2.0518256881072294E-012
  -3.2850000000000004E-002     8.1481293405843905E-013
  -3.2800000000000003E-002    -7.2650688297441300E-013
  -3.2750000000000001E-002    -2.2820171527926122E-012
  -3.2700000000000000E-002    -3.5358075200715830E-012
  -3.2649999999999998E-002    -4.2182986959913821E-012
  -3.2600000000000004E-002    -4.1760449667673986E-012
  -3.2550000000000003E-002    -3.4182610525307549E-012
  -3.2500000000000001E-002    -2.1221250673815772E-012
  -3.2450000000000000E-002    -5.8977636700985278E-013
  -3.2399999999999998E-002     8.3434647043436485E-013
  -3.2350000000000004E-002     1.8621724267941145E-012
  -3.2300000000000002E-002     2.3450584452611590E-012
  -3.2250000000000001E-002     2.3127649555496496E-012
  -3.2199999999999999E-002     1.9539448354871408E-012
  -3.2149999999999998E-002     1.5438381375134883E-012
  -3.2100000000000004E-002     1.3433636148385847E-012
  -3.2050000000000002E-002     1.5034346138876759E-012
  -3.2000000000000001E-002     2.0057060658654947E-012
  -3.1949999999999999E-002     2.6577615958775183E-012
  -3.1899999999999998E-002     3.1426798888509827E-012
  -3.1850000000000003E-002     3.1068815341556533E-012
  -3.1800000000000002E-002     2.2611670884640993E-012
  -3.1750000000000000E-002     4.6947819768197689E-013
  -3.1699999999999999E-002    -2.1935478170571658E-012
  -3.1649999999999998E-002    -5.4252887127507745E-012
  -3.1600000000000003E-002    -8.7175280181008229E-012
  -3.1550000000000002E-002    -1.1411356175078997E-011
  -3.1500000000000000E-002    -1.2774338025396472E-011
  -3.1449999999999999E-002    -1.2089331547363947E-011
  -3.1399999999999997E-002    -8.7442373760154947E-012
  -3.1350000000000003E-002    -2.3108963274122873E-012
  -3.1300000000000001E-002     7.4004564520703346E-012
  -3.1250000000000000E-002     2.0324531280073545E-011
  -3.1199999999999999E-002     3.6170249788425512E-011
  -3.1150000000000001E-002     5.4492842657412309E-011
  -3.1100000000000003E-002     7.4790771829825477E-011
  -3.1050000000000001E-002     9.6598342764579681E-011
  -3.1000000000000000E-002     1.1954194682647421E-010
  -3.0949999999999998E-002     1.4333913308004208E-010
  -3.0900000000000000E-002     1.6774085784995070E-010
  -3.0850000000000002E-002     1.9244213947869631E-010
  -3.0800000000000001E-002     2.1700262593166762E-010
  -3.0750000000000000E-002     2.4082060477778145E-010
  -3.0699999999999998E-002     2.6318530277119055E-010
  -3.0650000000000000E-002     2.8340202724062486E-010
  -3.0600000000000002E-002     3.0095390283664611E-010
  -3.0550000000000001E-002     3.1564636549741615E-010
  -3.0499999999999999E-002     3.2768551040989461E-010
  -3.0449999999999998E-002     3.3766589152583698E-010
  -3.0400000000000000E-002     3.4647641257415459E-010
  -3.0350000000000002E-002     3.5515731305226860E-010
  -3.0300000000000001E-002     3.6474892776235526E-010
  -3.0249999999999999E-002     3.7616192399630025E-010
  -3.0200000000000001E-002     3.9008024772641182E-010
  -3.0150000000000000E-002     4.0689419395516821E-010
  -3.0100000000000002E-002     4.2665811943462066E-010
  -3.0050000000000000E-002     4.4907623016168705E-010
  -2.9999999999999999E-002     4.7352919854196644E-010
  -2.9950000000000001E-002     4.9915506248605874E-010
  -2.9899999999999999E-002     5.2498515044905275E-010
  -2.9850000000000002E-002     5.5011082207463950E-010
  -2.9800000000000000E-002     5.7383837157661176E-010
  -2.9749999999999999E-002     5.9578239954113719E-010
  -2.9700000000000001E-002     6.1586880076502905E-010
  -2.9650000000000003E-002     6.3425580323559032E-010
  -2.9600000000000001E-002     6.5121871609862749E-010
  -2.9550000000000000E-002     6.6705985257278102E-010
  -2.9499999999999998E-002     6.8208998326992808E-010
  -2.9450000000000000E-002     6.9668614482296731E-010
  -2.9400000000000003E-002     7.1138124134429590E-010
  -2.9350000000000001E-002     7.2691796852456773E-010
  -2.9300000000000000E-002     7.4420979488492540E-010
  -2.9249999999999998E-002     7.6419762478409963E-010
  -2.9200000000000000E-002     7.8764595241852165E-010
  -2.9150000000000002E-002     8.1495507993381216E-010
  -2.9100000000000001E-002     8.4606487617631471E-010
  -2.9049999999999999E-002     8.8048227162076469E-010
  -2.8999999999999998E-002     9.1741036841346038E-010
  -2.8950000000000000E-002     9.5591341438060082E-010
  -2.8900000000000002E-002     9.9505063155083492E-010
  -2.8850000000000001E-002     1.0339424928815085E-009
  -2.8799999999999999E-002     1.0717880354455663E-009
  -2.8749999999999998E-002     1.1078824383228216E-009
  -2.8700000000000000E-002     1.1416878585032696E-009
  -2.8650000000000002E-002     1.1729651112274122E-009
  -2.8600000000000000E-002     1.2019184460413992E-009
  -2.8549999999999999E-002     1.2292748955909778E-009
  -2.8500000000000001E-002     1.2562296343167050E-009
  -2.8450000000000000E-002     1.2842492470399455E-009
  -2.8400000000000002E-002     1.3147937460713327E-009
  -2.8350000000000000E-002     1.3490616613134907E-009
  -2.8299999999999999E-002     1.3878519673496813E-009
  -2.8250000000000001E-002     1.4315762807147065E-009
  -2.8200000000000003E-002     1.4803791415840468E-009
  -2.8150000000000001E-002     1.5342751774555232E-009
  -2.8100000000000000E-002     1.5932108986355168E-009
  -2.8049999999999999E-002     1.6570170343022618E-009
  -2.8000000000000001E-002     1.7252873379034831E-009
  -2.7950000000000003E-002     1.7972713606794956E-009
  -2.7900000000000001E-002     1.8718711708845118E-009
  -2.7850000000000000E-002     1.9477818809803750E-009
  -2.7799999999999998E-002     2.0237418970479240E-009
  -2.7750000000000000E-002     2.0988009279045183E-009
  -2.7700000000000002E-002     2.1725016698264313E-009
  -2.7650000000000001E-002     2.2449145486940916E-009
  -2.7600000000000000E-002     2.3165368218502718E-009
  -2.7549999999999998E-002     2.3881113318847342E-009
  -2.7500000000000000E-002     2.4604504782351665E-009
  -2.7450000000000002E-002     2.5343172914330847E-009
  -2.7400000000000001E-002     2.6103717928991658E-009
  -2.7349999999999999E-002     2.6891579865014315E-009
  -2.7299999999999998E-002     2.7710912784675132E-009
  -2.7250000000000000E-002     2.8564253923743237E-009
  -2.7200000000000002E-002     2.9452097226138093E-009
  -2.7150000000000001E-002     3.0372642889858511E-009
  -2.7099999999999999E-002     3.1322059697656063E-009
  -2.7049999999999998E-002     3.2295384049156481E-009
  -2.7000000000000000E-002     3.3287953995891184E-009
  -2.6950000000000002E-002     3.4296942554018725E-009
  -2.6900000000000000E-002     3.5322575318906540E-009
  -2.6849999999999999E-002     3.6368550823162995E-009
  -2.6800000000000001E-002     3.7441665450200431E-009
  -2.6749999999999999E-002     3.8550780253088569E-009
  -2.6700000000000002E-002     3.9705544301153447E-009
  -2.6650000000000000E-002     4.0915325969338328E-009
  -2.6599999999999999E-002     4.2188768384155812E-009
  -2.6550000000000001E-002     4.3534027178494495E-009
  -2.6500000000000003E-002     4.4959591415303873E-009
  -2.6450000000000001E-002     4.6475170538285860E-009
  -2.6400000000000000E-002     4.8092218699190210E-009
  -2.6349999999999998E-002     4.9823427366388845E-009
  -2.6300000000000000E-002     5.1681144282486948E-009
  -2.6250000000000002E-002     5.3674789117764196E-009
  -2.6200000000000001E-002     5.5807903604315257E-009
  -2.6150000000000000E-002     5.8075738921512137E-009
  -2.6099999999999998E-002     6.0464190561288777E-009
  -2.6050000000000000E-002     6.2950502051088996E-009
  -2.6000000000000002E-002     6.5505605298559898E-009
  -2.5950000000000001E-002     6.8097506557156528E-009
  -2.5899999999999999E-002     7.0694849085621194E-009
  -2.5849999999999998E-002     7.3269842105046197E-009
  -2.5800000000000000E-002     7.5800314916551381E-009
  -2.5750000000000002E-002     7.8270687646334098E-009
  -2.5700000000000001E-002     8.0672170257613077E-009
  -2.5649999999999999E-002     8.3002517041188241E-009
  -2.5599999999999998E-002     8.5265541995642654E-009
  -2.5550000000000000E-002     8.7470604688014438E-009
  -2.5500000000000002E-002     8.9632075246091929E-009
  -2.5450000000000000E-002     9.1768850606217938E-009
  -2.5399999999999999E-002     9.3903890096864289E-009
  -2.5349999999999998E-002     9.6063749389537901E-009
  -2.5300000000000000E-002     9.8278334878152377E-009
  -2.5250000000000002E-002     1.0058079400030227E-008
  -2.5200000000000000E-002     1.0300723573183836E-008
  -2.5149999999999999E-002     1.0559601337487419E-008
  -2.5100000000000001E-002     1.0838629790193085E-008
  -2.5049999999999999E-002     1.1141611690606006E-008
  -2.5000000000000001E-002     1.1472059469671796E-008
  -2.4950000000000000E-002     1.1833091114323981E-008
  -2.4899999999999999E-002     1.2227454824830063E-008
  -2.4850000000000001E-002     1.2657633320764977E-008
  -2.4800000000000003E-002     1.3125969231874251E-008
  -2.4750000000000001E-002     1.3634727787501326E-008
  -2.4700000000000000E-002     1.4186065054531111E-008
  -2.4649999999999998E-002     1.4781911217309857E-008
  -2.4600000000000000E-002     1.5423843241311573E-008
  -2.4550000000000002E-002     1.6113000188182352E-008
  -2.4500000000000001E-002     1.6850080182760938E-008
  -2.4450000000000000E-002     1.7635376053794632E-008
  -2.4399999999999998E-002     1.8468790025328724E-008
  -2.4350000000000000E-002     1.9349742156883785E-008
  -2.4299999999999999E-002     2.0276935087070639E-008
  -2.4250000000000001E-002     2.1248057983001562E-008
  -2.4199999999999999E-002     2.2259502935555933E-008
  -2.4150000000000001E-002     2.3306270557412071E-008
  -2.4100000000000000E-002     2.4382145691251554E-008
  -2.4049999999999998E-002     2.5480120827845903E-008
  -2.4000000000000000E-002     2.6592910279743685E-008
  -2.3949999999999999E-002     2.7713400442708295E-008
  -2.3900000000000001E-002     2.8834950262571714E-008
  -2.3850000000000000E-002     2.9951529076782168E-008
  -2.3800000000000002E-002     3.1057751968236383E-008
  -2.3750000000000000E-002     3.2148923867690722E-008
  -2.3699999999999999E-002     3.3221197670077948E-008
  -2.3650000000000001E-002     3.4271828993271242E-008
  -2.3599999999999999E-002     3.5299390315510749E-008
  -2.3550000000000001E-002     3.6303943769239996E-008
  -2.3500000000000000E-002     3.7286984762892046E-008
  -2.3449999999999999E-002     3.8251262523974092E-008
  -2.3400000000000001E-002     3.9200422114094163E-008
  -2.3349999999999999E-002     4.0138538383111471E-008
  -2.3300000000000001E-002     4.1069696764035000E-008
  -2.3250000000000000E-002     4.1997671281428537E-008
  -2.3199999999999998E-002     4.2925768698014020E-008
  -2.3150000000000000E-002     4.3856827496447838E-008
  -2.3099999999999999E-002     4.4793306040073256E-008
  -2.3050000000000001E-002     4.5737362707258532E-008
  -2.3000000000000000E-002     4.6690889592941299E-008
  -2.2950000000000002E-002     4.7655490968883788E-008
  -2.2900000000000000E-002     4.8632423823288490E-008
  -2.2849999999999999E-002     4.9622700171384984E-008
  -2.2800000000000001E-002     5.0627264737204404E-008
  -2.2749999999999999E-002     5.1647375456164746E-008
  -2.2700000000000001E-002     5.2685021277726190E-008
  -2.2650000000000000E-002     5.3743323904735545E-008
  -2.2599999999999999E-002     5.4826675002023539E-008
  -2.2550000000000001E-002     5.5940490023190479E-008
  -2.2499999999999999E-002     5.7090572229568270E-008
  -2.2450000000000001E-002     5.8282306560943536E-008
  -2.2400000000000000E-002     5.9519892845638994E-008
  -2.2349999999999998E-002     6.0805971224283627E-008
  -2.2300000000000000E-002     6.2141662879093349E-008
  -2.2249999999999999E-002     6.3526903555156275E-008
  -2.2200000000000001E-002     6.4960879966629956E-008
  -2.2150000000000000E-002     6.6442283010832838E-008
  -2.2100000000000002E-002     6.7969403699811551E-008
  -2.2050000000000000E-002     6.9540196797407109E-008
  -2.1999999999999999E-002     7.1152422889249251E-008
  -2.1950000000000001E-002     7.2804105355341470E-008
  -2.1899999999999999E-002     7.4494170024275845E-008
  -2.1850000000000001E-002     7.6223176151584947E-008
  -2.1800000000000000E-002     7.7993861840318996E-008
  -2.1749999999999999E-002     7.9811269029625238E-008
  -2.1700000000000001E-002     8.1682246461754051E-008
  -2.1649999999999999E-002     8.3614337968817440E-008
  -2.1600000000000001E-002     8.5614541991807440E-008
  -2.1550000000000000E-002     8.7688264702603893E-008
  -2.1499999999999998E-002     8.9838889249659794E-008
  -2.1450000000000000E-002     9.2067972229078054E-008
  -2.1399999999999999E-002     9.4375839455732865E-008
  -2.1350000000000001E-002     9.6762104747944422E-008
  -2.1299999999999999E-002     9.9225954622989778E-008
  -2.1250000000000002E-002     1.0176597403759021E-007
  -2.1200000000000000E-002     1.0437985498369201E-007
  -2.1149999999999999E-002     1.0706415864905848E-007
  -2.1100000000000001E-002     1.0981431201912481E-007
  -2.1049999999999999E-002     1.1262495322602114E-007
  -2.1000000000000001E-002     1.1549065261436302E-007
  -2.0950000000000000E-002     1.1840677757796094E-007
  -2.0899999999999998E-002     1.2137042411507147E-007
  -2.0850000000000000E-002     1.2438081967835201E-007
  -2.0799999999999999E-002     1.2743915935984511E-007
  -2.0750000000000001E-002     1.3054809008569228E-007
  -2.0700000000000000E-002     1.3371081966965959E-007
  -2.0649999999999998E-002     1.3693046826133746E-007
  -2.0600000000000000E-002     1.4020969045955349E-007
  -2.0549999999999999E-002     1.4355072860169942E-007
  -2.0500000000000001E-002     1.4695553433196305E-007
  -2.0449999999999999E-002     1.5042609372525684E-007
  -2.0400000000000001E-002     1.5396448719024805E-007
  -2.0350000000000000E-002     1.5757310236951937E-007
  -2.0299999999999999E-002     1.6125463883651013E-007
  -2.0250000000000001E-002     1.6501183652191953E-007
  -2.0199999999999999E-002     1.6884708609090543E-007
  -2.0150000000000001E-002     1.7276198606294548E-007
  -2.0100000000000000E-002     1.7675723302773988E-007
  -2.0049999999999998E-002     1.8083321487423395E-007
  -2.0000000000000000E-002     1.8499095936011781E-007
  -1.9949999999999999E-002     1.8923320028382186E-007
  -1.9900000000000001E-002     1.9356498928608314E-007
  -1.9850000000000000E-002     1.9799350512064946E-007
  -1.9799999999999998E-002     2.0252730304826649E-007
  -1.9750000000000000E-002     2.0717525918438757E-007
  -1.9699999999999999E-002     2.1194554167350286E-007
  -1.9650000000000001E-002     2.1684480753875583E-007
  -1.9599999999999999E-002     2.2187754459770817E-007
  -1.9550000000000001E-002     2.2704611320524529E-007
  -1.9500000000000000E-002     2.3235129053147390E-007
  -1.9449999999999999E-002     2.3779294840747961E-007
  -1.9400000000000001E-002     2.4337025206694912E-007
  -1.9349999999999999E-002     2.4908168877806418E-007
  -1.9300000000000001E-002     2.5492462693980419E-007
  -1.9250000000000000E-002     2.6089509185869140E-007
  -1.9199999999999998E-002     2.6698813454806430E-007
  -1.9150000000000000E-002     2.7319844753944073E-007
  -1.9099999999999999E-002     2.7952148230444538E-007
  -1.9050000000000001E-002     2.8595398819117878E-007
  -1.9000000000000000E-002     2.9249469100925507E-007
  -1.8949999999999998E-002     2.9914501160451443E-007
  -1.8900000000000000E-002     3.0590920862715437E-007
  -1.8849999999999999E-002     3.1279463825036761E-007
  -1.8800000000000001E-002     3.1981092647524713E-007
  -1.8749999999999999E-002     3.2696879039847328E-007
  -1.8700000000000001E-002     3.3427823215918655E-007
  -1.8650000000000000E-002     3.4174721283612200E-007
  -1.8599999999999998E-002     3.4938093539719839E-007
  -1.8550000000000001E-002     3.5718173902210998E-007
  -1.8499999999999999E-002     3.6514946142014111E-007
  -1.8450000000000001E-002     3.7328243347574601E-007
  -1.8400000000000000E-002     3.8157830643719558E-007
  -1.8349999999999998E-002     3.9003496635733977E-007
  -1.8300000000000000E-002     3.9865124853845552E-007
  -1.8249999999999999E-002     4.0742692382767046E-007
  -1.8200000000000001E-002     4.1636212095254209E-007
  -1.8149999999999999E-002     4.2545728510165449E-007
  -1.8100000000000002E-002     4.3471371869380664E-007
  -1.8050000000000000E-002     4.4413411055312244E-007
  -1.7999999999999999E-002     4.5372399050070191E-007
  -1.7950000000000001E-002     4.6349192282685897E-007
  -1.7899999999999999E-002     4.7344865204441616E-007
  -1.7850000000000001E-002     4.8360533352292139E-007
  -1.7800000000000000E-002     4.9397178759745458E-007
  -1.7749999999999998E-002     5.0455526596766763E-007
  -1.7700000000000000E-002     5.1535924719057082E-007
  -1.7649999999999999E-002     5.2638342002486460E-007
  -1.7600000000000001E-002     5.3762432990624796E-007
  -1.7550000000000000E-002     5.4907668850156642E-007
  -1.7499999999999998E-002     5.6073527600275672E-007
  -1.7450000000000000E-002     5.7259662797703088E-007
  -1.7399999999999999E-002     5.8466060437924578E-007
  -1.7350000000000001E-002     5.9693005500360818E-007
  -1.7299999999999999E-002     6.0940970157756824E-007
  -1.7250000000000001E-002     6.2210528517245628E-007
  -1.7200000000000000E-002     6.3502269477357593E-007
  -1.7149999999999999E-002     6.4816782937740027E-007
  -1.7100000000000001E-002     6.6154715694977201E-007
  -1.7049999999999999E-002     6.7516797775433016E-007
  -1.7000000000000001E-002     6.8903901827714576E-007
  -1.6950000000000000E-002     7.0316977143275764E-007
  -1.6899999999999998E-002     7.1757067971621185E-007
  -1.6850000000000000E-002     7.3225194300649337E-007
  -1.6799999999999999E-002     7.4722223831514179E-007
  -1.6750000000000001E-002     7.6248707878239569E-007
  -1.6700000000000000E-002     7.7804727788934677E-007
  -1.6649999999999998E-002     7.9389931205461264E-007
  -1.6600000000000000E-002     8.1003700807452012E-007
  -1.6549999999999999E-002     8.2645357334589616E-007
  -1.6500000000000001E-002     8.4314445575095996E-007
  -1.6449999999999999E-002     8.6010829080375235E-007
  -1.6400000000000001E-002     8.7734683646471924E-007
  -1.6350000000000000E-002     8.9486355971937465E-007
  -1.6299999999999999E-002     9.1266247890542466E-007
  -1.6250000000000001E-002     9.3074786667976981E-007
  -1.6199999999999999E-002     9.4912362256111812E-007
  -1.6150000000000001E-002     9.6779287215954993E-007
  -1.6100000000000000E-002     9.8675919761963989E-007
  -1.6049999999999998E-002     1.0060275443283364E-006
  -1.6000000000000000E-002     1.0256051400505564E-006
  -1.5949999999999999E-002     1.0455013404250773E-006
  -1.5900000000000001E-002     1.0657265676132910E-006
  -1.5850000000000000E-002     1.0862897678382153E-006
  -1.5799999999999998E-002     1.1071962435697739E-006
  -1.5750000000000000E-002     1.1284470197013539E-006
  -1.5699999999999999E-002     1.1500407233101797E-006
  -1.5650000000000001E-002     1.1719747866021750E-006
  -1.5599999999999999E-002     1.1942470968298798E-006
  -1.5550000000000001E-002     1.2168573733356737E-006
  -1.5500000000000000E-002     1.2398077350102256E-006
  -1.5449999999999998E-002     1.2631031820202129E-006
  -1.5400000000000000E-002     1.2867520160793430E-006
  -1.5349999999999999E-002     1.3107640690991946E-006
  -1.5300000000000001E-002     1.3351495655244712E-006
  -1.5250000000000000E-002     1.3599162884484151E-006
  -1.5199999999999998E-002     1.3850688838996476E-006
  -1.5150000000000000E-002     1.4106099120455044E-006
  -1.5099999999999999E-002     1.4365426747013917E-006
  -1.5050000000000001E-002     1.4628723613373436E-006
  -1.4999999999999999E-002     1.4896058415826109E-006
  -1.4949999999999998E-002     1.5167506523359093E-006
  -1.4900000000000000E-002     1.5443129084591592E-006
  -1.4849999999999999E-002     1.5722964387531937E-006
  -1.4800000000000001E-002     1.6007020516567670E-006
  -1.4749999999999999E-002     1.6295274010742687E-006
  -1.4700000000000001E-002     1.6587666281941067E-006
  -1.4650000000000000E-002     1.6884115553950116E-006
  -1.4599999999999998E-002     1.7184541920654041E-006
  -1.4550000000000000E-002     1.7488899088967467E-006
  -1.4499999999999999E-002     1.7797188400510115E-006
  -1.4450000000000001E-002     1.8109463663269731E-006
  -1.4400000000000000E-002     1.8425803215051857E-006
  -1.4349999999999998E-002     1.8746288574619072E-006
  -1.4300000000000000E-002     1.9070987781059345E-006
  -1.4249999999999999E-002     1.9399977522663914E-006
  -1.4200000000000001E-002     1.9733338933672864E-006
  -1.4149999999999999E-002     2.0071156715918147E-006
  -1.4099999999999998E-002     2.0413517069643627E-006
  -1.4050000000000000E-002     2.0760486484596725E-006
  -1.3999999999999999E-002     2.1112133461970827E-006
  -1.3950000000000001E-002     2.1468524752809848E-006
  -1.3899999999999999E-002     2.1829712067962271E-006
  -1.3850000000000001E-002     2.2195726573608794E-006
  -1.3800000000000000E-002     2.2566549877075717E-006
  -1.3749999999999998E-002     2.2942120421712957E-006
  -1.3700000000000000E-002     2.3322341242805212E-006
  -1.3649999999999999E-002     2.3707139806220825E-006
  -1.3600000000000001E-002     2.4096477173537489E-006
  -1.3550000000000000E-002     2.4490349119795875E-006
  -1.3499999999999998E-002     2.4888775614600306E-006
  -1.3450000000000000E-002     2.5291796557838772E-006
  -1.3399999999999999E-002     2.5699484327042792E-006
  -1.3350000000000001E-002     2.6111942735088800E-006
  -1.3299999999999999E-002     2.6529261561229350E-006
  -1.3249999999999998E-002     2.6951496662214807E-006
  -1.3200000000000000E-002     2.7378636714532055E-006
  -1.3149999999999998E-002     2.7810644537460116E-006
  -1.3100000000000001E-002     2.8247467468322880E-006
  -1.3049999999999999E-002     2.8689066853784376E-006
  -1.3000000000000001E-002     2.9135410329970686E-006
  -1.2950000000000000E-002     2.9586466226215509E-006
  -1.2899999999999998E-002     3.0042179729141361E-006
  -1.2850000000000000E-002     3.0502476523505900E-006
  -1.2799999999999999E-002     3.0967289269171669E-006