  -4.0000000000000001E-002     0.0000000000000000     
  -3.9949999999999999E-002     0.0000000000000000     
  -3.9899999999999998E-002     0.0000000000000000     
  -3.9850000000000003E-002     0.0000000000000000     
  -3.9800000000000002E-002     0.0000000000000000     
  -3.9750000000000001E-002     0.0000000000000000     
  -3.9699999999999999E-002     0.0000000000000000     
  -3.9649999999999998E-002     0.0000000000000000     
  -3.9600000000000003E-002     0.0000000000000000     
  -3.9550000000000002E-002     0.0000000000000000     
  -3.9500000000000000E-002     0.0000000000000000     
  -3.9449999999999999E-002     0.0000000000000000     
  -3.9399999999999998E-002     0.0000000000000000     
  -3.9350000000000003E-002     0.0000000000000000     
  -3.9300000000000002E-002     0.0000000000000000     
  -3.9250000000000000E-002     0.0000000000000000     
  -3.9199999999999999E-002     0.0000000000000000     
  -3.9150000000000004E-002     0.0000000000000000     
  -3.9100000000000003E-002     0.0000000000000000     
  -3.9050000000000001E-002     0.0000000000000000     
  -3.9000000000000000E-002     0.0000000000000000     
  -3.8949999999999999E-002     0.0000000000000000     
  -3.8900000000000004E-002     0.0000000000000000     
  -3.8850000000000003E-002     0.0000000000000000     
  -3.8800000000000001E-002     0.0000000000000000     
  -3.8750000000000000E-002     0.0000000000000000     
  -3.8699999999999998E-002     0.0000000000000000     
  -3.8650000000000004E-002     0.0000000000000000     
  -3.8600000000000002E-002     0.0000000000000000     
  -3.8550000000000001E-002     0.0000000000000000     
  -3.8500000000000000E-002     0.0000000000000000     
  -3.8449999999999998E-002    -2.6818090300240165E-040
  -3.8400000000000004E-002    -1.6590276583124992E-039
  -3.8350000000000002E-002    -4.1608710255864374E-039
  -3.8300000000000001E-002    -5.3589283374787164E-039
  -3.8249999999999999E-002     3.7918451910091944E-039
  -3.8199999999999998E-002     4.7712220032595290E-038
  -3.8150000000000003E-002     1.3814897401309313E-037
  -3.8100000000000002E-002     3.0442445698918465E-037
  -3.8050000000000000E-002     5.1089874486426725E-037
  -3.7999999999999999E-002     5.0335887637386602E-037
  -3.7949999999999998E-002    -4.9932126484704655E-037
  -3.7900000000000003E-002    -3.8871237536376799E-036
  -3.7850000000000002E-002    -1.1125432452762867E-035
  -3.7800000000000000E-002    -2.1764651587466343E-035
  -3.7749999999999999E-002    -2.9320684331361035E-035
  -3.7699999999999997E-002    -1.5738913362131917E-035
  -3.7650000000000003E-002     5.1462592080385051E-035
  -3.7600000000000001E-002     2.1014541713839158E-034
  -3.7550000000000000E-002     4.6950260160825197E-034
  -3.7499999999999999E-002     7.4216251340974876E-034
  -3.7449999999999997E-002     7.5545478502562502E-034
  -3.7400000000000003E-002     4.3618020676268780E-038
  -3.7350000000000001E-002    -2.1672990459362851E-033
  -3.7300000000000000E-002    -6.1170216990373516E-033
  -3.7249999999999998E-002    -1.1149905922131972E-032
  -3.7200000000000004E-002    -1.4461555046156140E-032
  -3.7150000000000002E-002    -1.0453574372661223E-032
  -3.7100000000000001E-002     8.5215538337902368E-033
  -3.7050000000000000E-002     4.8674728706199851E-032
  -3.6999999999999998E-002     1.0784192876360535E-031
  -3.6950000000000004E-002     1.6627833039103630E-031
  -3.6900000000000002E-002     1.7955173488839047E-031
  -3.6850000000000001E-002     8.1325866328253941E-032
  -3.6799999999999999E-002    -1.9484712854338556E-031
  -3.6749999999999998E-002    -6.6953256131750019E-031
  -3.6700000000000003E-002    -1.2536533256031803E-030
  -3.6650000000000002E-002    -1.6920098223474380E-030
  -3.6600000000000001E-002    -1.5584052819039063E-030
  -3.6549999999999999E-002    -3.5417692880813066E-031
  -3.6499999999999998E-002     2.2577789221004546E-030
  -3.6450000000000003E-002     6.1085401844974983E-030
  -3.6400000000000002E-002     1.0181874848785152E-029
  -3.6350000000000000E-002     1.2478403203769891E-029
  -3.6299999999999999E-002     1.0320761805069437E-029
  -3.6249999999999998E-002     1.2520011263085156E-030
  -3.6200000000000003E-002    -1.5551295275596041E-029
  -3.6150000000000002E-002    -3.7766634627268388E-029
  -3.6100000000000000E-002    -5.9037091765455387E-029
  -3.6049999999999999E-002    -6.9505621043266413E-029
  -3.6000000000000004E-002    -5.8237928504641606E-029
  -3.5950000000000003E-002    -1.7240218149207470E-029
  -3.5900000000000001E-002     5.4156681050660297E-029
  -3.5850000000000000E-002     1.4638161913734348E-028
  -3.5799999999999998E-002     2.3974936521466100E-028
  -3.5750000000000004E-002     3.0787149384537788E-028
  -3.5700000000000003E-002     3.2269745121455480E-028
  -3.5650000000000001E-002     2.5830678807478855E-028
  -3.5600000000000000E-002     9.1483352421902005E-029
  -3.5549999999999998E-002    -1.9925204265537872E-028
  -3.5500000000000004E-002    -6.2946645131316793E-028
  -3.5450000000000002E-002    -1.1901194110099947E-027
  -3.5400000000000001E-002    -1.8092543135023820E-027
  -3.5349999999999999E-002    -2.3028263775418479E-027
  -3.5299999999999998E-002    -2.3437314326732845E-027
  -3.5250000000000004E-002    -1.4942836673435455E-027
  -3.5200000000000002E-002     6.5600017457255874E-028
  -3.5150000000000001E-002     4.2409184945699083E-027
  -3.5099999999999999E-002     8.8162274622017891E-027
  -3.5049999999999998E-002     1.3140598369850175E-026
  -3.5000000000000003E-002     1.5214069053339185E-026
  -3.4950000000000002E-002     1.2713102177811497E-026
  -3.4900000000000000E-002     3.8290517216655214E-027
  -3.4849999999999999E-002    -1.1682649993429448E-026
  -3.4799999999999998E-002    -3.1620855974180128E-026
  -3.4750000000000003E-002    -5.1069808451305458E-026
  -3.4700000000000002E-002    -6.3062959626786362E-026
  -3.4650000000000000E-002    -6.0195508828754622E-026
  -3.4599999999999999E-002    -3.6838427716551649E-026
  -3.4549999999999997E-002     8.6358392135100844E-027
  -3.4500000000000003E-002     7.2193031365347784E-026
  -3.4450000000000001E-002     1.4336948377951875E-025
  -3.4400000000000000E-002     2.0544687585227687E-025
  -3.4349999999999999E-002     2.3660754578825146E-025
  -3.4299999999999997E-002     2.1251406258586761E-025
  -3.4250000000000003E-002     1.1134850242402876E-025
  -3.4200000000000001E-002    -7.7547294899728475E-026
  -3.4150000000000000E-002    -3.4150186196514842E-025
  -3.4099999999999998E-002    -6.3180508680936996E-025
  -3.4049999999999997E-002    -8.5733133649037950E-025
  -3.4000000000000002E-002    -8.9406310943295661E-025
  -3.3950000000000001E-002    -6.1859611000645927E-025
  -3.3900000000000000E-002     3.4256787541986841E-026
  -3.3849999999999998E-002     1.0036621421468257E-024
  -3.3799999999999997E-002     2.0540997212858337E-024
  -3.3750000000000002E-002     2.7836192646244316E-024
  -3.3700000000000001E-002     2.7190110742982807E-024
  -3.3649999999999999E-002     1.4989371080272763E-024
  -3.3599999999999998E-002    -8.9946397836671847E-025
  -3.3550000000000003E-002    -3.9807613621072543E-024
  -3.3500000000000002E-002    -6.7099313885120779E-024
  -3.3450000000000001E-002    -7.7353651612301582E-024
  -3.3399999999999999E-002    -5.8605737290120574E-024
  -3.3349999999999998E-002    -6.4970236424735892E-025
  -3.3300000000000003E-002     7.0603614244726484E-024
  -3.3250000000000002E-002     1.5014612690094093E-023
  -3.3200000000000000E-002     1.9966389901853508E-023
  -3.3149999999999999E-002     1.8690401084722012E-023
  -3.3099999999999997E-002     9.3347640633721076E-024
  -3.3050000000000003E-002    -7.3661834177411543E-024
  -3.3000000000000002E-002    -2.7575931398638824E-023
  -3.2950000000000000E-002    -4.4941270121140153E-023
  -3.2899999999999999E-002    -5.2308845206024847E-023
  -3.2850000000000004E-002    -4.4128651293157435E-023
  -3.2800000000000003E-002    -1.8729891345408956E-023
  -3.2750000000000001E-002     2.0415659305925415E-023
  -3.2700000000000000E-002     6.5010503542273827E-023
  -3.2649999999999998E-002     1.0378729723034820E-022
  -3.2600000000000004E-002     1.2523233421710991E-022
  -3.2550000000000003E-002     1.2018656032381582E-022
  -3.2500000000000001E-002     8.3545972972589558E-023
  -3.2450000000000000E-002     1.4966641753435193E-023
  -3.2399999999999998E-002    -8.0746774307027187E-023
  -3.2350000000000004E-002    -1.9259118889557237E-022
  -3.2300000000000002E-002    -3.0128777745123703E-022
  -3.2250000000000001E-002    -3.7730383924897773E-022
  -3.2199999999999999E-002    -3.8178405280356354E-022
  -3.2149999999999998E-002    -2.7387975038129214E-022
  -3.2100000000000004E-002    -2.6473920327551068E-023
  -3.2050000000000002E-002     3.5174410421811287E-022
  -3.2000000000000001E-002     7.9545953529222196E-022
  -3.1949999999999999E-002     1.1753332125168851E-021
  -3.1899999999999998E-002     1.3165172668148354E-021
  -3.1850000000000003E-002     1.0492151188173346E-021
  -3.1800000000000002E-002     2.8440785116397264E-022
  -3.1750000000000000E-002    -9.0815027822508164E-022
  -3.1699999999999999E-002    -2.2547842456295472E-021
  -3.1649999999999998E-002    -3.3013423419567209E-021
  -3.1600000000000003E-002    -3.5247463425300132E-021
  -3.1550000000000002E-002    -2.5201431702268877E-021
  -3.1500000000000000E-002    -2.1224350265572063E-022
  -3.1449999999999999E-002     2.9907555951379202E-021
  -3.1399999999999997E-002     6.1868313805707138E-021
  -3.1350000000000003E-002     8.1675843172483810E-021
  -3.1300000000000001E-002     7.7915332159281538E-021
  -3.1250000000000000E-002     4.4493452976185295E-021
  -3.1199999999999999E-002    -1.5396782264896115E-021
  -3.1150000000000001E-002    -8.7787403872560202E-021
  -3.1100000000000003E-002    -1.5019713064002454E-020
  -3.1050000000000001E-002    -1.7773828070967621E-020
  -3.1000000000000000E-002    -1.5165072709220252E-020
  -3.0949999999999998E-002    -6.7549677460617571E-021
  -3.0900000000000000E-002     5.9814175198800221E-021
  -3.0850000000000002E-002     1.9778782711415755E-020
  -3.0800000000000001E-002     3.0371418968138756E-020
  -3.0750000000000000E-002     3.3772753807306345E-020
  -3.0699999999999998E-002     2.7652619670740747E-020
  -3.0650000000000000E-002     1.2326630306573132E-020
  -3.0600000000000002E-002    -9.0422683031440216E-021
  -3.0550000000000001E-002    -3.1175429781981814E-020
  -3.0499999999999999E-002    -4.8148063796428546E-020
  -3.0449999999999998E-002    -5.5108659588344769E-020
  -3.0400000000000000E-002    -4.9645505460739784E-020
  -3.0350000000000002E-002    -3.2328020912134201E-020
  -3.0300000000000001E-002    -6.2923291738330947E-021
  -3.0249999999999999E-002     2.3847368856807165E-020
  -3.0200000000000001E-002     5.3189066575884088E-020
  -3.0150000000000000E-002     7.7255908549544916E-020
  -3.0100000000000002E-002     9.1971927405063645E-020
  -3.0050000000000000E-002     9.3165580008996396E-020
  -2.9999999999999999E-002     7.6333282272473182E-020
  -2.9950000000000001E-002     3.7508628796267748E-020
  -2.9899999999999999E-002    -2.4341486157583057E-020
  -2.9850000000000002E-002    -1.0387863602109325E-019
  -2.9800000000000000E-002    -1.8644038021230392E-019
  -2.9749999999999999E-002    -2.4774346421300854E-019
  -2.9700000000000001E-002    -2.5813433045128106E-019
  -2.9650000000000003E-002    -1.9185096058284526E-019
  -2.9600000000000001E-002    -3.9455924750654228E-020
  -2.9550000000000000E-002     1.8077824376063598E-019
  -2.9499999999999998E-002     4.1807655732819295E-019
  -2.9450000000000000E-002     5.9578298859362767E-019
  -2.9400000000000003E-002     6.3104147109079844E-019
  -2.9350000000000001E-002     4.6416522300322156E-019
  -2.9300000000000000E-002     8.9071953424898700E-020
  -2.9249999999999998E-002    -4.2710577322145436E-019
  -2.9200000000000000E-002    -9.4641272647986344E-019
  -2.9150000000000002E-002    -1.2901075192373546E-018
  -2.9100000000000001E-002    -1.2925470495802715E-018
  -2.9049999999999999E-002    -8.6468504473107141E-019
  -2.8999999999999998E-002    -4.5475470783423466E-020
  -2.8950000000000000E-002     9.8123632409138840E-019
  -2.8900000000000002E-002     1.9187805390472898E-018
  -2.8850000000000001E-002     2.4376839047342264E-018
  -2.8799999999999999E-002     2.2841689446382350E-018
  -2.8749999999999998E-002     1.3828595274836452E-018
  -2.8700000000000000E-002    -1.0511556094786276E-019
  -2.8650000000000002E-002    -1.7979089445894113E-018
  -2.8600000000000000E-002    -3.1893704314953351E-018
  -2.8549999999999999E-002    -3.8037656899301787E-018
  -2.8500000000000001E-002    -3.3611297127671649E-018
  -2.8450000000000000E-002    -1.8945067906241253E-018
  -2.8400000000000002E-002     2.2978225312212419E-019
  -2.8350000000000000E-002     2.4075570444811490E-018
  -2.8299999999999999E-002     3.9850463418505120E-018
  -2.8250000000000001E-002     4.4791209823679466E-018
  -2.8200000000000003E-002     3.7497545270063647E-018
  -2.8150000000000001E-002     2.0555992722932177E-018
  -2.8100000000000000E-002    -3.6955614990876763E-020
  -2.8049999999999999E-002    -1.8646610705835648E-018
  -2.8000000000000001E-002    -2.9201879545166905E-018
  -2.7950000000000003E-002    -3.0442360410960036E-018
  -2.7900000000000001E-002    -2.4706797508287528E-018
  -2.7850000000000000E-002    -1.6945302683781811E-018
  -2.7799999999999998E-002    -1.2089816888454453E-018
  -2.7750000000000000E-002    -1.2244235466206498E-018
  -2.7700000000000002E-002    -1.5071304606787921E-018
  -2.7650000000000001E-002    -1.4404893978924813E-018
  -2.7600000000000000E-002    -3.2219703774126239E-019
  -2.7549999999999998E-002     2.2026341086077283E-018
  -2.7500000000000000E-002     5.7622399273883710E-018
  -2.7450000000000002E-002     9.1428445030124328E-018
  -2.7400000000000001E-002     1.0573613014890254E-017
  -2.7349999999999999E-002     8.3936966014374957E-018
  -2.7299999999999998E-002     1.8990052024937268E-018
  -2.7250000000000000E-002    -7.9713971865579810E-018
  -2.7200000000000002E-002    -1.8468833903729067E-017
  -2.7150000000000001E-002    -2.5613192634394408E-017
  -2.7099999999999999E-002    -2.5474812857775895E-017
  -2.7049999999999998E-002    -1.5806175031675689E-017
  -2.7000000000000000E-002     2.5667896380825077E-018
  -2.6950000000000002E-002     2.5228480796499860E-017
  -2.6900000000000000E-002     4.4958298179653534E-017
  -2.6849999999999999E-002     5.3811579051363668E-017
  -2.6800000000000001E-002     4.5970006132335637E-017
  -2.6749999999999999E-002     2.0414992022496272E-017
  -2.6700000000000002E-002    -1.7651780744955546E-017
  -2.6650000000000000E-002    -5.7444627846350916E-017
  -2.6599999999999999E-002    -8.5450570301424057E-017
  -2.6550000000000001E-002    -8.9844164826153310E-017
  -2.6500000000000003E-002    -6.5080154632424405E-017
  -2.6450000000000001E-002    -1.4969825053637722E-017
  -2.6400000000000000E-002     4.7166832310278226E-017
  -2.6349999999999998E-002     1.0180750716090930E-016
  -2.6300000000000000E-002     1.2930733187167176E-016
  -2.6250000000000002E-002     1.1691605211362042E-016
  -2.6200000000000001E-002     6.4269858744450297E-017
  -2.6150000000000000E-002    -1.4889824796077250E-017
  -2.6099999999999998E-002    -9.5918680489497367E-017
  -2.6050000000000000E-002    -1.5085149481442794E-016
  -2.6000000000000002E-002    -1.5810719046395363E-016
  -2.5950000000000001E-002    -1.1097398491292068E-016
  -2.5899999999999999E-002    -2.1575006446801922E-017
  -2.5849999999999998E-002     8.1682671215206886E-017
  -2.5800000000000000E-002     1.6294649064042056E-016
  -2.5750000000000002E-002     1.9140709953264312E-016
  -2.5700000000000001E-002     1.5311604594004115E-016
  -2.5649999999999999E-002     5.7586573776311016E-017
  -2.5599999999999998E-002    -6.3859940011673788E-017
  -2.5550000000000000E-002    -1.6819063326520983E-016
  -2.5500000000000002E-002    -2.1613365125720798E-016
  -2.5450000000000000E-002    -1.8753756881000552E-016
  -2.5399999999999999E-002    -9.0584328802210852E-017
  -2.5349999999999998E-002     3.9397754784804089E-017
  -2.5300000000000000E-002     1.5210174694321125E-016
  -2.5250000000000002E-002     2.0162855777597820E-016
  -2.5200000000000000E-002     1.6596791829624602E-016
  -2.5149999999999999E-002     5.8555089458390295E-017
  -2.5100000000000001E-002    -7.3871110150118211E-017
  -2.5049999999999999E-002    -1.6798687763153167E-016
  -2.5000000000000001E-002    -1.7012076840216653E-016
  -2.4950000000000000E-002    -6.2254784081641761E-017
  -2.4899999999999999E-002     1.2335063634515635E-016
  -2.4850000000000001E-002     3.0904796621516620E-016
  -2.4800000000000003E-002     3.9754344577793550E-016
  -2.4750000000000001E-002     3.1136441800772842E-016
  -2.4700000000000000E-002     3.1982613352804937E-017
  -2.4649999999999998E-002    -3.7783346587065615E-016
  -2.4600000000000000E-002    -7.8099452055110382E-016
  -2.4550000000000002E-002    -1.0053428292701334E-015
  -2.4500000000000001E-002    -9.0568098923202811E-016
  -2.4450000000000000E-002    -4.2827507914137621E-016
  -2.4399999999999998E-002     3.4716312211939565E-016
  -2.4350000000000000E-002     1.2086864045816349E-015
  -2.4299999999999999E-002     1.8641540691644541E-015
  -2.4250000000000001E-002     2.0335661505999393E-015
  -2.4199999999999999E-002     1.5540574511763868E-015
  -2.4150000000000001E-002     4.6056199043518160E-016
  -2.4100000000000000E-002    -9.9170911147424915E-016
  -2.4049999999999998E-002    -2.3805476578279883E-015
  -2.4000000000000000E-002    -3.2380572822575512E-015
  -2.3949999999999999E-002    -3.2062171315891248E-015
  -2.3900000000000001E-002    -2.1756491996001019E-015
  -2.3850000000000000E-002    -3.5564280929976119E-016
  -2.3800000000000002E-002     1.7584277315131371E-015
  -2.3750000000000000E-002     3.5213981836613744E-015
  -2.3699999999999999E-002     4.3422208511527818E-015
  -2.3650000000000001E-002     3.8907681113604887E-015
  -2.3599999999999999E-002     2.2344650528740990E-015
  -2.3550000000000001E-002    -1.5103008097639878E-016
  -2.3500000000000000E-002    -2.5134075492725192E-015
  -2.3449999999999999E-002    -4.0641579247410317E-015
  -2.3400000000000001E-002    -4.2518711114334108E-015
  -2.3349999999999999E-002    -2.9730871297574301E-015
  -2.3300000000000001E-002    -6.3928074656267929E-016
  -2.3250000000000000E-002     1.9364616848245980E-015
  -2.3199999999999998E-002     3.8066205770610997E-015
  -2.3150000000000000E-002     4.2249207134073576E-015
  -2.3099999999999999E-002     2.9324418761531218E-015
  -2.3050000000000001E-002     2.8443961845254088E-016
  -2.3000000000000000E-002    -2.8415618147004025E-015
  -2.2950000000000002E-002    -5.3385564977421661E-015
  -2.2900000000000000E-002    -6.2681924900484015E-015
  -2.2849999999999999E-002    -5.2203184234953842E-015
  -2.2800000000000001E-002    -2.4923343896417199E-015
  -2.2749999999999999E-002     9.9606217838587173E-016
  -2.2700000000000001E-002     4.0411399760765033E-015
  -2.2650000000000000E-002     5.6333386761410664E-015
  -2.2599999999999999E-002     5.3945428817831465E-015
  -2.2550000000000001E-002     3.7893343559724568E-015
  -2.2499999999999999E-002     1.9942114982793889E-015
  -2.2450000000000001E-002     1.4327393082347697E-015
  -2.2400000000000000E-002     3.1217082588690909E-015
  -2.2349999999999998E-002     7.0718231933682972E-015
  -2.2300000000000000E-002     1.2002203959950857E-014
  -2.2249999999999999E-002     1.5544083386732968E-014
  -2.2200000000000001E-002     1.4944366824895005E-014
  -2.2150000000000000E-002     8.0864387690915627E-015
  -2.2100000000000002E-002    -5.5060247140378045E-015
  -2.2050000000000000E-002    -2.4063115518498092E-014
  -2.1999999999999999E-002    -4.3651599695330550E-014
  -2.1950000000000001E-002    -5.9027144380376926E-014
  -2.1899999999999999E-002    -6.5068019695350877E-014
  -2.1850000000000001E-002    -5.8368942672123031E-014
  -2.1800000000000000E-002    -3.8465763650102902E-014
  -2.1749999999999999E-002    -8.2333091769024720E-015
  -2.1700000000000001E-002     2.6755829861921357E-014
  -2.1649999999999999E-002     5.9774542977953903E-014
  -2.1600000000000001E-002     8.4914890953468867E-014
  -2.1550000000000000E-002     9.8823862021666892E-014
  -2.1499999999999998E-002     1.0156179443510315E-013
  -2.1450000000000000E-002     9.6210677545574914E-014
  -2.1399999999999999E-002     8.7291229774126649E-014
  -2.1350000000000001E-002     7.8501535072177997E-014
  -2.1299999999999999E-002     7.0600929669402714E-014
  -2.1250000000000002E-002     6.0302230094939266E-014
  -2.1200000000000000E-002     4.0758401772243328E-014
  -2.1149999999999999E-002     3.7078177074586633E-015
  -2.1100000000000001E-002    -5.7261576043182821E-014
  -2.1049999999999999E-002    -1.4334215771123819E-013
  -2.1000000000000001E-002    -2.4820167970842913E-013
  -2.0950000000000000E-002    -3.5767430029030999E-013
  -2.0899999999999998E-002    -4.5178826415158084E-013
  -2.0850000000000000E-002    -5.0871528480443516E-013
  -2.0799999999999999E-002    -5.0956400025137535E-013
  -2.0750000000000001E-002    -4.4261358073515874E-013
  -2.0700000000000000E-002    -3.0573381383842996E-013
  -2.0649999999999998E-002    -1.0633952446729165E-013
  -2.0600000000000000E-002     1.4091389896422783E-013
  -2.0549999999999999E-002     4.1767981060372357E-013
  -2.0500000000000001E-002     7.0524761608220367E-013
  -2.0449999999999999E-002     9.8629154266662131E-013
  -2.0400000000000001E-002     1.2443497244800373E-012
  -2.0350000000000000E-002     1.4613549038486638E-012
  -2.0299999999999999E-002     1.6145295417522388E-012
  -2.0250000000000001E-002     1.6745256895166975E-012
  -2.0199999999999999E-002     1.6065686476322631E-012
  -2.0150000000000001E-002     1.3754939064956533E-012
  -2.0100000000000000E-002     9.5421469041611389E-013
  -2.0049999999999998E-002     3.3374176546423480E-013
  -2.0000000000000000E-002    -4.6805085489211466E-013
  -1.9949999999999999E-002    -1.4017819895602763E-012
  -1.9900000000000001E-002    -2.3879784866136558E-012
  -1.9850000000000000E-002    -3.3248152701083249E-012
  -1.9799999999999998E-002    -4.1005472841800932E-012
  -1.9750000000000000E-002    -4.6075712045219163E-012
  -1.9699999999999999E-002    -4.7546150242107022E-012
  -1.9650000000000001E-002    -4.4743741999039372E-012
  -1.9599999999999999E-002    -3.7257162103840298E-012
  -1.9550000000000001E-002    -2.4918222059689097E-012
  -1.9500000000000000E-002    -7.7742947546630969E-013
  -1.9449999999999999E-002     1.3910169291538911E-012
  -1.9400000000000001E-002     3.9593778764319486E-012
  -1.9349999999999999E-002     6.8333585494488221E-012
  -1.9300000000000001E-002     9.8618322547842881E-012
  -1.9250000000000000E-002     1.2820768414738467E-011
  -1.9199999999999998E-002     1.5403778683596252E-011
  -1.9150000000000000E-002     1.7224518318702716E-011
  -1.9099999999999999E-002     1.7833527314862234E-011
  -1.9050000000000001E-002     1.6748193254613842E-011
  -1.9000000000000000E-002     1.3490825479517972E-011
  -1.8949999999999998E-002     7.6272814146111356E-012
  -1.8900000000000000E-002    -1.2014733794941479E-012
  -1.8849999999999999E-002    -1.3260374950226789E-011
  -1.8800000000000001E-002    -2.8715437860368612E-011
  -1.8749999999999999E-002    -4.7640300113274238E-011
  -1.8700000000000001E-002    -7.0028335063647998E-011
  -1.8650000000000000E-002    -9.5803638121599907E-011
  -1.8599999999999998E-002    -1.2482582963480253E-010
  -1.8550000000000001E-002    -1.5688781718705225E-010
  -1.8499999999999999E-002    -1.9170953150539132E-010
  -1.8450000000000001E-002    -2.2893446112629540E-010
  -1.8400000000000000E-002    -2.6813579729736263E-010
  -1.8349999999999998E-002    -3.0883722357996781E-010
  -1.8300000000000000E-002    -3.5054806698148397E-010
  -1.8249999999999999E-002    -3.9280748697611083E-010
  -1.8200000000000001E-002    -4.3522776974736079E-010
  -1.8149999999999999E-002    -4.7752601821201804E-010
  -1.8100000000000002E-002    -5.1953606770493416E-010
  -1.8050000000000000E-002    -5.6119797014558869E-010
  -1.7999999999999999E-002    -6.0252991388571350E-010
  -1.7950000000000001E-002    -6.4359244109646219E-010
  -1.7899999999999999E-002    -6.8445821252391119E-010
  -1.7850000000000001E-002    -7.2519657169276553E-010
  -1.7800000000000000E-002    -7.6587812628769777E-010
  -1.7749999999999998E-002    -8.0659497080854146E-010
  -1.7700000000000000E-002    -8.4748608914895470E-010
  -1.7649999999999999E-002    -8.8875362885833121E-010
  -1.7600000000000001E-002    -9.3065951630575400E-010
  -1.7550000000000000E-002    -9.7349665007981317E-010
  -1.7499999999999998E-002    -1.0175409016224501E-009
  -1.7450000000000000E-002    -1.0629953103966816E-009
  -1.7399999999999999E-002    -1.1099468536555503E-009
  -1.7350000000000001E-002    -1.1583499741223707E-009
  -1.7299999999999999E-002    -1.2080455813724361E-009
  -1.7250000000000001E-002    -1.2588131334603715E-009
  -1.7200000000000000E-002    -1.3104419029138019E-009
  -1.7149999999999999E-002    -1.3628000312484298E-009
  -1.7100000000000001E-002    -1.4158809025197422E-009
  -1.7049999999999999E-002    -1.4698133817193378E-009
  -1.7000000000000001E-002    -1.5248331172869343E-009
  -1.6950000000000000E-002    -1.5812255172530629E-009
  -1.6899999999999998E-002    -1.6392598876299914E-009
  -1.6850000000000000E-002    -1.6991353403171302E-009
  -1.6799999999999999E-002    -1.7609544996315911E-009
  -1.6750000000000001E-002    -1.8247302282992052E-009
  -1.6700000000000000E-002    -1.8904184602154135E-009
  -1.6649999999999998E-002    -1.9579604381912224E-009
  -1.6600000000000000E-002    -2.0273165270678032E-009
  -1.6549999999999999E-002    -2.0984800233949110E-009
  -1.6500000000000001E-002    -2.1714637803857881E-009
  -1.6449999999999999E-002    -2.2462727615846041E-009
  -1.6400000000000001E-002    -2.3228736431421795E-009
  -1.6350000000000000E-002    -2.4011852333728382E-009
  -1.6299999999999999E-002    -2.4810944270566029E-009
  -1.6250000000000001E-002    -2.5625030052249954E-009
  -1.6199999999999999E-002    -2.6453888350146353E-009
  -1.6150000000000001E-002    -2.7298608830704999E-009
  -1.6100000000000000E-002    -2.8161864793516873E-009
  -1.6049999999999998E-002    -2.9047760246509641E-009
  -1.6000000000000000E-002    -2.9961229154687253E-009
  -1.5949999999999999E-002    -3.0907157521726376E-009
  -1.5900000000000001E-002    -3.1889444319757085E-009
  -1.5850000000000000E-002    -3.2910300732740471E-009
  -1.5799999999999998E-002    -3.3969986529954631E-009
  -1.5750000000000000E-002    -3.5067048908095807E-009
  -1.5699999999999999E-002    -3.6198983438933186E-009
  -1.5650000000000001E-002    -3.7363086192758281E-009
  -1.5599999999999999E-002    -3.8557258489679642E-009
  -1.5550000000000001E-002    -3.9780489247739104E-009
  -1.5500000000000000E-002    -4.1032966860245030E-009
  -1.5449999999999998E-002    -4.2315742884778565E-009
  -1.5400000000000000E-002    -4.3630204304665466E-009
  -1.5349999999999999E-002    -4.4977504729395049E-009
  -1.5300000000000001E-002    -4.6358234439770234E-009
  -1.5250000000000000E-002    -4.7772363356364855E-009
  -1.5199999999999998E-002    -4.9219570979668220E-009
  -1.5150000000000000E-002    -5.0699770198149471E-009
  -1.5099999999999999E-002    -5.2213720073847785E-009
  -1.5050000000000001E-002    -5.3763435511570511E-009
  -1.4999999999999999E-002    -5.5352352253984981E-009
  -1.4949999999999998E-002    -5.6985124503678013E-009
  -1.4900000000000000E-002    -5.8667136367624982E-009
  -1.4849999999999999E-002    -6.0403834789690550E-009
  -1.4800000000000001E-002    -6.2200076132751515E-009
  -1.4749999999999999E-002    -6.4059584511432095E-009
  -1.4700000000000001E-002    -6.5984689753253747E-009
  -1.4650000000000000E-002    -6.7976257061957694E-009
  -1.4599999999999998E-002    -7.0033882589696641E-009
  -1.4550000000000000E-002    -7.2156152860514697E-009
  -1.4499999999999999E-002    -7.4340989251098573E-009
  -1.4450000000000001E-002    -7.6585935225069976E-009
  -1.4400000000000000E-002    -7.8888412854269233E-009
  -1.4349999999999998E-002    -8.1245915662986291E-009
  -1.4300000000000000E-002    -8.3656300223405186E-009
  -1.4249999999999999E-002    -8.6118076722203430E-009
  -1.4200000000000001E-002    -8.8630835699310664E-009
  -1.4149999999999999E-002    -9.1195656150326829E-009
  -1.4099999999999998E-002    -9.3815509490983326E-009
  -1.4050000000000000E-002    -9.6495464758974357E-009
  -1.3999999999999999E-002    -9.9242506799011892E-009
  -1.3950000000000001E-002    -1.0206508089018248E-008
  -1.3899999999999999E-002    -1.0497217658378069E-008
  -1.3850000000000001E-002    -1.0797219550782862E-008
  -1.3800000000000000E-002    -1.1107185836773576E-008
  -1.3749999999999998E-002    -1.1427529605607115E-008
  -1.3700000000000000E-002    -1.1758368801187099E-008
  -1.3649999999999999E-002    -1.2099550546572694E-008
  -1.3600000000000001E-002    -1.2450728092991492E-008
  -1.3550000000000000E-002    -1.2811479851323325E-008
  -1.3499999999999998E-002    -1.3181436226145342E-008
  -1.3450000000000000E-002    -1.3560380902881635E-008
  -1.3399999999999999E-002    -1.3948313810333585E-008
  -1.3350000000000001E-002    -1.4345444178636816E-008
  -1.3299999999999999E-002    -1.4752147269748474E-008
  -1.3249999999999998E-002    -1.5168895733948630E-008
  -1.3200000000000000E-002    -1.5596181333203641E-008
  -1.3149999999999998E-002    -1.6034463509355701E-008
  -1.3100000000000001E-002    -1.6484158899501200E-008
  -1.3049999999999999E-002    -1.6945641529259180E-008
  -1.3000000000000001E-002    -1.7419280171665946E-008
  -1.2950000000000000E-002    -1.7905455262710495E-008
  -1.2899999999999998E-002    -1.8404577832127926E-008
  -1.2850000000000000E-002    -1.8917083062850609E-008
  -1.2799999999999999E-002    -1.9443423008993568E-008