  -4.0000000000000001E-002     0.0000000000000000     
  -3.9949999999999999E-002     0.0000000000000000     
  -3.9899999999999998E-002     0.0000000000000000     
  -3.9850000000000003E-002     0.0000000000000000     
  -3.9800000000000002E-002     0.0000000000000000     
  -3.9750000000000001E-002     0.0000000000000000     
  -3.9699999999999999E-002     0.0000000000000000     
  -3.9649999999999998E-002     0.0000000000000000     
  -3.9600000000000003E-002     0.0000000000000000     
  -3.9550000000000002E-002     0.0000000000000000     
  -3.9500000000000000E-002     0.0000000000000000     
  -3.9449999999999999E-002     0.0000000000000000     
  -3.9399999999999998E-002     0.0000000000000000     
  -3.9350000000000003E-002     0.0000000000000000     
  -3.9300000000000002E-002     0.0000000000000000     
  -3.9250000000000000E-002     0.0000000000000000     
  -3.9199999999999999E-002     0.0000000000000000     
  -3.9150000000000004E-002     0.0000000000000000     
  -3.9100000000000003E-002     0.0000000000000000     
  -3.9050000000000001E-002     0.0000000000000000     
  -3.9000000000000000E-002     0.0000000000000000     
  -3.8949999999999999E-002     0.0000000000000000     
  -3.8900000000000004E-002     0.0000000000000000     
  -3.8850000000000003E-002     0.0000000000000000     
  -3.8800000000000001E-002     0.0000000000000000     
  -3.8750000000000000E-002     0.0000000000000000     
  -3.8699999999999998E-002     0.0000000000000000     
  -3.8650000000000004E-002     0.0000000000000000     
  -3.8600000000000002E-002     0.0000000000000000     
  -3.8550000000000001E-002     0.0000000000000000     
  -3.8500000000000000E-002     0.0000000000000000     
  -3.8449999999999998E-002     0.0000000000000000     
  -3.8400000000000004E-002     0.0000000000000000     
  -3.8350000000000002E-002     0.0000000000000000     
  -3.8300000000000001E-002     0.0000000000000000     
  -3.8249999999999999E-002     0.0000000000000000     
  -3.8199999999999998E-002     0.0000000000000000     
  -3.8150000000000003E-002     0.0000000000000000     
  -3.8100000000000002E-002     0.0000000000000000     
  -3.8050000000000000E-002     0.0000000000000000     
  -3.7999999999999999E-002     0.0000000000000000     
  -3.7949999999999998E-002     0.0000000000000000     
  -3.7900000000000003E-002     0.0000000000000000     
  -3.7850000000000002E-002     0.0000000000000000     
  -3.7800000000000000E-002     0.0000000000000000     
  -3.7749999999999999E-002     0.0000000000000000     
  -3.7699999999999997E-002     0.0000000000000000     
  -3.7650000000000003E-002     0.0000000000000000     
  -3.7600000000000001E-002     0.0000000000000000     
  -3.7550000000000000E-002     4.1792881770423951E-040
  -3.7499999999999999E-002     1.2554476774089678E-039
  -3.7449999999999997E-002     2.0975269648622186E-039
  -3.7400000000000003E-002     0.0000000000000000     
  -3.7350000000000001E-002    -8.9091719905683557E-039
  -3.7300000000000000E-002    -2.4921315646914312E-038
  -3.7249999999999998E-002    -4.0582196137865574E-038
  -3.7200000000000004E-002    -3.7576025349902000E-038
  -3.7150000000000002E-002     5.8196872680545537E-038
  -3.7100000000000001E-002     2.8983167081576231E-037
  -3.7050000000000000E-002     6.5559738354939976E-037
  -3.6999999999999998E-002     1.0067392232122631E-036
  -3.6950000000000004E-002     9.5309195654081002E-037
  -3.6900000000000002E-002    -1.7868127200264252E-037
  -3.6850000000000001E-002    -3.1519276071837138E-036
  -3.6799999999999999E-002    -8.2328187565958629E-036
  -3.6749999999999998E-002    -1.4133134045818912E-035
  -3.6700000000000003E-002    -1.6773413936795003E-035
  -3.6650000000000002E-002    -8.7410717607941457E-036
  -3.6600000000000001E-002     1.9080104560721252E-035
  -3.6549999999999999E-002     7.2128767339437561E-035
  -3.6499999999999998E-002     1.4259254429590246E-034
  -3.6450000000000003E-002     1.9815373276420172E-034
  -3.6400000000000002E-002     1.7606220473888417E-034
  -3.6350000000000000E-002    -6.3172934979350893E-036
  -3.6299999999999999E-002    -4.1328151845105045E-034
  -3.6249999999999998E-002    -1.0223072457450183E-033
  -3.6200000000000003E-002    -1.6426300153978363E-033
  -3.6150000000000002E-002    -1.8659163395068088E-033
  -3.6100000000000000E-002    -1.1166761093699826E-033
  -3.6049999999999999E-002     1.1340484684135896E-033
  -3.6000000000000004E-002     4.9810977884075953E-033
  -3.5950000000000003E-002     9.6211931357788052E-033
  -3.5900000000000001E-002     1.3045322795127401E-032
  -3.5850000000000000E-002     1.2211935685560568E-032
  -3.5799999999999998E-002     3.9757765445530705E-033
  -3.5750000000000004E-002    -1.3218329831933373E-032
  -3.5700000000000003E-002    -3.7329465533590758E-032
  -3.5650000000000001E-002    -6.1344904611719164E-032
  -3.5600000000000000E-002    -7.3692104339790609E-032
  -3.5549999999999998E-002    -6.1223993742849930E-032
  -3.5500000000000004E-002    -1.4503197778781694E-032
  -3.5450000000000002E-002     6.6320805195158040E-032
  -3.5400000000000001E-002     1.6778783344327815E-031
  -3.5349999999999999E-002     2.6403976777447577E-031
  -3.5299999999999998E-002     3.2283318526757213E-031
  -3.5250000000000004E-002     3.1398314349613588E-031
  -3.5200000000000002E-002     2.1524438556588810E-031
  -3.5150000000000001E-002     1.1567157106949136E-032
  -3.5099999999999999E-002    -3.1085849443366091E-031
  -3.5049999999999998E-002    -7.6609995493287224E-031
  -3.5000000000000003E-002    -1.3503374032019979E-030
  -3.4950000000000002E-002    -1.9935244789499199E-030
  -3.4900000000000000E-002    -2.4896698123562403E-030
  -3.4849999999999999E-002    -2.4447576674502558E-030
  -3.4799999999999998E-002    -1.3070664595049767E-030
  -3.4750000000000003E-002     1.4569605738750974E-030
  -3.4700000000000002E-002     6.0258133390406278E-030
  -3.4650000000000000E-002     1.1802078697369346E-029
  -3.4599999999999999E-002     1.7090634646347450E-029
  -3.4549999999999997E-002     1.9120677051360664E-029
  -3.4500000000000003E-002     1.4615394100025221E-029
  -3.4450000000000001E-002     9.4511879599860796E-031
  -3.4400000000000000E-002    -2.2356475893979121E-029
  -3.4349999999999999E-002    -5.2179081667084593E-029
  -3.4299999999999997E-002    -8.1108797824426306E-029
  -3.4250000000000003E-002    -9.7892231529746933E-029
  -3.4200000000000001E-002    -8.9351450417333608E-029
  -3.4150000000000000E-002    -4.3713337006133919E-029
  -3.4099999999999998E-002     4.4919719569254573E-029
  -3.4049999999999997E-002     1.7142314329878305E-028
  -3.4000000000000002E-002     3.1463447009709203E-028
  -3.3950000000000001E-002     4.3402418726060334E-028
  -3.3900000000000000E-002     4.7078756988933214E-028
  -3.3849999999999998E-002     3.5715051961736618E-028
  -3.3799999999999997E-002     3.7379839547423064E-029
  -3.3750000000000002E-002    -4.9918047896317959E-028
  -3.3700000000000001E-002    -1.1795353572603928E-027
  -3.3649999999999999E-002    -1.8186182595692307E-027
  -3.3599999999999998E-002    -2.1242739999701111E-027
  -3.3550000000000003E-002    -1.7585848333255888E-027
  -3.3500000000000002E-002    -4.6446361997686966E-028
  -3.3450000000000001E-002     1.7627356779471170E-027
  -3.3399999999999999E-002     4.5164216457558954E-027
  -3.3349999999999998E-002     6.9206132549388434E-027
  -3.3300000000000003E-002     7.7614011662812132E-027
  -3.3250000000000002E-002     5.8519300618126890E-027
  -3.3200000000000000E-002     5.8223040486110374E-028
  -3.3149999999999999E-002    -7.5113015799756462E-027
  -3.3099999999999997E-002    -1.6414281928452234E-026
  -3.3050000000000003E-002    -2.2807850067624836E-026
  -3.3000000000000002E-002    -2.2899498012569560E-026
  -3.2950000000000000E-002    -1.3826323944072664E-026
  -3.2899999999999999E-002     4.7483682264724114E-027
  -3.2850000000000004E-002     2.9457398688654384E-026
  -3.2800000000000003E-002     5.3124575088670086E-026
  -3.2750000000000001E-002     6.6152523378143743E-026
  -3.2700000000000000E-002     5.9337928400264316E-026
  -3.2649999999999998E-002     2.7456224934880598E-026
  -3.2600000000000004E-002    -2.7510081142899374E-026
  -3.2550000000000003E-002    -9.4744792988818492E-026
  -3.2500000000000001E-002    -1.5548684692567319E-025
  -3.2450000000000000E-002    -1.8665366973331491E-025
  -3.2399999999999998E-002    -1.6662017520766145E-025
  -3.2350000000000004E-002    -8.1982389137161319E-026
  -3.2300000000000002E-002     6.6072369562451044E-026
  -3.2250000000000001E-002     2.5706128247541173E-025
  -3.2199999999999999E-002     4.4932313597239999E-025
  -3.2149999999999998E-002     5.8228944643282846E-025
  -3.2100000000000004E-002     5.8469830210974948E-025
  -3.2050000000000002E-002     3.9069756407935957E-025
  -3.2000000000000001E-002    -3.5396982479693959E-026
  -3.1949999999999999E-002    -6.6839522036478562E-025
  -3.1899999999999998E-002    -1.3940256135406006E-024
  -3.1850000000000003E-002    -1.9979050557317768E-024
  -3.1800000000000002E-002    -2.1894487363683120E-024
  -3.1750000000000000E-002    -1.6740301200698107E-024
  -3.1699999999999999E-002    -2.7182322766239681E-025
  -3.1649999999999998E-002     1.9422902879763219E-024
  -3.1600000000000003E-002     4.5293247622101511E-024
  -3.1550000000000002E-002     6.6743340029456804E-024
  -3.1500000000000000E-002     7.3302959775377443E-024
  -3.1449999999999999E-002     5.5344620283917637E-024
  -3.1399999999999997E-002     8.4365070014434313E-025
  -3.1350000000000003E-002    -6.2440647274055457E-024
  -3.1300000000000001E-002    -1.4068458004599198E-023
  -3.1250000000000000E-002    -1.9968558311220425E-023
  -3.1199999999999999E-002    -2.0919387251793129E-023
  -3.1150000000000001E-002    -1.4572620048770225E-023
  -3.1100000000000003E-002    -4.3308622315279846E-025
  -3.1050000000000001E-002     1.9251958457397833E-023
  -3.1000000000000000E-002     3.9346271976485836E-023
  -3.0949999999999998E-002     5.2732287736773548E-023
  -3.0900000000000000E-002     5.2268789615132385E-023
  -3.0850000000000002E-002     3.3385305664219044E-023
  -3.0800000000000001E-002    -3.4632894713195086E-024
  -3.0750000000000000E-002    -5.1420416261038331E-023
  -3.0699999999999998E-002    -9.7716079083872034E-023
  -3.0650000000000000E-002    -1.2632799908407297E-022
  -3.0600000000000002E-002    -1.2243105987431076E-022
  -3.0550000000000001E-002    -7.7557775559999854E-023
  -3.0499999999999999E-002     6.0530202266930425E-024
  -3.0449999999999998E-002     1.1345193985300906E-022
  -3.0400000000000000E-002     2.1837457674126506E-022
  -3.0350000000000002E-002     2.8824406850221754E-022
  -3.0300000000000001E-002     2.9201227861747444E-022
  -3.0249999999999999E-002     2.0924670901778350E-022
  -3.0200000000000001E-002     3.8402653407782875E-023
  -3.0150000000000000E-002    -1.9782504951885811E-022
  -3.0100000000000002E-002    -4.5186357498073664E-022
  -3.0050000000000000E-002    -6.5657266043922374E-022
  -2.9999999999999999E-002    -7.3698160970231178E-022
  -2.9950000000000001E-002    -6.2789103980224352E-022
  -2.9899999999999999E-002    -2.9529991360460779E-022
  -2.9850000000000002E-002     2.4233230208604245E-022
  -2.9800000000000000E-002     8.9909258107496296E-022
  -2.9749999999999999E-002     1.5204416976684069E-021
  -2.9700000000000001E-002     1.9029687512580012E-021
  -2.9650000000000003E-002     1.8386494335987009E-021
  -2.9600000000000001E-002     1.1801064467915124E-021
  -2.9550000000000000E-002    -8.6250155838069664E-023
  -2.9499999999999998E-002    -1.7817235131834527E-021
  -2.9450000000000000E-002    -3.5190030866522719E-021
  -2.9400000000000003E-002    -4.7519155878513468E-021
  -2.9350000000000001E-002    -4.9004251601788529E-021
  -2.9300000000000000E-002    -3.5354880792386135E-021
  -2.9249999999999998E-002    -5.7983105563753749E-022
  -2.9200000000000000E-002     3.5418110979410062E-021
  -2.9150000000000002E-002     7.8749148007316099E-021
  -2.9100000000000001E-002     1.1081827275426728E-020
  -2.9049999999999999E-002     1.1768680818544030E-020
  -2.8999999999999998E-002     8.9350574210892869E-021
  -2.8950000000000000E-002     2.4271899493306504E-021
  -2.8900000000000002E-002    -6.7611469440804882E-021
  -2.8850000000000001E-002    -1.6486668341654402E-020
  -2.8799999999999999E-002    -2.3836088559742364E-020
  -2.8749999999999998E-002    -2.5859897950430088E-020
  -2.8700000000000000E-002    -2.0505849191030613E-020
  -2.8650000000000002E-002    -7.4937508397200346E-021
  -2.8600000000000000E-002     1.1165888343739463E-020
  -2.8549999999999999E-002     3.1254152781923332E-020
  -2.8500000000000001E-002     4.7127765893951673E-020
  -2.8450000000000000E-002     5.3102466335677614E-020
  -2.8400000000000002E-002     4.5128013944227073E-020
  -2.8350000000000000E-002     2.2306187376515530E-020
  -2.8299999999999999E-002    -1.2220153736622810E-020
  -2.8250000000000001E-002    -5.1363778842032116E-020
  -2.8200000000000003E-002    -8.5300041618968330E-020
  -2.8150000000000001E-002    -1.0361794715074108E-019
  -2.8100000000000000E-002    -9.7979838810995121E-020
  -2.8049999999999999E-002    -6.4679188013342791E-020
  -2.8000000000000001E-002    -6.4523565884121203E-021
  -2.7950000000000003E-002     6.6987377622166629E-020
  -2.7900000000000001E-002     1.3999517517180254E-019
  -2.7850000000000000E-002     1.9362590295361922E-019
  -2.7799999999999998E-002     2.0954570950096425E-019
  -2.7750000000000000E-002     1.7462780380716721E-019
  -2.7700000000000002E-002     8.5391005875776942E-020
  -2.7650000000000001E-002    -4.8733802571008415E-020
  -2.7600000000000000E-002    -2.0437551265171332E-019
  -2.7549999999999998E-002    -3.4635290256024262E-019
  -2.7500000000000000E-002    -4.3345143581199498E-019
  -2.7450000000000002E-002    -4.2757062503626163E-019
  -2.7400000000000001E-002    -3.0492335400232611E-019
  -2.7349999999999999E-002    -6.6852981780392876E-020
  -2.7299999999999998E-002     2.5299676359174846E-019
  -2.7250000000000000E-002     5.8853930694998004E-019
  -2.7200000000000002E-002     8.5054817421599546E-019
  -2.7150000000000001E-002     9.4568442206912408E-019
  -2.7099999999999999E-002     8.0250995336707913E-019
  -2.7049999999999998E-002     3.9860674890103647E-019
  -2.7000000000000000E-002    -2.1928891001360736E-019
  -2.6950000000000002E-002    -9.3042369440156106E-019
  -2.6900000000000000E-002    -1.5562139278951423E-018
  -2.6849999999999999E-002    -1.8981228204313417E-018
  -2.6800000000000001E-002    -1.7911218786176926E-018
  -2.6749999999999999E-002    -1.1601418351696909E-018
  -2.6700000000000002E-002    -6.2924824113543407E-020
  -2.6650000000000000E-002     1.2968819330875784E-018
  -2.6599999999999999E-002     2.5968584937652292E-018
  -2.6550000000000001E-002     3.4634324970748428E-018
  -2.6500000000000003E-002     3.5679431283986616E-018
  -2.6450000000000001E-002     2.7282310186387942E-018
  -2.6400000000000000E-002     9.8713434678772006E-019
  -2.6349999999999998E-002    -1.3586917152425675E-018
  -2.6300000000000000E-002    -3.7958586315105664E-018
  -2.6250000000000002E-002    -5.6968678702127978E-018
  -2.6200000000000001E-002    -6.4692893379770971E-018
  -2.6150000000000000E-002    -5.7171780642075745E-018
  -2.6099999999999998E-002    -3.3731910507994195E-018
  -2.6050000000000000E-002     2.3659875250440013E-019
  -2.6000000000000002E-002     4.4191154447123684E-018
  -2.5950000000000001E-002     8.2346589773288939E-018
  -2.5899999999999999E-002     1.0691053322173958E-017
  -2.5849999999999998E-002     1.0972572107410797E-017
  -2.5800000000000000E-002     8.6544968707334738E-018
  -2.5750000000000002E-002     3.8547198546688059E-018
  -2.5700000000000001E-002    -2.7157052036874918E-018
  -2.5649999999999999E-002    -9.8235400040687988E-018
  -2.5599999999999998E-002    -1.5905181834374971E-017
  -2.5550000000000000E-002    -1.9357182606140357E-017
  -2.5500000000000002E-002    -1.8883557893100275E-017
  -2.5450000000000000E-002    -1.3841492626500622E-017
  -2.5399999999999999E-002    -4.5155109502662022E-018
  -2.5349999999999998E-002     7.7532238031304738E-018
  -2.5300000000000000E-002     2.0646514354959715E-017
  -2.5250000000000002E-002     3.1194852609525358E-017
  -2.5200000000000000E-002     3.6340067636194804E-017
  -2.5149999999999999E-002     3.3663270180844561E-017
  -2.5100000000000001E-002     2.2139850688841382E-017
  -2.5049999999999999E-002     2.7317474226247782E-018
  -2.5000000000000001E-002    -2.1386863777435114E-017
  -2.4950000000000000E-002    -4.5131971549533538E-017
  -2.4899999999999999E-002    -6.2397276950761287E-017
  -2.4850000000000001E-002    -6.7430781744651718E-017
  -2.4800000000000003E-002    -5.6436850421930562E-017
  -2.4750000000000001E-002    -2.9007767429132209E-017
  -2.4700000000000000E-002     1.1056944150781975E-017
  -2.4649999999999998E-002     5.5908206680707733E-017
  -2.4600000000000000E-002     9.4942715275181899E-017
  -2.4550000000000002E-002     1.1710044706763087E-016
  -2.4500000000000001E-002     1.1371386218596073E-016
  -2.4450000000000000E-002     8.1217076188020481E-017
  -2.4399999999999998E-002     2.2942798132561994E-017
  -2.4350000000000000E-002    -5.0633729806612588E-017
  -2.4299999999999999E-002    -1.2350723163085841E-016
  -2.4250000000000001E-002    -1.7744288447133156E-016
  -2.4199999999999999E-002    -1.9631019509795268E-016
  -2.4150000000000001E-002    -1.7043540115333079E-016
  -2.4100000000000000E-002    -9.9839849771015017E-017
  -2.4049999999999998E-002     4.5869029726650497E-018
  -2.4000000000000000E-002     1.2247790798884601E-016
  -2.3949999999999999E-002     2.2782551801788602E-016
  -2.3900000000000001E-002     2.9452409109593976E-016
  -2.3850000000000000E-002     3.0241901259666995E-016
  -2.3800000000000002E-002     2.4248563212199395E-016
  -2.3750000000000000E-002     1.1991446092699673E-016
  -2.3699999999999999E-002    -4.5684011933146101E-017
  -2.3650000000000001E-002    -2.2313696204232486E-016
  -2.3599999999999999E-002    -3.7518669831924831E-016
  -2.3550000000000001E-002    -4.6563422817963686E-016
  -2.3500000000000000E-002    -4.6688459540906458E-016
  -2.3449999999999999E-002    -3.6653820178843491E-016
  -2.3400000000000001E-002    -1.7177796818022406E-016
  -2.3349999999999999E-002     8.9443275607333294E-017
  -2.3300000000000001E-002     3.7103426452009929E-016
  -2.3250000000000000E-002     6.1534236167483633E-016
  -2.3199999999999998E-002     7.6318175093103986E-016
  -2.3150000000000000E-002     7.6608245983824384E-016
  -2.3099999999999999E-002     5.9876078165120070E-016
  -2.3050000000000001E-002     2.6918412781992734E-016
  -2.3000000000000000E-002    -1.7663182812837301E-016
  -2.2950000000000002E-002    -6.5754048493603871E-016
  -2.2900000000000000E-002    -1.0691248562854471E-015
  -2.2849999999999999E-002    -1.3037687364310250E-015
  -2.2800000000000001E-002    -1.2758397758577479E-015
  -2.2749999999999999E-002    -9.4671621453063823E-016
  -2.2700000000000001E-002    -3.4313617828208931E-016
  -2.2650000000000000E-002     4.3735103924794745E-016
  -2.2599999999999999E-002     1.2378880315149384E-015
  -2.2550000000000001E-002     1.8710185217413147E-015
  -2.2499999999999999E-002     2.1601885309712148E-015
  -2.2450000000000001E-002     1.9853206274567929E-015
  -2.2400000000000000E-002     1.3211339107132954E-015
  -2.2349999999999998E-002     2.5705264689313879E-016
  -2.2300000000000000E-002    -1.0091370101737902E-015
  -2.2249999999999999E-002    -2.2057421002099575E-015
  -2.2200000000000001E-002    -3.0443222140178801E-015
  -2.2150000000000000E-002    -3.2875160775607286E-015
  -2.2100000000000002E-002    -2.8114518208237956E-015
  -2.2050000000000000E-002    -1.6465663720828499E-015
  -2.1999999999999999E-002     1.5101668280782067E-017
  -2.1950000000000001E-002     1.8504209233258348E-015
  -2.1899999999999999E-002     3.4685545888907920E-015
  -2.1850000000000001E-002     4.4939919432885062E-015
  -2.1800000000000000E-002     4.6508058130652164E-015
  -2.1749999999999999E-002     3.8290387730531022E-015
  -2.1700000000000001E-002     2.1180714467552974E-015
  -2.1649999999999999E-002    -2.0072626065694156E-016
  -2.1600000000000001E-002    -2.7008873523463564E-015
  -2.1550000000000000E-002    -4.8880019387941742E-015
  -2.1499999999999998E-002    -6.2923639102086975E-015
  -2.1450000000000000E-002    -6.5602798088309754E-015
  -2.1399999999999999E-002    -5.5283608736579760E-015
  -2.1350000000000001E-002    -3.2684929624973292E-015
  -2.1299999999999999E-002    -9.5583294858831828E-017
  -2.1250000000000002E-002     3.4653018993084595E-015
  -2.1200000000000000E-002     6.7513017136899446E-015
  -2.1149999999999999E-002     9.0677415549887854E-015
  -2.1100000000000001E-002     9.8162245586986800E-015
  -2.1049999999999999E-002     8.6269440783576561E-015
  -2.1000000000000001E-002     5.4712703256058067E-015
  -2.0950000000000000E-002     7.2713376377009146E-016
  -2.0899999999999998E-002    -4.8284551438856674E-015
  -2.0850000000000000E-002    -1.0116144031968038E-014
  -2.0799999999999999E-002    -1.3939367512938738E-014
  -2.0750000000000001E-002    -1.5234258436754726E-014
  -2.0700000000000000E-002    -1.3337700222738247E-014
  -2.0649999999999998E-002    -8.2106019793595863E-015
  -2.0600000000000000E-002    -5.5098008222047159E-016
  -2.0549999999999999E-002     8.2531211270616959E-015
  -2.0500000000000001E-002     1.6347855300780321E-014
  -2.0449999999999999E-002     2.1787601987885044E-014
  -2.0400000000000001E-002     2.2986754589351746E-014
  -2.0350000000000000E-002     1.9145214931685001E-014
  -2.0299999999999999E-002     1.0535652194121756E-014
  -2.0250000000000001E-002    -1.4374415591904185E-015
  -2.0199999999999999E-002    -1.4447404719657178E-014
  -2.0150000000000001E-002    -2.5698311286277586E-014
  -2.0100000000000000E-002    -3.2530184760907082E-014
  -2.0049999999999998E-002    -3.3039197788867377E-014
  -2.0000000000000000E-002    -2.6562531733276530E-014
  -1.9949999999999999E-002    -1.3903806319631673E-014
  -1.9900000000000001E-002     2.7651708575677326E-015
  -1.9850000000000000E-002     2.0312248932527852E-014
  -1.9799999999999998E-002     3.5272954741868722E-014
  -1.9750000000000000E-002     4.4557031507920273E-014
  -1.9699999999999999E-002     4.6076602976160286E-014
  -1.9650000000000001E-002     3.9163585388462283E-014
  -1.9599999999999999E-002     2.4699045824709887E-014
  -1.9550000000000001E-002     4.9459158896952872E-015
  -1.9500000000000000E-002    -1.6861316417990818E-014
  -1.9449999999999999E-002    -3.7075881383030827E-014
  -1.9400000000000001E-002    -5.2240946517244793E-014
  -1.9349999999999999E-002    -5.9641611586287085E-014
  -1.9300000000000001E-002    -5.7739348379145035E-014
  -1.9250000000000000E-002    -4.6446978040251718E-014
  -1.9199999999999998E-002    -2.7217965757190986E-014
  -1.9150000000000000E-002    -2.9289181698791376E-015
  -1.9099999999999999E-002     2.2462801675741761E-014
  -1.9050000000000001E-002     4.4490679908157846E-014
  -1.9000000000000000E-002     5.8948489247672642E-014
  -1.8949999999999998E-002     6.2767839344188543E-014
  -1.8900000000000000E-002     5.4846033553981410E-014
  -1.8849999999999999E-002     3.6614003498895768E-014
  -1.8800000000000001E-002     1.2127140243888445E-014
  -1.8749999999999999E-002    -1.2476294202780103E-014
  -1.8700000000000001E-002    -3.0171172548312025E-014
  -1.8650000000000000E-002    -3.4735434840120898E-014
  -1.8599999999999998E-002    -2.2589257728198596E-014
  -1.8550000000000001E-002     5.6865712512036718E-015
  -1.8499999999999999E-002     4.4635250465053859E-014
  -1.8450000000000001E-002     8.4364766864148345E-014
  -1.8400000000000000E-002     1.1224056048204158E-013
  -1.8349999999999998E-002     1.1559655593407649E-013
  -1.8300000000000000E-002     8.4918473390654166E-014
  -1.8249999999999999E-002     1.6753323150401537E-014
  -1.8200000000000001E-002    -8.4416418688678078E-014
  -1.8149999999999999E-002    -2.0590205436353993E-013
  -1.8100000000000002E-002    -3.2834552266468894E-013
  -1.8050000000000000E-002    -4.2882686593364501E-013
  -1.7999999999999999E-002    -4.8490876821359427E-013
  -1.7950000000000001E-002    -4.7874720139927916E-013
  -1.7899999999999999E-002    -4.0039126727137063E-013
  -1.7850000000000001E-002    -2.4961908940745787E-013
  -1.7800000000000000E-002    -3.6043071548779482E-014
  -1.7749999999999998E-002     2.2235127366222649E-013
  -1.7700000000000000E-002     5.0172751417432938E-013
  -1.7649999999999999E-002     7.7531695999008081E-013
  -1.7600000000000001E-002     1.0161287542656883E-012
  -1.7550000000000000E-002     1.1990771867399339E-012
  -1.7499999999999998E-002     1.3024572853060368E-012
  -1.7450000000000000E-002     1.3089543369678523E-012
  -1.7399999999999999E-002     1.2064831077933671E-012
  -1.7350000000000001E-002     9.8908868098256219E-013
  -1.7299999999999999E-002     6.5794486892015617E-013
  -1.7250000000000001E-002     2.2226216296683449E-013
  -1.7200000000000000E-002    -3.0021802841940650E-013
  -1.7149999999999999E-002    -8.8343099988008241E-013
  -1.7100000000000001E-002    -1.4939754971882341E-012
  -1.7049999999999999E-002    -2.0926548225272117E-012
  -1.7000000000000001E-002    -2.6360935270545199E-012
  -1.6950000000000000E-002    -3.0778954980760723E-012
  -1.6899999999999998E-002    -3.3690379361154947E-012
  -1.6850000000000000E-002    -3.4576822679974936E-012
  -1.6799999999999999E-002    -3.2891776139668438E-012
  -1.6750000000000001E-002    -2.8075072616505595E-012
  -1.6700000000000000E-002    -1.9595317140246486E-012
  -1.6649999999999998E-002    -7.0297896324201383E-013
  -1.6600000000000000E-002     9.8177868622909589E-013
  -1.6549999999999999E-002     3.0773303556530258E-012
  -1.6500000000000001E-002     5.5145559174016041E-012
  -1.6449999999999999E-002     8.1607254430887100E-012
  -1.6400000000000001E-002     1.0813428213114407E-011
  -1.6350000000000000E-002     1.3202513538012333E-011
  -1.6299999999999999E-002     1.5000705378015129E-011
  -1.6250000000000001E-002     1.5841736947425882E-011
  -1.6199999999999999E-002     1.5343243646090498E-011
  -1.6150000000000001E-002     1.3130788506863586E-011
  -1.6100000000000000E-002     8.8594133642643884E-012
  -1.6049999999999998E-002     2.2301216608966432E-012
  -1.6000000000000000E-002    -6.9997227148425152E-012
  -1.5949999999999999E-002    -1.9011475856481184E-011
  -1.5900000000000001E-002    -3.3923951217061328E-011
  -1.5850000000000000E-002    -5.1793633770827389E-011
  -1.5799999999999998E-002    -7.2614804388448335E-011
  -1.5750000000000000E-002    -9.6318982835040099E-011
  -1.5699999999999999E-002    -1.2277468710921411E-010
  -1.5650000000000001E-002    -1.5178900248645409E-010
  -1.5599999999999999E-002    -1.8311298607582496E-010
  -1.5550000000000001E-002    -2.1645181362292846E-010
  -1.5500000000000000E-002    -2.5147944057350198E-010
  -1.5449999999999998E-002    -2.8785609980683128E-010
  -1.5400000000000000E-002    -3.2524616986253767E-010
  -1.5349999999999999E-002    -3.6333385515829190E-010
  -1.5300000000000001E-002    -4.0183512003434537E-010
  -1.5250000000000000E-002    -4.4050570674751692E-010
  -1.5199999999999998E-002    -4.7914620367323052E-010
  -1.5150000000000000E-002    -5.1760686334554988E-010
  -1.5099999999999999E-002    -5.5579289553626323E-010
  -1.5050000000000001E-002    -5.9367160892492247E-010
  -1.4999999999999999E-002    -6.3127852335556997E-010
  -1.4949999999999998E-002    -6.6872105330791312E-010
  -1.4900000000000000E-002    -7.0617448026530738E-010
  -1.4849999999999999E-002    -7.4386801049741727E-010
  -1.4800000000000001E-002    -7.8206078949645224E-010
  -1.4749999999999999E-002    -8.2101035627417068E-010
  -1.4700000000000001E-002    -8.6093890134443752E-010
  -1.4650000000000000E-002    -9.0200537268039639E-010
  -1.4599999999999998E-002    -9.4428933806932531E-010
  -1.4550000000000000E-002    -9.8779133604278980E-010
  -1.4499999999999999E-002    -1.0324495094373149E-009
  -1.4450000000000001E-002    -1.0781692498788137E-009
  -1.4400000000000000E-002    -1.1248569319208517E-009
  -1.4349999999999998E-002    -1.1724498001157672E-009
  -1.4300000000000000E-002    -1.2209359306390148E-009
  -1.4249999999999999E-002    -1.2703588665626951E-009
  -1.4200000000000001E-002    -1.3208089340700691E-009
  -1.4149999999999999E-002    -1.3724051172525134E-009
  -1.4099999999999998E-002    -1.4252736809583754E-009
  -1.4050000000000000E-002    -1.4795310968666519E-009
  -1.3999999999999999E-002    -1.5352733081816807E-009
  -1.3950000000000001E-002    -1.5925736097752498E-009
  -1.3899999999999999E-002    -1.6514862174212931E-009
  -1.3850000000000001E-002    -1.7120518717975379E-009
  -1.3800000000000000E-002    -1.7743020023972569E-009
  -1.3749999999999998E-002    -1.8382598240481775E-009
  -1.3700000000000000E-002    -1.9039374379071699E-009
  -1.3649999999999999E-002    -1.9713353221871451E-009
  -1.3600000000000001E-002    -2.0404439397097459E-009
  -1.3550000000000000E-002    -2.1112502313476080E-009
  -1.3499999999999998E-002    -2.1837502088982524E-009
  -1.3450000000000000E-002    -2.2579639709531028E-009
  -1.3399999999999999E-002    -2.3339471270056513E-009
  -1.3350000000000001E-002    -2.4117957835893556E-009
  -1.3299999999999999E-002    -2.4916406214763645E-009
  -1.3249999999999998E-002    -2.5736325274962106E-009
  -1.3200000000000000E-002    -2.6579238143859524E-009
  -1.3149999999999998E-002    -2.7446500218453238E-009
  -1.3100000000000001E-002    -2.8339196108701715E-009
  -1.3049999999999999E-002    -2.9258152785421175E-009
  -1.3000000000000001E-002    -3.0204049613294312E-009
  -1.2950000000000000E-002    -3.1177595424890301E-009
  -1.2899999999999998E-002    -3.2179700096989439E-009
  -1.2850000000000000E-002    -3.3211552445722620E-009
  -1.2799999999999999E-002    -3.4274578089300254E-009