  -4.0000000000000001E-002     0.0000000000000000     
  -3.9949999999999999E-002     0.0000000000000000     
  -3.9899999999999998E-002     0.0000000000000000     
  -3.9850000000000003E-002     0.0000000000000000     
  -3.9800000000000002E-002     0.0000000000000000     
  -3.9750000000000001E-002     0.0000000000000000     
  -3.9699999999999999E-002     0.0000000000000000     
  -3.9649999999999998E-002     0.0000000000000000     
  -3.9600000000000003E-002     0.0000000000000000     
  -3.9550000000000002E-002     0.0000000000000000     
  -3.9500000000000000E-002     0.0000000000000000     
  -3.9449999999999999E-002     0.0000000000000000     
  -3.9399999999999998E-002     0.0000000000000000     
  -3.9350000000000003E-002     3.8518263422752375E-036
  -3.9300000000000002E-002     8.8351533720660817E-035
  -3.9250000000000000E-002     9.6177542885807606E-034
  -3.9199999999999999E-002     6.6130215948729737E-033
  -3.9150000000000004E-002     3.1887062632484574E-032
  -3.9100000000000003E-002     1.1133519587750160E-031
  -3.9050000000000001E-002     2.6915794814390255E-031
  -3.9000000000000000E-002     3.1888974649972017E-031
  -3.8949999999999999E-002    -7.3710159069422783E-031
  -3.8900000000000004E-002    -5.7812128596884532E-030
  -3.8850000000000003E-002    -2.0239375501802764E-029
  -3.8800000000000001E-002    -4.9197340566506105E-029
  -3.8750000000000000E-002    -8.5031726690236484E-029
  -3.8699999999999998E-002    -7.9637193233237428E-029
  -3.8650000000000004E-002     9.5168947621334580E-029
  -3.8600000000000002E-002     6.6930671555618401E-028
  -3.8550000000000001E-002     1.9049715619398176E-027
  -3.8500000000000000E-002     3.8194166185355744E-027
  -3.8449999999999998E-002     5.5877494246000596E-027
  -3.8400000000000004E-002     4.6533690603845795E-027
  -3.8350000000000002E-002    -4.0361207918797558E-027
  -3.8300000000000001E-002    -2.7544574560784950E-026
  -3.8249999999999999E-002    -7.1258716665489886E-026
  -3.8199999999999998E-002    -1.2983157594821048E-025
  -3.8150000000000003E-002    -1.7251106087425143E-025
  -3.8100000000000002E-002    -1.2837801657895760E-025
  -3.8050000000000000E-002     1.1322980296994036E-025
  -3.7999999999999999E-002     6.6253744675613908E-025
  -3.7949999999999998E-002     1.5270229904718404E-024
  -3.7900000000000003E-002     2.4530384454179615E-024
  -3.7850000000000002E-002     2.7792443424295207E-024
  -3.7800000000000000E-002     1.4468325431436425E-024
  -3.7749999999999999E-002    -2.6516874926964523E-024
  -3.7699999999999997E-002    -9.8868576214648309E-024
  -3.7650000000000003E-002    -1.8827981256657995E-023
  -3.7600000000000001E-002    -2.5435640572265212E-023
  -3.7550000000000000E-002    -2.3336864792236338E-023
  -3.7499999999999999E-002    -5.8986217636721303E-024
  -3.7449999999999997E-002     2.9926518020366910E-023
  -3.7400000000000003E-002     7.9265827431681695E-023
  -3.7350000000000001E-002     1.2694096353673006E-022
  -3.7300000000000000E-002     1.4957726192275088E-022
  -3.7249999999999998E-002     1.2312189152369868E-022
  -3.7200000000000004E-002     3.3606420930559141E-023
  -3.7150000000000002E-002    -1.1392241039670018E-022
  -3.7100000000000001E-002    -2.9379298982978488E-022
  -3.7050000000000000E-002    -4.6734337295307437E-022
  -3.6999999999999998E-002    -5.9527643404865089E-022
  -3.6950000000000004E-002    -6.4500223646762590E-022
  -3.6900000000000002E-002    -5.8448840019310233E-022
  -3.6850000000000001E-002    -3.6426105380530013E-022
  -3.6799999999999999E-002     9.5795079127726069E-023
  -3.6749999999999998E-002     8.8871549301626250E-022
  -3.6700000000000003E-002     2.0532635858639193E-021
  -3.6650000000000002E-002     3.4670803989380171E-021
  -3.6600000000000001E-002     4.7485021285189975E-021
  -3.6549999999999999E-002     5.2407268606985398E-021
  -3.6499999999999998E-002     4.1406944004052632E-021
  -3.6450000000000003E-002     7.8043012888679192E-022
  -3.6400000000000002E-002    -5.0088231618005557E-021
  -3.6350000000000000E-002    -1.2579211808017643E-020
  -3.6299999999999999E-002    -2.0331197401076802E-020
  -3.6249999999999998E-002    -2.5843583381892264E-020
  -3.6200000000000003E-002    -2.6273678992051915E-020
  -3.6150000000000002E-002    -1.8979947329101321E-020
  -3.6100000000000000E-002    -2.3143709611428200E-021
  -3.6049999999999999E-002     2.3461758820915881E-020
  -3.6000000000000004E-002     5.5245213716582214E-020
  -3.5950000000000003E-002     8.6426499180380832E-020
  -3.5900000000000001E-002     1.0701804114515421E-019
  -3.5850000000000000E-002     1.0520660539945157E-019
  -3.5799999999999998E-002     7.0695524047672867E-020
  -3.5750000000000004E-002    -5.4797930138409577E-022
  -3.5700000000000003E-002    -1.0157035923188612E-019
  -3.5650000000000001E-002    -2.1198788031272176E-019
  -3.5600000000000000E-002    -3.0004435587611837E-019
  -3.5549999999999998E-002    -3.3013465896447905E-019
  -3.5500000000000004E-002    -2.7450548905348184E-019
  -3.5450000000000002E-002    -1.2549827655731554E-019
  -3.5400000000000001E-002     9.6522427997586504E-020
  -3.5349999999999999E-002     3.4361725464893248E-019
  -3.5299999999999998E-002     5.5038039092247619E-019
  -3.5250000000000004E-002     6.5132101197660366E-019
  -3.5200000000000002E-002     6.0026379650828399E-019
  -3.5150000000000001E-002     3.8582364711506213E-019
  -3.5099999999999999E-002     3.8724792930288754E-020
  -3.5049999999999998E-002    -3.7026522738860628E-019
  -3.5000000000000003E-002    -7.4057362824510847E-019
  -3.4950000000000002E-002    -9.5848734948920239E-019
  -3.4900000000000000E-002    -9.1973170638193335E-019
  -3.4849999999999999E-002    -5.5860312448427551E-019
  -3.4799999999999998E-002     1.1714507490987057E-019
  -3.4750000000000003E-002     9.9191508564205256E-019
  -3.4700000000000002E-002     1.8228204334893071E-018
  -3.4650000000000000E-002     2.2561805881899783E-018
  -3.4599999999999999E-002     1.8997614816640958E-018
  -3.4549999999999997E-002     4.5680790741430534E-019
  -3.4500000000000003E-002    -2.0986654825664206E-018
  -3.4450000000000001E-002    -5.3585169881253375E-018
  -3.4400000000000000E-002    -8.4076765423170276E-018
  -3.4349999999999999E-002    -9.9224338638786481E-018
  -3.4299999999999997E-002    -8.4861938255103775E-018
  -3.4250000000000003E-002    -3.0975945712819968E-018
  -3.4200000000000001E-002     6.2474721212648615E-018
  -3.4150000000000000E-002     1.8101593452845832E-017
  -3.4099999999999998E-002     2.9473473698376355E-017
  -3.4049999999999997E-002     3.6279397749640006E-017
  -3.4000000000000002E-002     3.4373872879776311E-017
  -3.3950000000000001E-002     2.0981596272271787E-017
  -3.3900000000000000E-002    -3.8616758119807882E-018
  -3.3849999999999998E-002    -3.6381123376375020E-017
  -3.3799999999999997E-002    -6.9136766075920970E-017
  -3.3750000000000002E-002    -9.2361688568868492E-017
  -3.3700000000000001E-002    -9.6443229531092122E-017
  -3.3649999999999999E-002    -7.4993706285358321E-017
  -3.3599999999999998E-002    -2.7625623130041873E-017
  -3.3550000000000003E-002     3.8542007944484283E-017
  -3.3500000000000002E-002     1.0938905455543523E-016
  -3.3450000000000001E-002     1.6653185696393083E-016
  -3.3399999999999999E-002     1.9183593728666338E-016
  -3.3349999999999998E-002     1.7262309744264438E-016
  -3.3300000000000003E-002     1.0613428306463506E-016
  -3.3250000000000002E-002     1.8608786475547602E-018
  -3.3200000000000000E-002    -1.1916857088682203E-016
  -3.3149999999999999E-002    -2.2828364234300639E-016
  -3.3099999999999997E-002    -2.9553452980397207E-016
  -3.3050000000000003E-002    -2.9712630415679080E-016
  -3.3000000000000002E-002    -2.2220483958716972E-016
  -3.2950000000000000E-002    -7.7371377061502901E-017
  -3.2899999999999999E-002     1.1224873270505062E-016
  -3.2850000000000004E-002     3.0591477436124040E-016
  -3.2800000000000003E-002     4.5401298925781344E-016
  -3.2750000000000001E-002     5.0787885810208812E-016
  -3.2700000000000000E-002     4.3140068854651485E-016
  -3.2649999999999998E-002     2.1257815815953163E-016
  -3.2600000000000004E-002    -1.2731860585086648E-016
  -3.2550000000000003E-002    -5.2974208685318023E-016
  -3.2500000000000001E-002    -9.0274654539527232E-016
  -3.2450000000000000E-002    -1.1346693693562689E-015
  -3.2399999999999998E-002    -1.1176438260310247E-015
  -3.2350000000000004E-002    -7.7807584008977294E-016
  -3.2300000000000002E-002    -1.0788422988735827E-016
  -3.2250000000000001E-002     8.1240717602103671E-016
  -3.2199999999999999E-002     1.8084391338086019E-015
  -3.2149999999999998E-002     2.6321814486013045E-015
  -3.2100000000000004E-002     3.0095595141367736E-015
  -3.2050000000000002E-002     2.7096454836540122E-015
  -3.2000000000000001E-002     1.6210473388279462E-015
  -3.1949999999999999E-002    -1.8514757801970581E-016
  -3.1899999999999998E-002    -2.4278960188747568E-015
  -3.1850000000000003E-002    -4.6410175273452254E-015
  -3.1800000000000002E-002    -6.2554998393504164E-015
  -3.1750000000000000E-002    -6.7286517854551340E-015
  -3.1699999999999999E-002    -5.6935877334390879E-015
  -3.1649999999999998E-002    -3.0914006577404069E-015
  -3.1600000000000003E-002     7.5370346081633118E-016
  -3.1550000000000002E-002     5.1469885816745102E-015
  -3.1500000000000000E-002     9.1349383653441686E-015
  -3.1449999999999999E-002     1.1702288963453549E-014
  -3.1399999999999997E-002     1.2015499690028563E-014
  -3.1350000000000003E-002     9.6561809198780733E-015
  -3.1300000000000001E-002     4.7834377218861561E-015
  -3.1250000000000000E-002    -1.8248958593582625E-015
  -3.1199999999999999E-002    -8.8770348021438712E-015
  -3.1150000000000001E-002    -1.4809115319186227E-014
  -3.1100000000000003E-002    -1.8120654260670581E-014
  -3.1050000000000001E-002    -1.7733374278493158E-014
  -3.1000000000000000E-002    -1.3291308932755651E-014
  -3.0949999999999998E-002    -5.3267204772683433E-015
  -3.0900000000000000E-002     4.7591288295266116E-015
  -3.0850000000000002E-002     1.4913752500281427E-014
  -3.0800000000000001E-002     2.2820302675064836E-014
  -3.0750000000000000E-002     2.6384891524733696E-014
  -3.0699999999999998E-002     2.4228745139869147E-014
  -3.0650000000000000E-002     1.6080531069497698E-014
  -3.0600000000000002E-002     2.9756776554101508E-015
  -3.0550000000000001E-002    -1.2799757301797905E-014
  -3.0499999999999999E-002    -2.8037984168008714E-014
  -3.0449999999999998E-002    -3.9176207878816745E-014
  -3.0400000000000000E-002    -4.3015460337681250E-014
  -3.0350000000000002E-002    -3.7465523319752886E-014
  -3.0300000000000001E-002    -2.2167921604859008E-014
  -3.0249999999999999E-002     1.1485541558779006E-015
  -3.0200000000000001E-002     2.8695192127489390E-014
  -3.0150000000000000E-002     5.5091771081781158E-014
  -3.0100000000000002E-002     7.4255102129294834E-014
  -3.0050000000000000E-002     8.0596141957882785E-014
  -2.9999999999999999E-002     7.0327440699701115E-014
  -2.9950000000000001E-002     4.2619058178009333E-014
  -2.9899999999999999E-002     3.2022890253720256E-016
  -2.9850000000000002E-002    -4.9998433223875885E-014
  -2.9800000000000000E-002    -9.8825074464594755E-014
  -2.9749999999999999E-002    -1.3529258138453638E-013
  -2.9700000000000001E-002    -1.4936261052292931E-013
  -2.9650000000000003E-002    -1.3421588508722049E-013
  -2.9600000000000001E-002    -8.8330038938386341E-014
  -2.9550000000000000E-002    -1.6700267570260054E-014
  -2.9499999999999998E-002     6.9236061805210962E-014
  -2.9450000000000000E-002     1.5317321057108426E-013
  -2.9400000000000003E-002     2.1688021262622204E-013
  -2.9350000000000001E-002     2.4402697535548177E-013
  -2.9300000000000000E-002     2.2411464831668665E-013
  -2.9249999999999998E-002     1.5559060939312229E-013
  -2.9200000000000000E-002     4.7301536920721175E-014
  -2.9150000000000002E-002    -8.2264287405234855E-014
  -2.9100000000000001E-002    -2.0802179618193259E-013
  -2.9049999999999999E-002    -3.0315098860520785E-013
  -2.8999999999999998E-002    -3.4482139833225968E-013
  -2.8950000000000000E-002    -3.1953438784152150E-013
  -2.8900000000000002E-002    -2.2683043533539224E-013
  -2.8850000000000001E-002    -8.0407253098178565E-014
  -2.8799999999999999E-002     9.3760853136714202E-014
  -2.8749999999999998E-002     2.6204807784200334E-013
  -2.8700000000000000E-002     3.8966833841443852E-013
  -2.8650000000000002E-002     4.4772445460439473E-013
  -2.8600000000000000E-002     4.1937086948140594E-013
  -2.8549999999999999E-002     3.0382613599076951E-013
  -2.8500000000000001E-002     1.1741383800271528E-013
  -2.8450000000000000E-002    -1.0860307044809044E-013
  -2.8400000000000002E-002    -3.3303459237302607E-013
  -2.8350000000000000E-002    -5.1177878492488494E-013
  -2.8299999999999999E-002    -6.0569159118702735E-013
  -2.8250000000000001E-002    -5.8805510410356670E-013
  -2.8200000000000003E-002    -4.5044774826768031E-013
  -2.8150000000000001E-002    -2.0600216212179607E-013
  -2.8100000000000000E-002     1.1068053141824845E-013
  -2.8049999999999999E-002     4.4732246780210814E-013
  -2.8000000000000001E-002     7.4135150775566837E-013
  -2.7950000000000003E-002     9.3017496807676657E-013
  -2.7900000000000001E-002     9.6299878448384094E-013
  -2.7850000000000000E-002     8.1224697278429128E-013
  -2.7799999999999998E-002     4.8225520600933797E-013
  -2.7750000000000000E-002     1.2948981242337551E-014
  -2.7700000000000002E-002    -5.2319420168412753E-013
  -2.7650000000000001E-002    -1.0314369591074534E-012
  -2.7600000000000000E-002    -1.4112891441747619E-012
  -2.7549999999999998E-002    -1.5765295657660985E-012
  -2.7500000000000000E-002    -1.4747351587554603E-012
  -2.7450000000000002E-002    -1.1017931039187710E-012
  -2.7400000000000001E-002    -5.0743120522163121E-013
  -2.7349999999999999E-002     2.1055085973597421E-013
  -2.7299999999999998E-002     9.2319668088760063E-013
  -2.7250000000000000E-002     1.4955925684572449E-012
  -2.7200000000000002E-002     1.8152108918944786E-012
  -2.7150000000000001E-002     1.8170710246136843E-012
  -2.7099999999999999E-002     1.4996887550361184E-012
  -2.7049999999999998E-002     9.2759351308247480E-013
  -2.7000000000000000E-002     2.1914982880320826E-013
  -2.6950000000000002E-002    -4.7819275193193361E-013
  -2.6900000000000000E-002    -1.0200972007902447E-012
  -2.6849999999999999E-002    -1.2979978543646071E-012
  -2.6800000000000001E-002    -1.2649793163289443E-012
  -2.6749999999999999E-002    -9.4903146032902458E-013
  -2.6700000000000002E-002    -4.5051690726759696E-013
  -2.6650000000000000E-002     7.5993339499710212E-014
  -2.6599999999999999E-002     4.5220363413867657E-013
  -2.6550000000000001E-002     5.1325441438931544E-013
  -2.6500000000000003E-002     1.4484119282282555E-013
  -2.6450000000000001E-002    -6.8616181656030188E-013
  -2.6400000000000000E-002    -1.9126463355420452E-012
  -2.6349999999999998E-002    -3.3628028871473971E-012
  -2.6300000000000000E-002    -4.7710050515975477E-012
  -2.6250000000000002E-002    -5.8027188021048881E-012
  -2.6200000000000001E-002    -6.0904450438600598E-012
  -2.6150000000000000E-002    -5.2764424368732058E-012
  -2.6099999999999998E-002    -3.0571195457834338E-012
  -2.6050000000000000E-002     7.7656411926563102E-013
  -2.6000000000000002E-002     6.3084411308639637E-012
  -2.5950000000000001E-002     1.3481566743597971E-011
  -2.5899999999999999E-002     2.2101730053904605E-011
  -2.5849999999999998E-002     3.1861724957655572E-011
  -2.5800000000000000E-002     4.2384652926437352E-011
  -2.5750000000000002E-002     5.3280803765246719E-011
  -2.5700000000000001E-002     6.4208806880117922E-011
  -2.5649999999999999E-002     7.4929552245399898E-011
  -2.5599999999999998E-002     8.5341084709556982E-011
  -2.5550000000000000E-002     9.5485580545996634E-011
  -2.5500000000000002E-002     1.0552468892838433E-010
  -2.5450000000000000E-002     1.1568679283735827E-010
  -2.5399999999999999E-002     1.2619678498655153E-010
  -2.5349999999999998E-002     1.3720437494462933E-010
  -2.5300000000000000E-002     1.4872861084342124E-010
  -2.5250000000000002E-002     1.6063329056699722E-010
  -2.5200000000000000E-002     1.7264142965853661E-010
  -2.5149999999999999E-002     1.8438701180740545E-010
  -2.5100000000000001E-002     1.9549303271995333E-010
  -2.5049999999999999E-002     2.0565737569570680E-010
  -2.5000000000000001E-002     2.1472595384092026E-010
  -2.4950000000000000E-002     2.2273531916150613E-010
  -2.4899999999999999E-002     2.2991435438011064E-010
  -2.4850000000000001E-002     2.3664479477251952E-010
  -2.4800000000000003E-002     2.4339042171591497E-010
  -2.4750000000000001E-002     2.5061091167016689E-010
  -2.4700000000000000E-002     2.5867952681163337E-010
  -2.4649999999999998E-002     2.6782055885471227E-010
  -2.4600000000000000E-002     2.7807727975380754E-010
  -2.4550000000000002E-002     2.8931314712022418E-010
  -2.4500000000000001E-002     3.0124260632484169E-010
  -2.4450000000000000E-002     3.1348382564093259E-010
  -2.4399999999999998E-002     3.2562338244339487E-010
  -2.4350000000000000E-002     3.3728373066647024E-010
  -2.4299999999999999E-002     3.4818596668153983E-010
  -2.4250000000000001E-002     3.5820086485247770E-010
  -2.4199999999999999E-002     3.6738222873303241E-010
  -2.4150000000000001E-002     3.7597663392941413E-010
  -2.4100000000000000E-002     3.8440438116440023E-010
  -2.4049999999999998E-002     3.9320947745480164E-010
  -2.4000000000000000E-002     4.0298077034670097E-010
  -2.3949999999999999E-002     4.1425395885220548E-010
  -2.3900000000000001E-002     4.2741017547318725E-010
  -2.3850000000000000E-002     4.4259193482813664E-010
  -2.3800000000000002E-002     4.5965673838633978E-010
  -2.3750000000000000E-002     4.7818348925143715E-010
  -2.3699999999999999E-002     4.9753603696648039E-010
  -2.3650000000000001E-002     5.1697542482313896E-010
  -2.3599999999999999E-002     5.3579939356022467E-010
  -2.3550000000000001E-002     5.5348130149529619E-010
  -2.3500000000000000E-002     5.6977710448609005E-010
  -2.3449999999999999E-002     5.8477725777188481E-010
  -2.3400000000000001E-002     5.9889080911499861E-010
  -2.3349999999999999E-002     6.1276525365932190E-010
  -2.3300000000000001E-002     6.2715992058661766E-010
  -2.3250000000000000E-002     6.4279956287409963E-010
  -2.3199999999999998E-002     6.6024018553364883E-010
  -2.3150000000000000E-002     6.7977404486484401E-010
  -2.3099999999999999E-002     7.0139267947611978E-010
  -2.3050000000000001E-002     7.2481293858296637E-010
  -2.3000000000000000E-002     7.4955751464242640E-010
  -2.2950000000000002E-002     7.7507070607161582E-010
  -2.2900000000000000E-002     8.0084433883347474E-010
  -2.2849999999999999E-002     8.2652715554445698E-010
  -2.2800000000000001E-002     8.5199592817150032E-010
  -2.2749999999999999E-002     8.7737585031135993E-010
  -2.2700000000000001E-002     9.0300859940796650E-010
  -2.2650000000000000E-002     9.2937563149683638E-010
  -2.2599999999999999E-002     9.5699611818761066E-010
  -2.2550000000000001E-002     9.8631735955782273E-010
  -2.2499999999999999E-002     1.0176223013286539E-009
  -2.2450000000000001E-002     1.0509693503121645E-009
  -2.2400000000000000E-002     1.0861735157713313E-009
  -2.2349999999999998E-002     1.1228356478625728E-009
  -2.2300000000000000E-002     1.1604101235566891E-009
  -2.2249999999999999E-002     1.1983049230834964E-009
  -2.2200000000000001E-002     1.2359944578423362E-009
  -2.2150000000000000E-002     1.2731298782906925E-009
  -2.2100000000000002E-002     1.3096270596091273E-009
  -2.2050000000000000E-002     1.3457157173732203E-009
  -2.1999999999999999E-002     1.3819365015772060E-009
  -2.1950000000000001E-002     1.4190794779821220E-009
  -2.1899999999999999E-002     1.4580670416858302E-009
  -2.1850000000000001E-002     1.4997977178959494E-009
  -2.1800000000000000E-002     1.5449750623941263E-009
  -2.1749999999999999E-002     1.5939581144546615E-009
  -2.1700000000000001E-002     1.6466660759922309E-009
  -2.1649999999999999E-002     1.7025659475852400E-009
  -2.1600000000000001E-002     1.7607532091406154E-009
  -2.1550000000000000E-002     1.8201143885238719E-009
  -2.1499999999999998E-002     1.8795432400849071E-009
  -2.1450000000000000E-002     1.9381665352768806E-009
  -2.1399999999999999E-002     1.9955340302714207E-009
  -2.1350000000000001E-002     2.0517282604340647E-009
  -2.1299999999999999E-002     2.1073766569514182E-009
  -2.1250000000000002E-002     2.1635614377503890E-009
  -2.1200000000000000E-002     2.2216489404534285E-009
  -2.1149999999999999E-002     2.2830725852409394E-009
  -2.1100000000000001E-002     2.3491108809211861E-009
  -2.1049999999999999E-002     2.4206920445749873E-009
  -2.1000000000000001E-002     2.4982582756841539E-009
  -2.0950000000000000E-002     2.5817001156604877E-009
  -2.0899999999999998E-002     2.6703734422471248E-009
  -2.0850000000000000E-002     2.7631937739927866E-009
  -2.0799999999999999E-002     2.8587962480644310E-009
  -2.0750000000000001E-002     2.9557451100566054E-009
  -2.0700000000000000E-002     3.0527635757333349E-009
  -2.0649999999999998E-002     3.1489469254899008E-009
  -2.0600000000000000E-002     3.2439215743040295E-009
  -2.0549999999999999E-002     3.3379099976129058E-009
  -2.0500000000000001E-002     3.4316816194942523E-009
  -2.0449999999999999E-002     3.5263940984471466E-009
  -2.0400000000000001E-002     3.6233520044514337E-009
  -2.0350000000000000E-002     3.7237380430081806E-009
  -2.0299999999999999E-002     3.8283868103245918E-009
  -2.0250000000000001E-002     3.9376485274262939E-009
  -2.0199999999999999E-002     4.0513805895568844E-009
  -2.0150000000000001E-002     4.1690629563242269E-009
  -2.0100000000000000E-002     4.2899996114919191E-009
  -2.0049999999999998E-002     4.4135511248549864E-009
  -2.0000000000000000E-002     4.5393339174884575E-009
  -1.9949999999999999E-002     4.6673399399589097E-009
  -1.9900000000000001E-002     4.7979602557694068E-009
  -1.9850000000000000E-002     4.9319201713895358E-009
  -1.9799999999999998E-002     5.0701663587672271E-009
  -1.9750000000000000E-002     5.2137325535282656E-009
  -1.9699999999999999E-002     5.3636218395673983E-009
  -1.9650000000000001E-002     5.5207141127691525E-009
  -1.9599999999999999E-002     5.6856955447841168E-009
  -1.9550000000000001E-002     5.8590007808526134E-009
  -1.9500000000000000E-002     6.0407611686692068E-009
  -1.9449999999999999E-002     6.2307684394575197E-009
  -1.9400000000000001E-002     6.4284710736965873E-009
  -1.9349999999999999E-002     6.6330314983366993E-009
  -1.9300000000000001E-002     6.8434495607937150E-009
  -1.9250000000000000E-002     7.0587448837702022E-009
  -1.9199999999999998E-002     7.2781513759550799E-009
  -1.9150000000000000E-002     7.5012800117262286E-009
  -1.9099999999999999E-002     7.7281852932123719E-009
  -1.9050000000000001E-002     7.9593024698552645E-009
  -1.9000000000000000E-002     8.1952613052159235E-009
  -1.8949999999999998E-002     8.4366194194420258E-009
  -1.8900000000000000E-002     8.6835939871976891E-009
  -1.8849999999999999E-002     8.9358836065063718E-009
  -1.8800000000000001E-002     9.1926182474668999E-009
  -1.8749999999999999E-002     9.4524933215331336E-009
  -1.8700000000000001E-002     9.7140375855675551E-009
  -1.8650000000000000E-002     9.9759456362134861E-009
  -1.8599999999999998E-002     1.0237422153446437E-008
  -1.8550000000000001E-002     1.0498429636922210E-008
  -1.8499999999999999E-002     1.0759796810829223E-008
  -1.8450000000000001E-002     1.1023189144615387E-008
  -1.8400000000000000E-002     1.1290937434039920E-008
  -1.8349999999999998E-002     1.1565801176010695E-008
  -1.8300000000000000E-002     1.1850694797526565E-008
  -1.8249999999999999E-002     1.2148416453526673E-008
  -1.8200000000000001E-002     1.2461418904404711E-008
  -1.8149999999999999E-002     1.2791633788130146E-008
  -1.8100000000000002E-002     1.3140366567514564E-008
  -1.8050000000000000E-002     1.3508266003974914E-008
  -1.7999999999999999E-002     1.3895381519201036E-008
  -1.7950000000000001E-002     1.4301293292524950E-008
  -1.7899999999999999E-002     1.4725312897415378E-008
  -1.7850000000000001E-002     1.5166722344394560E-008
  -1.7800000000000000E-002     1.5624973738165673E-008
  -1.7749999999999998E-002     1.6099855446059027E-008
  -1.7700000000000000E-002     1.6591532271314255E-008
  -1.7649999999999999E-002     1.7100483082225819E-008
  -1.7600000000000001E-002     1.7627304402552538E-008
  -1.7550000000000000E-002     1.8172453619697524E-008
  -1.7499999999999998E-002     1.8735990612966533E-008
  -1.7450000000000000E-002     1.9317336627793429E-008
  -1.7399999999999999E-002     1.9915144573295840E-008
  -1.7350000000000001E-002     2.0527268362096905E-008
  -1.7299999999999999E-002     2.1150866047037783E-008
  -1.7250000000000001E-002     2.1782583987826625E-008
  -1.7200000000000000E-002     2.2418838685036154E-008
  -1.7149999999999999E-002     2.3056151930249358E-008
  -1.7100000000000001E-002     2.3691503929303095E-008
  -1.7049999999999999E-002     2.4322661183260442E-008
  -1.7000000000000001E-002     2.4948444186388437E-008
  -1.6950000000000000E-002     2.5568918275960815E-008
  -1.6899999999999998E-002     2.6185442899605405E-008
  -1.6850000000000000E-002     2.6800604579650205E-008
  -1.6799999999999999E-002     2.7418011169134091E-008
  -1.6750000000000001E-002     2.8042001220012101E-008
  -1.6700000000000000E-002     2.8677339550642221E-008
  -1.6649999999999998E-002     2.9328928016708156E-008
  -1.6600000000000000E-002     3.0001609967136281E-008
  -1.6549999999999999E-002     3.0700107360309553E-008
  -1.6500000000000001E-002     3.1429025269219120E-008
  -1.6449999999999999E-002     3.2192940066144654E-008
  -1.6400000000000001E-002     3.2996496084829118E-008
  -1.6350000000000000E-002     3.3844456108237114E-008
  -1.6299999999999999E-002     3.4741678410354023E-008
  -1.6250000000000001E-002     3.5693020594741279E-008
  -1.6199999999999999E-002     3.6703177409046757E-008
  -1.6150000000000001E-002     3.7776499991885194E-008
  -1.6100000000000000E-002     3.8916795877188062E-008
  -1.6049999999999998E-002     4.0127168181936734E-008
  -1.6000000000000000E-002     4.1409913213311007E-008
  -1.5949999999999999E-002     4.2766399776908035E-008
  -1.5900000000000001E-002     4.4197020755645611E-008
  -1.5850000000000000E-002     4.5701131294612901E-008
  -1.5799999999999998E-002     4.7277056952500565E-008
  -1.5750000000000000E-002     4.8922121356846638E-008
  -1.5699999999999999E-002     5.0632783085231798E-008
  -1.5650000000000001E-002     5.2404796880245148E-008
  -1.5599999999999999E-002     5.4233356913535464E-008
  -1.5550000000000001E-002     5.6113200198012049E-008
  -1.5500000000000000E-002     5.8038681158698507E-008
  -1.5449999999999998E-002     6.0003774037071045E-008
  -1.5400000000000000E-002     6.2002110010162136E-008
  -1.5349999999999999E-002     6.4026983161881045E-008
  -1.5300000000000001E-002     6.6071450648282186E-008
  -1.5250000000000000E-002     6.8128505896941722E-008
  -1.5199999999999998E-002     7.0191420577597654E-008
  -1.5150000000000000E-002     7.2254063651279500E-008
  -1.5099999999999999E-002     7.4311362495056028E-008
  -1.5050000000000001E-002     7.6359604790742337E-008
  -1.4999999999999999E-002     7.8396677442790460E-008
  -1.4949999999999998E-002     8.0422120419009678E-008
  -1.4900000000000000E-002     8.2437051939429312E-008
  -1.4849999999999999E-002     8.4443909982427034E-008
  -1.4800000000000001E-002     8.6446191495816992E-008
  -1.4749999999999999E-002     8.8448144997064629E-008
  -1.4700000000000001E-002     9.0454484946816028E-008
  -1.4650000000000000E-002     9.2470136691618704E-008
  -1.4599999999999998E-002     9.4500001036279913E-008
  -1.4550000000000000E-002     9.6548717511255752E-008
  -1.4499999999999999E-002     9.8620541157950941E-008
  -1.4450000000000001E-002     1.0071929718989235E-007
  -1.4400000000000000E-002     1.0284839036275047E-007
  -1.4349999999999998E-002     1.0501099037273590E-007
  -1.4300000000000000E-002     1.0721023096750565E-007
  -1.4249999999999999E-002     1.0944953672285270E-007
  -1.4200000000000001E-002     1.1173286086248175E-007
  -1.4149999999999999E-002     1.1406486152454361E-007
  -1.4099999999999998E-002     1.1645083097564948E-007
  -1.4050000000000000E-002     1.1889642979813858E-007
  -1.3999999999999999E-002     1.2140740247446651E-007
  -1.3950000000000001E-002     1.2398899752945248E-007
  -1.3899999999999999E-002     1.2664568724995350E-007
  -1.3850000000000001E-002     1.2938071568485577E-007
  -1.3800000000000000E-002     1.3219596751757455E-007
  -1.3749999999999998E-002     1.3509204337742618E-007
  -1.3700000000000000E-002     1.3806834165211037E-007
  -1.3649999999999999E-002     1.4112346723773159E-007
  -1.3600000000000001E-002     1.4425574588757578E-007
  -1.3550000000000000E-002     1.4746359162453830E-007
  -1.3499999999999998E-002     1.5074589589031536E-007
  -1.3450000000000000E-002     1.5410231964378478E-007
  -1.3399999999999999E-002     1.5753347623643455E-007
  -1.3350000000000001E-002     1.6104105233823801E-007
  -1.3299999999999999E-002     1.6462781143487721E-007
  -1.3249999999999998E-002     1.6829730784570868E-007
  -1.3200000000000000E-002     1.7205366282097727E-007
  -1.3149999999999998E-002     1.7590119046621864E-007
  -1.3100000000000001E-002     1.7984417097817788E-007
  -1.3049999999999999E-002     1.8388651752494222E-007
  -1.3000000000000001E-002     1.8803165531281694E-007
  -1.2950000000000000E-002     1.9228230448975923E-007
  -1.2899999999999998E-002     1.9664042116573331E-007
  -1.2850000000000000E-002     2.0110724878255717E-007
  -1.2799999999999999E-002     2.0568319768181317E-007