  -4.0000000000000001E-002     0.0000000000000000     
  -3.9949999999999999E-002     0.0000000000000000     
  -3.9899999999999998E-002     0.0000000000000000     
  -3.9850000000000003E-002     0.0000000000000000     
  -3.9800000000000002E-002     0.0000000000000000     
  -3.9750000000000001E-002     0.0000000000000000     
  -3.9699999999999999E-002     0.0000000000000000     
  -3.9649999999999998E-002     0.0000000000000000     
  -3.9600000000000003E-002     0.0000000000000000     
  -3.9550000000000002E-002     0.0000000000000000     
  -3.9500000000000000E-002     0.0000000000000000     
  -3.9449999999999999E-002     0.0000000000000000     
  -3.9399999999999998E-002     0.0000000000000000     
  -3.9350000000000003E-002     0.0000000000000000     
  -3.9300000000000002E-002     0.0000000000000000     
  -3.9250000000000000E-002     0.0000000000000000     
  -3.9199999999999999E-002     0.0000000000000000     
  -3.9150000000000004E-002     0.0000000000000000     
  -3.9100000000000003E-002     0.0000000000000000     
  -3.9050000000000001E-002     0.0000000000000000     
  -3.9000000000000000E-002     0.0000000000000000     
  -3.8949999999999999E-002     0.0000000000000000     
  -3.8900000000000004E-002     0.0000000000000000     
  -3.8850000000000003E-002     0.0000000000000000     
  -3.8800000000000001E-002     0.0000000000000000     
  -3.8750000000000000E-002     0.0000000000000000     
  -3.8699999999999998E-002     0.0000000000000000     
  -3.8650000000000004E-002     0.0000000000000000     
  -3.8600000000000002E-002     0.0000000000000000     
  -3.8550000000000001E-002     0.0000000000000000     
  -3.8500000000000000E-002     0.0000000000000000     
  -3.8449999999999998E-002     0.0000000000000000     
  -3.8400000000000004E-002     0.0000000000000000     
  -3.8350000000000002E-002     0.0000000000000000     
  -3.8300000000000001E-002     0.0000000000000000     
  -3.8249999999999999E-002     0.0000000000000000     
  -3.8199999999999998E-002     0.0000000000000000     
  -3.8150000000000003E-002     0.0000000000000000     
  -3.8100000000000002E-002     0.0000000000000000     
  -3.8050000000000000E-002     0.0000000000000000     
  -3.7999999999999999E-002     0.0000000000000000     
  -3.7949999999999998E-002     0.0000000000000000     
  -3.7900000000000003E-002     0.0000000000000000     
  -3.7850000000000002E-002     0.0000000000000000     
  -3.7800000000000000E-002     0.0000000000000000     
  -3.7749999999999999E-002     0.0000000000000000     
  -3.7699999999999997E-002     0.0000000000000000     
  -3.7650000000000003E-002     0.0000000000000000     
  -3.7600000000000001E-002     0.0000000000000000     
  -3.7550000000000000E-002     0.0000000000000000     
  -3.7499999999999999E-002     0.0000000000000000     
  -3.7449999999999997E-002     0.0000000000000000     
  -3.7400000000000003E-002     0.0000000000000000     
  -3.7350000000000001E-002     0.0000000000000000     
  -3.7300000000000000E-002     0.0000000000000000     
  -3.7249999999999998E-002     0.0000000000000000     
  -3.7200000000000004E-002     0.0000000000000000     
  -3.7150000000000002E-002     0.0000000000000000     
  -3.7100000000000001E-002     0.0000000000000000     
  -3.7050000000000000E-002     0.0000000000000000     
  -3.6999999999999998E-002     0.0000000000000000     
  -3.6950000000000004E-002     0.0000000000000000     
  -3.6900000000000002E-002     0.0000000000000000     
  -3.6850000000000001E-002     0.0000000000000000     
  -3.6799999999999999E-002     0.0000000000000000     
  -3.6749999999999998E-002     0.0000000000000000     
  -3.6700000000000003E-002     0.0000000000000000     
  -3.6650000000000002E-002     0.0000000000000000     
  -3.6600000000000001E-002     0.0000000000000000     
  -3.6549999999999999E-002     0.0000000000000000     
  -3.6499999999999998E-002     0.0000000000000000     
  -3.6450000000000003E-002     0.0000000000000000     
  -3.6400000000000002E-002     0.0000000000000000     
  -3.6350000000000000E-002     0.0000000000000000     
  -3.6299999999999999E-002     0.0000000000000000     
  -3.6249999999999998E-002     0.0000000000000000     
  -3.6200000000000003E-002     0.0000000000000000     
  -3.6150000000000002E-002     0.0000000000000000     
  -3.6100000000000000E-002     0.0000000000000000     
  -3.6049999999999999E-002     0.0000000000000000     
  -3.6000000000000004E-002     0.0000000000000000     
  -3.5950000000000003E-002     0.0000000000000000     
  -3.5900000000000001E-002     0.0000000000000000     
  -3.5850000000000000E-002     0.0000000000000000     
  -3.5799999999999998E-002     0.0000000000000000     
  -3.5750000000000004E-002     0.0000000000000000     
  -3.5700000000000003E-002     0.0000000000000000     
  -3.5650000000000001E-002     0.0000000000000000     
  -3.5600000000000000E-002     0.0000000000000000     
  -3.5549999999999998E-002     0.0000000000000000     
  -3.5500000000000004E-002     0.0000000000000000     
  -3.5450000000000002E-002     0.0000000000000000     
  -3.5400000000000001E-002     0.0000000000000000     
  -3.5349999999999999E-002     0.0000000000000000     
  -3.5299999999999998E-002     0.0000000000000000     
  -3.5250000000000004E-002     0.0000000000000000     
  -3.5200000000000002E-002     0.0000000000000000     
  -3.5150000000000001E-002     0.0000000000000000     
  -3.5099999999999999E-002     0.0000000000000000     
  -3.5049999999999998E-002     0.0000000000000000     
  -3.5000000000000003E-002     0.0000000000000000     
  -3.4950000000000002E-002     0.0000000000000000     
  -3.4900000000000000E-002     0.0000000000000000     
  -3.4849999999999999E-002     0.0000000000000000     
  -3.4799999999999998E-002     0.0000000000000000     
  -3.4750000000000003E-002     0.0000000000000000     
  -3.4700000000000002E-002     0.0000000000000000     
  -3.4650000000000000E-002     0.0000000000000000     
  -3.4599999999999999E-002     0.0000000000000000     
  -3.4549999999999997E-002     0.0000000000000000     
  -3.4500000000000003E-002     0.0000000000000000     
  -3.4450000000000001E-002     0.0000000000000000     
  -3.4400000000000000E-002     0.0000000000000000     
  -3.4349999999999999E-002     0.0000000000000000     
  -3.4299999999999997E-002     0.0000000000000000     
  -3.4250000000000003E-002     0.0000000000000000     
  -3.4200000000000001E-002     0.0000000000000000     
  -3.4150000000000000E-002     0.0000000000000000     
  -3.4099999999999998E-002     0.0000000000000000     
  -3.4049999999999997E-002     0.0000000000000000     
  -3.4000000000000002E-002     0.0000000000000000     
  -3.3950000000000001E-002     0.0000000000000000     
  -3.3900000000000000E-002     0.0000000000000000     
  -3.3849999999999998E-002     0.0000000000000000     
  -3.3799999999999997E-002     0.0000000000000000     
  -3.3750000000000002E-002     0.0000000000000000     
  -3.3700000000000001E-002     0.0000000000000000     
  -3.3649999999999999E-002     0.0000000000000000     
  -3.3599999999999998E-002     0.0000000000000000     
  -3.3550000000000003E-002     0.0000000000000000     
  -3.3500000000000002E-002     0.0000000000000000     
  -3.3450000000000001E-002     0.0000000000000000     
  -3.3399999999999999E-002     0.0000000000000000     
  -3.3349999999999998E-002     0.0000000000000000     
  -3.3300000000000003E-002     0.0000000000000000     
  -3.3250000000000002E-002     0.0000000000000000     
  -3.3200000000000000E-002     0.0000000000000000     
  -3.3149999999999999E-002     0.0000000000000000     
  -3.3099999999999997E-002     0.0000000000000000     
  -3.3050000000000003E-002    -1.1683100363229072E-040
  -3.3000000000000002E-002    -2.8476925802890198E-040
  -3.2950000000000000E-002    -5.0179958530417996E-040
  -3.2899999999999999E-002    -7.1173888053696863E-040
  -3.2850000000000004E-002    -4.3430727566223532E-040
  -3.2800000000000003E-002     1.0206480379847319E-039
  -3.2750000000000001E-002     3.4099316148030096E-039
  -3.2700000000000000E-002     5.8430995400133910E-039
  -3.2649999999999998E-002     7.0908296490607794E-039
  -3.2600000000000004E-002     5.5019921573297984E-039
  -3.2550000000000003E-002    -2.8396323587394257E-039
  -3.2500000000000001E-002    -4.2783978712007160E-038
  -3.2450000000000000E-002    -1.0285335100002875E-037
  -3.2399999999999998E-002    -1.5584587189838770E-037
  -3.2350000000000004E-002    -1.1547960751500342E-037
  -3.2300000000000002E-002     6.9401769174757573E-038
  -3.2250000000000001E-002     3.5644935318222210E-037
  -3.2199999999999999E-002     6.4264223138675559E-037
  -3.2149999999999998E-002     7.8217881503526797E-037
  -3.2100000000000004E-002     6.3006734320082341E-037
  -3.2050000000000002E-002     7.7297343335539440E-038
  -3.2000000000000001E-002    -8.7120639804242943E-037
  -3.1949999999999999E-002    -2.0366265159767806E-036
  -3.1899999999999998E-002    -3.0217622513860020E-036
  -3.1850000000000003E-002    -3.2553841333988615E-036
  -3.1800000000000002E-002    -2.1573645683710631E-036
  -3.1750000000000000E-002     5.4293419011451407E-037
  -3.1699999999999999E-002     4.4867787184850778E-036
  -3.1649999999999998E-002     8.5511795835932550E-036
  -3.1600000000000003E-002     1.1058500331854368E-035
  -3.1550000000000002E-002     1.0338955715249813E-035
  -3.1500000000000000E-002     5.4562958234216361E-036
  -3.1449999999999999E-002    -3.2371942904771582E-036
  -3.1399999999999997E-002    -1.4028709522912474E-035
  -3.1350000000000003E-002    -2.4348037391164884E-035
  -3.1300000000000001E-002    -3.1582042564865451E-035
  -3.1250000000000000E-002    -3.3647948254501654E-035
  -3.1199999999999999E-002    -2.8799963654150240E-035
  -3.1150000000000001E-002    -1.4662079110315369E-035
  -3.1100000000000003E-002     1.2607921390390266E-035
  -3.1050000000000001E-002     5.7318716047473781E-035
  -3.1000000000000000E-002     1.1981454716780561E-034
  -3.0949999999999998E-002     1.8872946833358494E-034
  -3.0900000000000000E-002     2.3329531390269739E-034
  -3.0850000000000002E-002     2.0251535434295716E-034
  -3.0800000000000001E-002     3.9101116564461466E-035
  -3.0750000000000000E-002    -2.8796581434556710E-034
  -3.0699999999999998E-002    -7.3859135811514479E-034
  -3.0650000000000000E-002    -1.1645968692861964E-033
  -3.0600000000000002E-002    -1.3112741681354946E-033
  -3.0550000000000001E-002    -8.8592994836687699E-034
  -3.0499999999999999E-002     3.0024803248015609E-034
  -3.0449999999999998E-002     2.1516879852738818E-033
  -3.0400000000000000E-002     4.1501532834317983E-033
  -3.0350000000000002E-002     5.3655439255723357E-033
  -3.0300000000000001E-002     4.7007220724482544E-033
  -3.0249999999999999E-002     1.3710258364593296E-033
  -3.0200000000000001E-002    -4.5124661058452101E-033
  -3.0150000000000000E-002    -1.1514590116051928E-032
  -3.0100000000000002E-002    -1.6909828033748383E-032
  -3.0050000000000000E-002    -1.7387509083760047E-032
  -2.9999999999999999E-002    -1.0378995135292234E-032
  -2.9950000000000001E-002     4.3921155536753026E-033
  -2.9899999999999999E-002     2.3821553076191070E-032
  -2.9850000000000002E-002     4.1519696054455517E-032
  -2.9800000000000000E-002     4.9479677265618536E-032
  -2.9749999999999999E-002     4.1044412440636288E-032
  -2.9700000000000001E-002     1.4150002285389453E-032
  -2.9650000000000003E-002    -2.6624085062015977E-032
  -2.9600000000000001E-002    -7.0458264525335865E-032
  -2.9550000000000000E-002    -1.0344622132286970E-031
  -2.9499999999999998E-002    -1.1340033983526484E-031
  -2.9450000000000000E-002    -9.4090077303078529E-032
  -2.9400000000000003E-002    -4.6643395699018655E-032
  -2.9350000000000001E-002     2.2731706463669799E-032
  -2.9300000000000000E-002     1.0706152113701411E-031
  -2.9249999999999998E-002     2.0109911285848503E-031
  -2.9200000000000000E-002     2.9797167343271833E-031
  -2.9150000000000002E-002     3.7905583557933337E-031
  -2.9100000000000001E-002     4.0203925214160316E-031
  -2.9049999999999999E-002     2.9806747042307808E-031
  -2.8999999999999998E-002    -9.4909327600052320E-033
  -2.8950000000000000E-002    -5.5875812097230786E-031
  -2.8900000000000002E-002    -1.2852287636623432E-030
  -2.8850000000000001E-002    -1.9692428519881289E-030
  -2.8799999999999999E-002    -2.2380408752541626E-030
  -2.8749999999999998E-002    -1.6604733871862659E-030
  -2.8700000000000000E-002     5.8815478090386540E-032
  -2.8650000000000002E-002     2.8327964766135010E-030
  -2.8600000000000000E-002     5.9976521245721000E-030
  -2.8549999999999999E-002     8.3054970026778368E-030
  -2.8500000000000001E-002     8.2113787236559637E-030
  -2.8450000000000000E-002     4.4622293252033370E-030
  -2.8400000000000002E-002    -3.1565428004866610E-030
  -2.8350000000000000E-002    -1.3209531818887207E-029
  -2.8299999999999999E-002    -2.2493685842663234E-029
  -2.8250000000000001E-002    -2.6688192722457488E-029
  -2.8200000000000003E-002    -2.1790320754594176E-029
  -2.8150000000000001E-002    -5.9908210753753629E-030
  -2.8100000000000000E-002     1.8693446654752319E-029
  -2.8049999999999999E-002     4.5845142998715920E-029
  -2.8000000000000001E-002     6.5743006583959782E-029
  -2.7950000000000003E-002     6.8191412186692337E-029
  -2.7900000000000001E-002     4.6401227336008401E-029
  -2.7850000000000000E-002     5.9749161635759218E-031
  -2.7799999999999998E-002    -6.0185483284377125E-029
  -2.7750000000000000E-002    -1.1924196378511272E-028
  -2.7700000000000002E-002    -1.5638662652735808E-028
  -2.7650000000000001E-002    -1.5409001179812714E-028
  -2.7600000000000000E-002    -1.0352296020323847E-028
  -2.7549999999999998E-002    -8.3484096906977109E-030
  -2.7500000000000000E-002     1.1506090411172093E-028
  -2.7450000000000002E-002     2.4081343979168040E-028
  -2.7400000000000001E-002     3.3854044115873269E-028
  -2.7349999999999999E-002     3.7826836368920855E-028
  -2.7299999999999998E-002     3.3400757510884520E-028
  -2.7250000000000000E-002     1.8685644668391458E-028
  -2.7200000000000002E-002    -6.9864663693919678E-029
  -2.7150000000000001E-002    -4.2099786633742529E-028
  -2.7099999999999999E-002    -8.1588523195443347E-028
  -2.7049999999999998E-002    -1.1563642074417471E-027
  -2.7000000000000000E-002    -1.2974028870683741E-027
  -2.6950000000000002E-002    -1.0728779418583281E-027
  -2.6900000000000000E-002    -3.5324623756029036E-028
  -2.6849999999999999E-002     8.7213085072125002E-028
  -2.6800000000000001E-002     2.4141066803440344E-027
  -2.6749999999999999E-002     3.8461498214025933E-027
  -2.6700000000000002E-002     4.5541821915008567E-027
  -2.6650000000000000E-002     3.8987879872898147E-027
  -2.6599999999999999E-002     1.4732652951298105E-027
  -2.6550000000000001E-002    -2.6123765021701444E-027
  -2.6500000000000003E-002    -7.5359069821575103E-027
  -2.6450000000000001E-002    -1.1780968120322687E-026
  -2.6400000000000000E-002    -1.3451928419824906E-026
  -2.6349999999999998E-002    -1.0872851467387055E-026
  -2.6300000000000000E-002    -3.3314905793719847E-027
  -2.6250000000000002E-002     8.2825815733508942E-027
  -2.6200000000000001E-002     2.1239991742646480E-026
  -2.6150000000000000E-002     3.1362281708038397E-026
  -2.6099999999999998E-002     3.4089618267718570E-026
  -2.6050000000000000E-002     2.6021211438973959E-026
  -2.6000000000000002E-002     6.4838486160239726E-027
  -2.5950000000000001E-002    -2.1443678392034257E-026
  -2.5899999999999999E-002    -5.0959285579321269E-026
  -2.5849999999999998E-002    -7.2858237073322242E-026
  -2.5800000000000000E-002    -7.7970899608719968E-026
  -2.5750000000000002E-002    -6.0119507473071415E-026
  -2.5700000000000001E-002    -1.8720557670172661E-026
  -2.5649999999999999E-002     3.9847241417686673E-026
  -2.5599999999999998E-002     1.0269883789051449E-025
  -2.5550000000000000E-002     1.5281037804462655E-025
  -2.5500000000000002E-002     1.7284494181532490E-025
  -2.5450000000000000E-002     1.4958955529995882E-025
  -2.5399999999999999E-002     7.8029223981845374E-026
  -2.5349999999999998E-002    -3.5785897696750385E-026
  -2.5300000000000000E-002    -1.7366121735688409E-025
  -2.5250000000000002E-002    -3.0632590210394093E-025
  -2.5200000000000000E-002    -3.9692485432521362E-025
  -2.5149999999999999E-002    -4.0719616421207518E-025
  -2.5100000000000001E-002    -3.0640814460002264E-025
  -2.5049999999999999E-002    -8.2466155092204504E-026
  -2.5000000000000001E-002     2.4667835492182563E-025
  -2.4950000000000000E-002     6.2483743529240650E-025
  -2.4899999999999999E-002     9.5745029402112556E-025
  -2.4850000000000001E-002     1.1242810559721388E-024
  -2.4800000000000003E-002     1.0073684700982680E-024
  -2.4750000000000001E-002     5.3172388508373970E-025
  -2.4700000000000000E-002    -2.9030675477851578E-025
  -2.4649999999999998E-002    -1.3261607408060074E-024
  -2.4600000000000000E-002    -2.3193432827580527E-024
  -2.4550000000000002E-002    -2.9288903503853546E-024
  -2.4500000000000001E-002    -2.8150014392821740E-024
  -2.4450000000000000E-002    -1.7571568820690723E-024
  -2.4399999999999998E-002     2.2663106900733318E-025
  -2.4350000000000000E-002     2.8025966823101264E-024
  -2.4299999999999999E-002     5.3284361413822615E-024
  -2.4250000000000001E-002     6.9701887427370762E-024
  -2.4199999999999999E-002     6.9219996520654475E-024
  -2.4150000000000001E-002     4.6828790654240141E-024
  -2.4100000000000000E-002     3.1124181908712781E-025
  -2.4049999999999998E-002    -5.4357721032417292E-024
  -2.4000000000000000E-002    -1.1155444152707415E-023
  -2.3949999999999999E-002    -1.5075752674906920E-023
  -2.3900000000000001E-002    -1.5517877371720123E-023
  -2.3850000000000000E-002    -1.1438604041895202E-023
  -2.3800000000000002E-002    -2.8988024304605556E-024
  -2.3750000000000000E-002     8.7020512883432086E-024
  -2.3699999999999999E-002     2.0741440841793892E-023
  -2.3650000000000001E-002     2.9869084051766466E-023
  -2.3599999999999999E-002     3.2804707961932734E-023
  -2.3550000000000001E-002     2.7264448076053536E-023
  -2.3500000000000000E-002     1.2784758758886102E-023
  -2.3449999999999999E-002    -8.7870953357656856E-024
  -2.3400000000000001E-002    -3.3308179122004250E-023
  -2.3349999999999999E-002    -5.4930947464413051E-023
  -2.3300000000000001E-002    -6.7219540706385789E-023
  -2.3250000000000000E-002    -6.4625671634205874E-023
  -2.3199999999999998E-002    -4.4066341784767133E-023
  -2.3150000000000000E-002    -6.2845136633951292E-024
  -2.3099999999999999E-002     4.3352133018104680E-023
  -2.3050000000000001E-002     9.4942057028751445E-023
  -2.3000000000000000E-002     1.3527798816865946E-022
  -2.2950000000000002E-002     1.5029228073457508E-022
  -2.2900000000000000E-002     1.2852697170640712E-022
  -2.2849999999999999E-002     6.5076093665960011E-023
  -2.2800000000000001E-002    -3.4928160213721324E-023
  -2.2749999999999999E-002    -1.5447698360248786E-022
  -2.2700000000000001E-002    -2.6567438679194692E-022
  -2.2650000000000000E-002    -3.3431386196157289E-022
  -2.2599999999999999E-002    -3.2793406488220346E-022
  -2.2550000000000001E-002    -2.2605819649822628E-022
  -2.2499999999999999E-002    -3.0120806976285566E-023
  -2.2450000000000001E-002     2.3019459572590600E-022
  -2.2400000000000000E-002     4.9740297556118900E-022
  -2.2349999999999998E-002     6.9543797374713795E-022
  -2.2300000000000000E-002     7.4735729138533286E-022
  -2.2249999999999999E-002     5.9837153893660898E-022
  -2.2200000000000001E-002     2.3839738401539608E-022
  -2.2150000000000000E-002    -2.8309802174947637E-022
  -2.2100000000000002E-002    -8.5660462097987820E-022
  -2.2050000000000000E-002    -1.3301580651195462E-021
  -2.1999999999999999E-002    -1.5439248595878720E-021
  -2.1950000000000001E-002    -1.3751448586446193E-021
  -2.1899999999999999E-002    -7.8216318527154540E-022
  -2.1850000000000001E-002     1.6575353542070028E-022
  -2.1800000000000000E-002     1.2844450076305910E-021
  -2.1749999999999999E-002     2.3028504066347362E-021
  -2.1700000000000001E-002     2.9208505558483442E-021
  -2.1649999999999999E-002     2.8859512411281114E-021
  -2.1600000000000001E-002     2.0708161223331296E-021
  -2.1550000000000000E-002     5.3078726582561775E-022
  -2.1499999999999998E-002    -1.4769711812767650E-021
  -2.1450000000000000E-002    -3.5234509531886901E-021
  -2.1399999999999999E-002    -5.0865181211458078E-021
  -2.1350000000000001E-002    -5.6659570164840129E-021
  -2.1299999999999999E-002    -4.9123219642190259E-021
  -2.1250000000000002E-002    -2.7412086763805406E-021
  -2.1200000000000000E-002     5.9572213817524603E-022
  -2.1149999999999999E-002     4.5061705185497175E-021
  -2.1100000000000001E-002     8.1317080513244526E-021
  -2.1049999999999999E-002     1.0499679232039731E-020
  -2.1000000000000001E-002     1.0734329179536715E-020
  -2.0950000000000000E-002     8.2924125498332179E-021
  -2.0899999999999998E-002     3.1745864912499911E-021
  -2.0850000000000000E-002    -3.9437740270534651E-021
  -2.0799999999999999E-002    -1.1715990990055015E-020
  -2.0750000000000001E-002    -1.8298421234981933E-020
  -2.0700000000000000E-002    -2.1699814994047000E-020
  -2.0649999999999998E-002    -2.0264239457202417E-020
  -2.0600000000000000E-002    -1.3196216327067993E-020
  -2.0549999999999999E-002    -9.9600664069545163E-022
  -2.0500000000000001E-002     1.4342096357656883E-020
  -2.0449999999999999E-002     2.9491220263213106E-020
  -2.0400000000000001E-002     4.0366428149945793E-020
  -2.0350000000000000E-002     4.3058857388900218E-020
  -2.0299999999999999E-002     3.4954970760839849E-020
  -2.0250000000000001E-002     1.5765444033010328E-020
  -2.0199999999999999E-002    -1.1855038530205389E-020
  -2.0150000000000001E-002    -4.2372438648593573E-020
  -2.0100000000000000E-002    -6.8260363399848940E-020
  -2.0049999999999998E-002    -8.1636935239980757E-020
  -2.0000000000000000E-002    -7.6344686274642071E-020
  -1.9949999999999999E-002    -4.9975575574798105E-020
  -1.9900000000000001E-002    -5.2619557335792942E-021
  -1.9850000000000000E-002     4.9672495670799788E-020
  -1.9799999999999998E-002     1.0247555691601918E-019
  -1.9750000000000000E-002     1.3906859865878679E-019
  -1.9699999999999999E-002     1.4703304971891773E-019
  -1.9650000000000001E-002     1.1911820386927847E-019
  -1.9599999999999999E-002     5.5967078952421991E-020
  -1.9550000000000001E-002    -3.2758490422037514E-020
  -1.9500000000000000E-002    -1.2936247949385979E-019
  -1.9449999999999999E-002    -2.1124567618461670E-019
  -1.9400000000000001E-002    -2.5569257573115368E-019
  -1.9349999999999999E-002    -2.4537064977325618E-019
  -1.9300000000000001E-002    -1.7333014402569546E-019
  -1.9250000000000000E-002    -4.6279205890130393E-020
  -1.9199999999999998E-002     1.1483476373573987E-019
  -1.9150000000000000E-002     2.7742743104628527E-019
  -1.9099999999999999E-002     4.0293261768281407E-019
  -1.9050000000000001E-002     4.5472330592441445E-019
  -1.9000000000000000E-002     4.0693121561266287E-019
  -1.8949999999999998E-002     2.5239334241028608E-019
  -1.8900000000000000E-002     7.8205390632462678E-021
  -1.8849999999999999E-002    -2.8550265368461427E-019
  -1.8800000000000001E-002    -5.6657185780818153E-019
  -1.8749999999999999E-002    -7.6516109834310454E-019
  -1.8700000000000001E-002    -8.1677509185302674E-019
  -1.8650000000000000E-002    -6.7950052441679190E-019
  -1.8599999999999998E-002    -3.4907532610624068E-019
  -1.8550000000000001E-002     1.3201232003801138E-019
  -1.8499999999999999E-002     6.7513326782193355E-019
  -1.8450000000000001E-002     1.1579849500285108E-018
  -1.8400000000000000E-002     1.4484482844590892E-018
  -1.8349999999999998E-002     1.4361806611301100E-018
  -1.8300000000000000E-002     1.0653194055884907E-018
  -1.8249999999999999E-002     3.5982768651493572E-019
  -1.8200000000000001E-002    -5.6685367252108315E-019
  -1.8149999999999999E-002    -1.5236702754384362E-018
  -1.8100000000000002E-002    -2.2764428196640169E-018
  -1.8050000000000000E-002    -2.6001061828402604E-018
  -1.7999999999999999E-002    -2.3380528243853042E-018
  -1.7950000000000001E-002    -1.4540827702522068E-018
  -1.7899999999999999E-002    -6.1981529460850323E-020
  -1.7850000000000001E-002     1.5786860648731215E-018
  -1.7800000000000000E-002     3.1047224098839363E-018
  -1.7749999999999998E-002     4.1241328694870689E-018
  -1.7700000000000000E-002     4.3091314803180334E-018
  -1.7649999999999999E-002     3.4862199430563870E-018
  -1.7600000000000001E-002     1.7004243073118960E-018
  -1.7550000000000000E-002    -7.6537284955643564E-019
  -1.7499999999999998E-002    -3.4259972193480703E-018
  -1.7450000000000000E-002    -5.6821307171302599E-018
  -1.7399999999999999E-002    -6.9459799478302036E-018
  -1.7350000000000001E-002    -6.7792738336624992E-018
  -1.7299999999999999E-002    -5.0133933040146686E-018
  -1.7250000000000001E-002    -1.8228326494909654E-018
  -1.7200000000000000E-002     2.2690991232233985E-018
  -1.7149999999999999E-002     6.4608978439608495E-018
  -1.7100000000000001E-002     9.8132905553036523E-018
  -1.7049999999999999E-002     1.1438082881541234E-017
  -1.7000000000000001E-002     1.0701959757816020E-017
  -1.6950000000000000E-002     7.4046288867087160E-018
  -1.6899999999999998E-002     1.8902041014509187E-018
  -1.6850000000000000E-002    -4.9422409654141714E-018
  -1.6799999999999999E-002    -1.1748217911243297E-017
  -1.6750000000000001E-002    -1.6965175452299478E-017
  -1.6700000000000000E-002    -1.9129561647122340E-017
  -1.6649999999999998E-002    -1.7229672776173077E-017
  -1.6600000000000000E-002    -1.1020519363749491E-017
  -1.6549999999999999E-002    -1.2193922471342022E-018
  -1.6500000000000001E-002     1.0488699785863644E-017
  -1.6449999999999999E-002     2.1675859956075289E-017
  -1.6400000000000001E-002     2.9617994383329735E-017
  -1.6350000000000000E-002     3.1897198510525258E-017
  -1.6299999999999999E-002     2.7040019201943211E-017
  -1.6250000000000001E-002     1.5038193427365697E-017
  -1.6199999999999999E-002    -2.4013024599574505E-018
  -1.6150000000000001E-002    -2.1988629581740926E-017
  -1.6100000000000000E-002    -3.9398397513928648E-017
  -1.6049999999999998E-002    -5.0162109240277028E-017
  -1.6000000000000000E-002    -5.0734768919341114E-017
  -1.5949999999999999E-002    -3.9492823386624954E-017
  -1.5900000000000001E-002    -1.7402516940359418E-017
  -1.5850000000000000E-002     1.1854460704243416E-017
  -1.5799999999999998E-002     4.2400808979682509E-017
  -1.5750000000000000E-002     6.7281386999616212E-017
  -1.5699999999999999E-002     7.9976265878461257E-017
  -1.5650000000000001E-002     7.5986725884467249E-017
  -1.5599999999999999E-002     5.4121824009817068E-017
  -1.5550000000000001E-002     1.7150758778108634E-017
  -1.5500000000000000E-002    -2.8391564926290235E-017
  -1.5449999999999998E-002    -7.3277668753315267E-017
  -1.5400000000000000E-002    -1.0737202552351947E-016
  -1.5349999999999999E-002    -1.2178812650926288E-016
  -1.5300000000000001E-002    -1.1097592168890172E-016
  -1.5250000000000000E-002    -7.4284121073589667E-017
  -1.5199999999999998E-002    -1.6624305064045458E-017
  -1.5150000000000000E-002     5.1976365844447173E-017
  -1.5099999999999999E-002     1.1793953727800304E-016
  -1.5050000000000001E-002     1.6660477615866355E-016
  -1.4999999999999999E-002     1.8519961918491978E-016
  -1.4949999999999998E-002     1.6577269961443537E-016
  -1.4900000000000000E-002     1.0749936623565744E-016
  -1.4849999999999999E-002     1.7814474116330252E-017
  -1.4800000000000001E-002    -8.8024432999381877E-017
  -1.4749999999999999E-002    -1.8909253101199755E-016
  -1.4700000000000001E-002    -2.6249672721824026E-016
  -1.4650000000000000E-002    -2.8808755760515837E-016
  -1.4599999999999998E-002    -2.5333242604153244E-016
  -1.4550000000000000E-002    -1.5729516789957915E-016
  -1.4499999999999999E-002    -1.2658376933885159E-017
  -1.4450000000000001E-002     1.5502876519521916E-016
  -1.4400000000000000E-002     3.1119782998419010E-016
  -1.4349999999999998E-002     4.1883809647362483E-016
  -1.4300000000000000E-002     4.4670167975766384E-016
  -1.4249999999999999E-002     3.7743374306665384E-016
  -1.4200000000000001E-002     2.1364527267408434E-016
  -1.4149999999999999E-002    -1.9871487734191078E-017
  -1.4099999999999998E-002    -2.7890503718253391E-016
  -1.4050000000000000E-002    -5.0760452489663968E-016
  -1.3999999999999999E-002    -6.5006611481045767E-016
  -1.3950000000000001E-002    -6.6339858921720105E-016
  -1.3899999999999999E-002    -5.2927738278147619E-016
  -1.3850000000000001E-002    -2.6101814941123434E-016
  -1.3800000000000000E-002     9.6018333541827209E-017
  -1.3749999999999998E-002     4.7146906098898399E-016
  -1.3700000000000000E-002     7.8350154299628889E-016
  -1.3649999999999999E-002     9.5624191051766668E-016
  -1.3600000000000001E-002     9.3737527417740101E-016
  -1.3550000000000000E-002     7.1190118414861455E-016
  -1.3499999999999998E-002     3.0866669338558546E-016
  -1.3450000000000000E-002    -2.0225173372560346E-016
  -1.3399999999999999E-002    -7.2129796574795874E-016
  -1.3350000000000001E-002    -1.1383142047011454E-015
  -1.3299999999999999E-002    -1.3549529760739776E-015
  -1.3249999999999998E-002    -1.3061761802898227E-015
  -1.3200000000000000E-002    -9.7643294466058277E-016
  -1.3149999999999998E-002    -4.0701063680553416E-016
  -1.3100000000000001E-002     3.0740547699941286E-016
  -1.3049999999999999E-002     1.0330105539466456E-015
  -1.3000000000000001E-002     1.6200979432780955E-015
  -1.2950000000000000E-002     1.9316030108600145E-015
  -1.2899999999999998E-002     1.8721209501685007E-015
  -1.2850000000000000E-002     1.4119584748477596E-015
  -1.2799999999999999E-002     6.0101340522203896E-016