  -4.0000000000000001E-002     0.0000000000000000     
  -3.9949999999999999E-002     0.0000000000000000     
  -3.9899999999999998E-002     0.0000000000000000     
  -3.9850000000000003E-002     0.0000000000000000     
  -3.9800000000000002E-002     0.0000000000000000     
  -3.9750000000000001E-002     0.0000000000000000     
  -3.9699999999999999E-002     0.0000000000000000     
  -3.9649999999999998E-002     0.0000000000000000     
  -3.9600000000000003E-002     0.0000000000000000     
  -3.9550000000000002E-002     0.0000000000000000     
  -3.9500000000000000E-002     0.0000000000000000     
  -3.9449999999999999E-002     0.0000000000000000     
  -3.9399999999999998E-002     0.0000000000000000     
  -3.9350000000000003E-002     0.0000000000000000     
  -3.9300000000000002E-002     0.0000000000000000     
  -3.9250000000000000E-002     0.0000000000000000     
  -3.9199999999999999E-002     0.0000000000000000     
  -3.9150000000000004E-002     0.0000000000000000     
  -3.9100000000000003E-002     0.0000000000000000     
  -3.9050000000000001E-002     0.0000000000000000     
  -3.9000000000000000E-002     0.0000000000000000     
  -3.8949999999999999E-002     0.0000000000000000     
  -3.8900000000000004E-002     0.0000000000000000     
  -3.8850000000000003E-002     0.0000000000000000     
  -3.8800000000000001E-002     0.0000000000000000     
  -3.8750000000000000E-002     0.0000000000000000     
  -3.8699999999999998E-002     0.0000000000000000     
  -3.8650000000000004E-002     0.0000000000000000     
  -3.8600000000000002E-002     0.0000000000000000     
  -3.8550000000000001E-002     0.0000000000000000     
  -3.8500000000000000E-002     0.0000000000000000     
  -3.8449999999999998E-002     0.0000000000000000     
  -3.8400000000000004E-002     0.0000000000000000     
  -3.8350000000000002E-002     0.0000000000000000     
  -3.8300000000000001E-002     0.0000000000000000     
  -3.8249999999999999E-002     0.0000000000000000     
  -3.8199999999999998E-002     0.0000000000000000     
  -3.8150000000000003E-002     0.0000000000000000     
  -3.8100000000000002E-002     0.0000000000000000     
  -3.8050000000000000E-002     0.0000000000000000     
  -3.7999999999999999E-002     0.0000000000000000     
  -3.7949999999999998E-002     0.0000000000000000     
  -3.7900000000000003E-002     0.0000000000000000     
  -3.7850000000000002E-002     0.0000000000000000     
  -3.7800000000000000E-002     0.0000000000000000     
  -3.7749999999999999E-002     0.0000000000000000     
  -3.7699999999999997E-002     0.0000000000000000     
  -3.7650000000000003E-002     0.0000000000000000     
  -3.7600000000000001E-002     0.0000000000000000     
  -3.7550000000000000E-002     0.0000000000000000     
  -3.7499999999999999E-002     0.0000000000000000     
  -3.7449999999999997E-002     0.0000000000000000     
  -3.7400000000000003E-002     0.0000000000000000     
  -3.7350000000000001E-002     0.0000000000000000     
  -3.7300000000000000E-002     0.0000000000000000     
  -3.7249999999999998E-002     0.0000000000000000     
  -3.7200000000000004E-002     0.0000000000000000     
  -3.7150000000000002E-002     0.0000000000000000     
  -3.7100000000000001E-002     0.0000000000000000     
  -3.7050000000000000E-002     0.0000000000000000     
  -3.6999999999999998E-002     0.0000000000000000     
  -3.6950000000000004E-002     0.0000000000000000     
  -3.6900000000000002E-002     0.0000000000000000     
  -3.6850000000000001E-002     0.0000000000000000     
  -3.6799999999999999E-002     0.0000000000000000     
  -3.6749999999999998E-002     0.0000000000000000     
  -3.6700000000000003E-002     0.0000000000000000     
  -3.6650000000000002E-002     0.0000000000000000     
  -3.6600000000000001E-002     0.0000000000000000     
  -3.6549999999999999E-002     0.0000000000000000     
  -3.6499999999999998E-002     0.0000000000000000     
  -3.6450000000000003E-002     0.0000000000000000     
  -3.6400000000000002E-002     0.0000000000000000     
  -3.6350000000000000E-002     0.0000000000000000     
  -3.6299999999999999E-002     0.0000000000000000     
  -3.6249999999999998E-002     0.0000000000000000     
  -3.6200000000000003E-002     0.0000000000000000     
  -3.6150000000000002E-002     0.0000000000000000     
  -3.6100000000000000E-002     0.0000000000000000     
  -3.6049999999999999E-002     0.0000000000000000     
  -3.6000000000000004E-002     0.0000000000000000     
  -3.5950000000000003E-002     0.0000000000000000     
  -3.5900000000000001E-002     0.0000000000000000     
  -3.5850000000000000E-002     0.0000000000000000     
  -3.5799999999999998E-002     0.0000000000000000     
  -3.5750000000000004E-002     0.0000000000000000     
  -3.5700000000000003E-002     0.0000000000000000     
  -3.5650000000000001E-002     0.0000000000000000     
  -3.5600000000000000E-002     0.0000000000000000     
  -3.5549999999999998E-002     0.0000000000000000     
  -3.5500000000000004E-002     0.0000000000000000     
  -3.5450000000000002E-002     0.0000000000000000     
  -3.5400000000000001E-002     0.0000000000000000     
  -3.5349999999999999E-002     0.0000000000000000     
  -3.5299999999999998E-002     0.0000000000000000     
  -3.5250000000000004E-002     0.0000000000000000     
  -3.5200000000000002E-002     0.0000000000000000     
  -3.5150000000000001E-002     0.0000000000000000     
  -3.5099999999999999E-002     0.0000000000000000     
  -3.5049999999999998E-002     0.0000000000000000     
  -3.5000000000000003E-002     3.7563150482103776E-040
  -3.4950000000000002E-002     3.7563150482103776E-040
  -3.4900000000000000E-002     3.7563150482103580E-040
  -3.4849999999999999E-002    -1.1826513850035801E-039
  -3.4799999999999998E-002    -3.0220583276463143E-039
  -3.4750000000000003E-002    -4.2465369980635193E-039
  -3.4700000000000002E-002    -2.9504788820932661E-039
  -3.4650000000000000E-002     3.0382655536850278E-039
  -3.4599999999999999E-002     1.1626941158194342E-038
  -3.4549999999999997E-002     1.8715916893708723E-038
  -3.4500000000000003E-002     1.8558372563846410E-038
  -3.4450000000000001E-002     8.8583652707421532E-039
  -3.4400000000000000E-002    -6.1150335039019928E-039
  -3.4349999999999999E-002    -2.5862970259999043E-038
  -3.4299999999999997E-002    -4.4469611661778948E-038
  -3.4250000000000003E-002    -6.0288240411200505E-038
  -3.4200000000000001E-002    -7.6111764188413338E-038
  -3.4150000000000000E-002    -9.2195326482933700E-038
  -3.4099999999999998E-002    -9.9737123911346023E-038
  -3.4049999999999997E-002    -7.2908575079295083E-038
  -3.4000000000000002E-002     7.2459958504589168E-039
  -3.3950000000000001E-002     1.9546133289147996E-037
  -3.3900000000000000E-002     5.0025242923583171E-037
  -3.3849999999999998E-002     8.8786179968389501E-037
  -3.3799999999999997E-002     1.2223790020964178E-036
  -3.3750000000000002E-002     1.2973510930352731E-036
  -3.3700000000000001E-002     8.4189896897131164E-037
  -3.3649999999999999E-002    -4.0580322690565157E-037
  -3.3599999999999998E-002    -2.5641501665505375E-036
  -3.3550000000000003E-002    -5.4236607746517960E-036
  -3.3500000000000002E-002    -8.2727690104599299E-036
  -3.3450000000000001E-002    -9.8223418347001684E-036
  -3.3399999999999999E-002    -8.3053288689252809E-036
  -3.3349999999999998E-002    -1.9119656381583449E-036
  -3.3300000000000003E-002     1.0444515203299191E-035
  -3.3250000000000002E-002     2.8078277077788123E-035
  -3.3200000000000000E-002     4.7429574984868543E-035
  -3.3149999999999999E-002     6.1348282782534196E-035
  -3.3099999999999997E-002     5.9401570233188323E-035
  -3.3050000000000003E-002     2.9949411402157623E-035
  -3.3000000000000002E-002    -3.5441085164548289E-035
  -3.2950000000000000E-002    -1.3535533402986001E-034
  -3.2899999999999999E-002    -2.5111071798617795E-034
  -3.2850000000000004E-002    -3.4178694120797892E-034
  -3.2800000000000003E-002    -3.4651123541787191E-034
  -3.2750000000000001E-002    -1.9890164981391404E-034
  -3.2700000000000000E-002     1.4415753257617740E-034
  -3.2649999999999998E-002     6.6356728125724734E-034
  -3.2600000000000004E-002     1.2420390113487099E-033
  -3.2550000000000003E-002     1.6525144126976076E-033
  -3.2500000000000001E-002     1.5944778917766916E-033
  -3.2450000000000000E-002     7.9186377083709022E-034
  -3.2399999999999998E-002    -8.5781973076920505E-034
  -3.2350000000000004E-002    -3.1273965760750478E-033
  -3.2300000000000002E-002    -5.3717315692214256E-033
  -3.2250000000000001E-002    -6.5901609424827914E-033
  -3.2199999999999999E-002    -5.6912531551309851E-033
  -3.2149999999999998E-002    -1.9368397046634626E-033
  -3.2100000000000004E-002     4.5571845553906488E-033
  -3.2050000000000002E-002     1.2468819815504866E-032
  -3.2000000000000001E-002     1.9288055151680451E-032
  -3.1949999999999999E-002     2.1840240498151494E-032
  -3.1899999999999998E-002     1.7269413486852367E-032
  -3.1850000000000003E-002     4.2239348842141828E-033
  -3.1800000000000002E-002    -1.6157431719902766E-032
  -3.1750000000000000E-002    -3.9848357299323990E-032
  -3.1699999999999999E-002    -6.0328933515435188E-032
  -3.1649999999999998E-002    -6.9699695412323181E-032
  -3.1600000000000003E-002    -6.0251955095851380E-032
  -3.1550000000000002E-002    -2.6265501429222578E-032
  -3.1500000000000000E-002     3.3941423443470491E-032
  -3.1449999999999999E-002     1.1545489511685451E-031
  -3.1399999999999997E-002     2.0365018766497715E-031
  -3.1350000000000003E-002     2.7142568580585970E-031
  -3.1300000000000001E-002     2.7926148700210678E-031
  -3.1250000000000000E-002     1.8189272895619357E-031
  -3.1199999999999999E-002    -5.5020868136437867E-032
  -3.1150000000000001E-002    -4.2837654837163845E-031
  -3.1100000000000003E-002    -8.6826216573178228E-031
  -3.1050000000000001E-002    -1.2208788293273487E-030
  -3.1000000000000000E-002    -1.2638139100673843E-030
  -3.0949999999999998E-002    -7.6979722722275493E-031
  -3.0900000000000000E-002     3.8155573957032992E-031
  -3.0850000000000002E-002     2.0722835819228495E-030
  -3.0800000000000001E-002     3.8527555062991604E-030
  -3.0750000000000000E-002     4.9596171863109751E-030
  -3.0699999999999998E-002     4.5019736116993288E-030
  -3.0650000000000000E-002     1.8164269924265174E-030
  -3.0600000000000002E-002    -3.0957164557829696E-030
  -3.0550000000000001E-002    -9.2229319027701171E-030
  -3.0499999999999999E-002    -1.4504005387891930E-029
  -3.0449999999999998E-002    -1.6259496039689246E-029
  -3.0400000000000000E-002    -1.2104079918267802E-029
  -3.0350000000000002E-002    -1.1229708137472985E-030
  -3.0300000000000001E-002     1.5118322853368809E-029
  -3.0249999999999999E-002     3.2250891069633335E-029
  -3.0200000000000001E-002     4.3860102305473334E-029
  -3.0150000000000000E-002     4.3363716164788807E-029
  -3.0100000000000002E-002     2.6564125201221716E-029
  -3.0050000000000000E-002    -5.9948303208062825E-030
  -2.9999999999999999E-002    -4.7876052744433501E-029
  -2.9950000000000001E-002    -8.7530550906217951E-029
  -2.9899999999999999E-002    -1.1107663623313534E-028
  -2.9850000000000002E-002    -1.0634227842960727E-028
  -2.9800000000000000E-002    -6.6869927295578249E-029
  -2.9749999999999999E-002     5.4325730886993744E-030
  -2.9700000000000001E-002     9.9711016658927997E-029
  -2.9650000000000003E-002     1.9744568184273961E-028
  -2.9600000000000001E-002     2.7470254884061576E-028
  -2.9550000000000000E-002     3.0456565879535908E-028
  -2.9499999999999998E-002     2.5997919551025947E-028
  -2.9450000000000000E-002     1.1860491262595652E-028
  -2.9400000000000003E-002    -1.2813240073619194E-028
  -2.9350000000000001E-002    -4.6111485193773101E-028
  -2.9300000000000000E-002    -8.1797866344397706E-028
  -2.9249999999999998E-002    -1.0844843440045507E-027
  -2.9200000000000000E-002    -1.1050606479313087E-027
  -2.9150000000000002E-002    -7.2314607193683304E-028
  -2.9100000000000001E-002     1.4769412385033745E-028
  -2.9049999999999999E-002     1.4378903259911895E-027
  -2.8999999999999998E-002     2.8561164293615817E-027
  -2.8950000000000000E-002     3.8896182283005159E-027
  -2.8900000000000002E-002     3.9093430349012277E-027
  -2.8850000000000001E-002     2.3871383616716768E-027
  -2.8799999999999999E-002    -8.1931320396023895E-028
  -2.8749999999999998E-002    -5.2132430851982024E-027
  -2.8700000000000000E-002    -9.5691810622557570E-027
  -2.8650000000000002E-002    -1.2122725298891264E-026
  -2.8600000000000000E-002    -1.1077422791192334E-026
  -2.8549999999999999E-002    -5.3384552275771582E-027
  -2.8500000000000001E-002     4.7545751628545015E-027
  -2.8450000000000000E-002     1.7010039373394442E-026
  -2.8400000000000002E-002     2.7573724097984808E-026
  -2.8350000000000000E-002     3.1858476919104816E-026
  -2.8299999999999999E-002     2.6078416452917866E-026
  -2.8250000000000001E-002     8.9577208198074943E-027
  -2.8200000000000003E-002    -1.7014525568224636E-026
  -2.8150000000000001E-002    -4.5402192155097714E-026
  -2.8100000000000000E-002    -6.7063319047448742E-026
  -2.8049999999999999E-002    -7.2690283328896810E-026
  -2.8000000000000001E-002    -5.5996312451572176E-026
  -2.7950000000000003E-002    -1.6524423676208860E-026
  -2.7900000000000001E-002     3.8978002828361665E-026
  -2.7850000000000000E-002     9.7303989681720421E-026
  -2.7799999999999998E-002     1.4166119012589199E-025
  -2.7750000000000000E-002     1.5595654253993642E-025
  -2.7700000000000002E-002     1.2928761250128393E-025
  -2.7650000000000001E-002     5.9408098268844971E-026
  -2.7600000000000000E-002    -4.5635066785128916E-026
  -2.7549999999999998E-002    -1.6783847067867639E-025
  -2.7500000000000000E-002    -2.8118588815943298E-025
  -2.7450000000000002E-002    -3.5477260132389862E-025
  -2.7400000000000001E-002    -3.5711216696995336E-025
  -2.7349999999999999E-002    -2.6219183852764248E-025
  -2.7299999999999998E-002    -5.7921025106651735E-026
  -2.7250000000000000E-002     2.4336802577545007E-025
  -2.7200000000000002E-002     5.9484989087613017E-025
  -2.7150000000000001E-002     9.1063555573668543E-025
  -2.7099999999999999E-002     1.0733191888886525E-024
  -2.7049999999999998E-002     9.5901626652775542E-025
  -2.7000000000000000E-002     4.8012784536457140E-025
  -2.6950000000000002E-002    -3.6247166027963239E-025
  -2.6900000000000000E-002    -1.4354455343569274E-024
  -2.6849999999999999E-002    -2.4605845685119370E-024
  -2.6800000000000001E-002    -3.0549517514551604E-024
  -2.6749999999999999E-002    -2.8313241203470696E-024
  -2.6700000000000002E-002    -1.5440060169144385E-024
  -2.6650000000000000E-002     7.6060360211510237E-025
  -2.6599999999999999E-002     3.6477214107580697E-024
  -2.6550000000000001E-002     6.3114471081075506E-024
  -2.6500000000000003E-002     7.7402428493323987E-024
  -2.6450000000000001E-002     7.0176983860444200E-024
  -2.6400000000000000E-002     3.6875694575152337E-024
  -2.6349999999999998E-002    -1.9356797349074704E-024
  -2.6300000000000000E-002    -8.6443189385810524E-024
  -2.6250000000000002E-002    -1.4502559974620521E-023
  -2.6200000000000001E-002    -1.7317632677872655E-023
  -2.6150000000000000E-002    -1.5325241427689584E-023
  -2.6099999999999998E-002    -7.8967065953128472E-024
  -2.6050000000000000E-002     3.9765966616211643E-024
  -2.6000000000000002E-002     1.7637771487329510E-023
  -2.5950000000000001E-002     2.9261431655432548E-023
  -2.5899999999999999E-002     3.4826758093652696E-023
  -2.5849999999999998E-002     3.1326876414402874E-023
  -2.5800000000000000E-002     1.7861901734476933E-023
  -2.5750000000000002E-002    -3.7415748947608521E-024
  -2.5700000000000001E-002    -2.9025660203074023E-023
  -2.5649999999999999E-002    -5.1748551291023222E-023
  -2.5599999999999998E-002    -6.5299297531559038E-023
  -2.5550000000000000E-002    -6.4332190696616583E-023
  -2.5500000000000002E-002    -4.6224398123017053E-023
  -2.5450000000000000E-002    -1.2033101706513157E-023
  -2.5399999999999999E-002     3.3223565086712072E-023
  -2.5349999999999998E-002     8.0989872124856954E-023
  -2.5300000000000000E-002     1.2024667759777547E-022
  -2.5250000000000002E-002     1.3918311490848782E-022
  -2.5200000000000000E-002     1.2744131537361385E-022
  -2.5149999999999999E-002     7.8866122933377588E-023
  -2.5100000000000001E-002    -5.5139832614827085E-024
  -2.5049999999999999E-002    -1.1492362040951160E-022
  -2.5000000000000001E-002    -2.2776323079345863E-022
  -2.4950000000000000E-002    -3.1329770903621027E-022
  -2.4899999999999999E-002    -3.3710961024181489E-022
  -2.4850000000000001E-002    -2.7036150089450425E-022
  -2.4800000000000003E-002    -1.0137130631654050E-022
  -2.4750000000000001E-002     1.5370103152001493E-022
  -2.4700000000000000E-002     4.4542150715428645E-022
  -2.4649999999999998E-002     6.9512889580092243E-022
  -2.4600000000000000E-002     8.1074477349457678E-022
  -2.4550000000000002E-002     7.1300128247375931E-022
  -2.4500000000000001E-002     3.6628705770101617E-022
  -2.4450000000000000E-002    -1.9543393657812870E-022
  -2.4399999999999998E-002    -8.5848824948070831E-022
  -2.4350000000000000E-002    -1.4435923935731745E-021
  -2.4299999999999999E-002    -1.7463236960878339E-021
  -2.4250000000000001E-002    -1.5972202062553708E-021
  -2.4199999999999999E-002    -9.2597898290841568E-022
  -2.4150000000000001E-002     1.9113625706355909E-022
  -2.4100000000000000E-002     1.5206963409097053E-021
  -2.4049999999999998E-002     2.7101513452897945E-021
  -2.4000000000000000E-002     3.3722745763371555E-021
  -2.3949999999999999E-002     3.1976886229017423E-021
  -2.3900000000000001E-002     2.0644458519423624E-021
  -2.3850000000000000E-002     1.0932809308397843E-022
  -2.3800000000000002E-002    -2.2675695844318263E-021
  -2.3750000000000000E-002    -4.4761169419266834E-021
  -2.3699999999999999E-002    -5.8754215715980164E-021
  -2.3650000000000001E-002    -5.9456358743200914E-021
  -2.3599999999999999E-002    -4.4460467785773548E-021
  -2.3550000000000001E-002    -1.5139644131053046E-021
  -2.3500000000000000E-002     2.3264419674520704E-021
  -2.3449999999999999E-002     6.2522476519151175E-021
  -2.3400000000000001E-002     9.3082230192662321E-021
  -2.3349999999999999E-002     1.0614175548080577E-020
  -2.3300000000000001E-002     9.5686410780703861E-021
  -2.3250000000000000E-002     6.0093129105764349E-021
  -2.3199999999999998E-002     3.0303257637606024E-022
  -2.3150000000000000E-002    -6.6488396706185655E-021
  -2.3099999999999999E-002    -1.3495562760673453E-020
  -2.3050000000000001E-002    -1.8615630436647787E-020
  -2.3000000000000000E-002    -2.0388985585608700E-020
  -2.2950000000000002E-002    -1.7551783718165399E-020
  -2.2900000000000000E-002    -9.5963564288645031E-021
  -2.2849999999999999E-002     2.8607476155308103E-021
  -2.2800000000000001E-002     1.7860559550024093E-020
  -2.2749999999999999E-002     3.2170238237564894E-020
  -2.2700000000000001E-002     4.1748164911917422E-020
  -2.2650000000000000E-002     4.2627887256202393E-020
  -2.2599999999999999E-002     3.2103053459555122E-020
  -2.2550000000000001E-002     9.9377798927219967E-021
  -2.2499999999999999E-002    -2.0790387934626152E-020
  -2.2450000000000001E-002    -5.3622050655315752E-020
  -2.2400000000000000E-002    -7.9697554062305765E-020
  -2.2349999999999998E-002    -8.9787504755264414E-020
  -2.2300000000000000E-002    -7.7009366880427821E-020
  -2.2249999999999999E-002    -3.9529080091682286E-020
  -2.2200000000000001E-002     1.7636752610531060E-020
  -2.2150000000000000E-002     8.2524417868094843E-020
  -2.2100000000000002E-002     1.3826308470551321E-019
  -2.2050000000000000E-002     1.6707322844814565E-019
  -2.1999999999999999E-002     1.5536736909249936E-019
  -2.1950000000000001E-002     9.8570805850376477E-020
  -2.1899999999999999E-002     4.1146266252376036E-021
  -2.1850000000000001E-002    -1.0863088474610918E-019
  -2.1800000000000000E-002    -2.1194795210225486E-019
  -2.1749999999999999E-002    -2.7632587752745637E-019
  -2.1700000000000001E-002    -2.7843284744896965E-019
  -2.1649999999999999E-002    -2.0835054546759562E-019
  -2.1600000000000001E-002    -7.3915208644686804E-020
  -2.1550000000000000E-002     9.9327423617819479E-020
  -2.1499999999999998E-002     2.7288655761710365E-019
  -2.1450000000000000E-002     4.0382928067481142E-019
  -2.1399999999999999E-002     4.5497727093255828E-019
  -2.1350000000000001E-002     4.0427360595315741E-019
  -2.1299999999999999E-002     2.5103519638123976E-019
  -2.1250000000000002E-002     1.7655104249590497E-020
  -2.1200000000000000E-002    -2.5353438402721138E-019
  -2.1149999999999999E-002    -5.0746578524311259E-019
  -2.1100000000000001E-002    -6.8616422598825424E-019
  -2.1049999999999999E-002    -7.3957146978709836E-019
  -2.1000000000000001E-002    -6.3590315888789932E-019
  -2.0950000000000000E-002    -3.7030899347718382E-019
  -2.0899999999999998E-002     2.9362602023765986E-020
  -2.0850000000000000E-002     5.0112219225718758E-019
  -2.0799999999999999E-002     9.5341712659552375E-019
  -2.0750000000000001E-002     1.2772643285926925E-018
  -2.0700000000000000E-002     1.3664064809899269E-018
  -2.0649999999999998E-002     1.1437636317914937E-018
  -2.0600000000000000E-002     5.8946892239019931E-019
  -2.0549999999999999E-002    -2.3706906414836103E-019
  -2.0500000000000001E-002    -1.1900041239004376E-018
  -2.0449999999999999E-002    -2.0523545265419957E-018
  -2.0400000000000001E-002    -2.5766385497063748E-018
  -2.0350000000000000E-002    -2.5462628986271190E-018
  -2.0299999999999999E-002    -1.8447445319094064E-018
  -2.0250000000000001E-002    -5.1341439418990675E-019
  -2.0199999999999999E-002     1.2233382639597682E-018
  -2.0150000000000001E-002     2.9811349827965500E-018
  -2.0100000000000000E-002     4.2911187730444651E-018
  -2.0049999999999998E-002     4.7162357877883836E-018
  -2.0000000000000000E-002     3.9812340435446501E-018
  -1.9949999999999999E-002     2.0797025061050220E-018
  -1.9900000000000001E-002    -6.7806356592863568E-019
  -1.9850000000000000E-002    -3.7004346586745748E-018
  -1.9799999999999998E-002    -6.2353784157442038E-018
  -1.9750000000000000E-002    -7.5536496752958395E-018
  -1.9699999999999999E-002    -7.1492231736390597E-018
  -1.9650000000000001E-002    -4.9016100713143747E-018
  -1.9599999999999999E-002    -1.1502707490944728E-018
  -1.9550000000000001E-002     3.3474914838505755E-018
  -1.9500000000000000E-002     7.5724409562349583E-018
  -1.9449999999999999E-002     1.0478080213179590E-017
  -1.9400000000000001E-002     1.1245694473236150E-017
  -1.9349999999999999E-002     9.4945189339576218E-018
  -1.9300000000000001E-002     5.3935941600034789E-018
  -1.9250000000000000E-002    -3.5155654885413792E-019
  -1.9199999999999998E-002    -6.6315532778300570E-018
  -1.9150000000000000E-002    -1.2150789272382028E-017
  -1.9099999999999999E-002    -1.5679871960646661E-017
  -1.9050000000000001E-002    -1.6292367316603541E-017
  -1.9000000000000000E-002    -1.3547674463011522E-017
  -1.8949999999999998E-002    -7.5991383677830192E-018
  -1.8900000000000000E-002     7.7941742756043669E-019
  -1.8849999999999999E-002     1.0250147342738223E-017
  -1.8800000000000001E-002     1.9054200429136651E-017
  -1.8749999999999999E-002     2.5247843184979212E-017
  -1.8700000000000001E-002     2.7032215538060768E-017
  -1.8650000000000000E-002     2.3155231841807040E-017
  -1.8599999999999998E-002     1.3326744741286054E-017
  -1.8550000000000001E-002    -1.4535341125872064E-018
  -1.8499999999999999E-002    -1.8782074485126520E-017
  -1.8450000000000001E-002    -3.5068032289052498E-017
  -1.8400000000000000E-002    -4.6136958652710365E-017
  -1.8349999999999998E-002    -4.8172546613070088E-017
  -1.8300000000000000E-002    -3.8819724639657954E-017
  -1.8249999999999999E-002    -1.8164151507706819E-017
  -1.8200000000000001E-002     1.0739706184576185E-017
  -1.8149999999999999E-002     4.2063500688476424E-017
  -1.8100000000000002E-002     6.8232744943159047E-017
  -1.8050000000000000E-002     8.1661108023823106E-017
  -1.7999999999999999E-002     7.6818749791499058E-017
  -1.7950000000000001E-002     5.2086696697828111E-017
  -1.7899999999999999E-002     1.0816663683888360E-017
  -1.7850000000000001E-002    -3.8838487696142259E-017
  -1.7800000000000000E-002    -8.5453367130158291E-017
  -1.7749999999999998E-002    -1.1695913611572314E-016
  -1.7700000000000000E-002    -1.2375632890004826E-016
  -1.7649999999999999E-002    -1.0148485650860245E-016
  -1.7600000000000001E-002    -5.2645418958248748E-017
  -1.7550000000000000E-002     1.3467861520472933E-017
  -1.7499999999999998E-002     8.2616836504714930E-017
  -1.7450000000000000E-002     1.3884459301584686E-016
  -1.7399999999999999E-002     1.6827004186088527E-016
  -1.7350000000000001E-002     1.6247189879635456E-016
  -1.7299999999999999E-002     1.2059403744910123E-016
  -1.7250000000000001E-002     4.9664050767564126E-017
  -1.7200000000000000E-002    -3.6888240601216752E-017
  -1.7149999999999999E-002    -1.2205915488258516E-016
  -1.7100000000000001E-002    -1.8869806350664501E-016
  -1.7049999999999999E-002    -2.2274073644340307E-016
  -1.7000000000000001E-002    -2.1564705249357246E-016
  -1.6950000000000000E-002    -1.6576396037479961E-016
  -1.6899999999999998E-002    -7.8642474323194252E-017
  -1.6850000000000000E-002     3.3494143974915556E-017
  -1.6799999999999999E-002     1.5295340864163300E-016
  -1.6750000000000001E-002     2.5842616681475158E-016
  -1.6700000000000000E-002     3.2762216868804290E-016
  -1.6649999999999998E-002     3.4081943294457044E-016
  -1.6600000000000000E-002     2.8519949067311408E-016
  -1.6549999999999999E-002     1.5935381540473383E-016
  -1.6500000000000001E-002    -2.3200869130132513E-017
  -1.6449999999999999E-002    -2.3299517820907065E-016
  -1.6400000000000001E-002    -4.2742402788510031E-016
  -1.6350000000000000E-002    -5.5800379106129491E-016
  -1.6299999999999999E-002    -5.8137417415805256E-016
  -1.6250000000000001E-002    -4.7185919657013463E-016
  -1.6199999999999999E-002    -2.3222344574993064E-016
  -1.6150000000000001E-002     1.0107804395031268E-016
  -1.6100000000000000E-002     4.6102255579997061E-016
  -1.6049999999999998E-002     7.6238562247853287E-016
  -1.6000000000000000E-002     9.2150811052031156E-016
  -1.5949999999999999E-002     8.7898065873428019E-016
  -1.5900000000000001E-002     6.1908427091838015E-016
  -1.5850000000000000E-002     1.7984613028192046E-016
  -1.5799999999999998E-002    -3.5047438235554429E-016
  -1.5750000000000000E-002    -8.5111585080196435E-016
  -1.5699999999999999E-002    -1.1972461088051650E-015
  -1.5650000000000001E-002    -1.2920567077939435E-015
  -1.5599999999999999E-002    -1.0937897657683166E-015
  -1.5550000000000001E-002    -6.2981461861483857E-016
  -1.5500000000000000E-002     6.8286906974727437E-018
  -1.5449999999999998E-002     6.7813595898510732E-016
  -1.5400000000000000E-002     1.2338404648009805E-015
  -1.5349999999999999E-002     1.5473611480569202E-015
  -1.5300000000000001E-002     1.5453702486819494E-015
  -1.5250000000000000E-002     1.2234019535895697E-015
  -1.5199999999999998E-002     6.4423035611694633E-016
  -1.5150000000000000E-002    -7.9157589547529233E-017
  -1.5099999999999999E-002    -8.0997737245091656E-016
  -1.5050000000000001E-002    -1.4155543622068249E-015
  -1.4999999999999999E-002    -1.7897562608234532E-015
  -1.4949999999999998E-002    -1.8661795614777684E-015
  -1.4900000000000000E-002    -1.6223368740625256E-015
  -1.4849999999999999E-002    -1.0782031127995931E-015
  -1.4800000000000001E-002    -2.9332493759702112E-016
  -1.4749999999999999E-002     6.3506049641622149E-016
  -1.4700000000000001E-002     1.5739327902357284E-015
  -1.4650000000000000E-002     2.3608764686917204E-015
  -1.4599999999999998E-002     2.8206917375506837E-015
  -1.4550000000000000E-002     2.7957996597941344E-015
  -1.4499999999999999E-002     2.1884549897012735E-015
  -1.4450000000000001E-002     1.0055716104975164E-015
  -1.4400000000000000E-002    -6.0895814068969959E-016
  -1.4349999999999998E-002    -2.3710726185894228E-015
  -1.4300000000000000E-002    -3.8942063599470348E-015
  -1.4249999999999999E-002    -4.7684671877673561E-015
  -1.4200000000000001E-002    -4.6674318674280269E-015
  -1.4149999999999999E-002    -3.4555091356107883E-015
  -1.4099999999999998E-002    -1.2621339570110403E-015
  -1.4050000000000000E-002     1.5072151771631049E-015
  -1.3999999999999999E-002     4.2384406964064832E-015
  -1.3950000000000001E-002     6.2473627181796373E-015
  -1.3899999999999999E-002     6.9581638545816855E-015
  -1.3850000000000001E-002     6.0733707876141369E-015
  -1.3800000000000000E-002     3.6833427519824949E-015
  -1.3749999999999998E-002     2.7603543661949641E-016
  -1.3700000000000000E-002    -3.3652648767959039E-015
  -1.3649999999999999E-002    -6.3549968445225245E-015
  -1.3600000000000001E-002    -7.9382658928364096E-015
  -1.3550000000000000E-002    -7.6972300498964177E-015
  -1.3499999999999998E-002    -5.6692024299612214E-015
  -1.3450000000000000E-002    -2.3395845796883116E-015
  -1.3399999999999999E-002     1.4895883316933681E-015
  -1.3350000000000001E-002     4.9161339908607732E-015
  -1.3299999999999999E-002     7.1735105094758272E-015
  -1.3249999999999998E-002     7.8152593610147907E-015
  -1.3200000000000000E-002     6.7962431743062209E-015
  -1.3149999999999998E-002     4.4349195296129115E-015
  -1.3100000000000001E-002     1.2816596066948445E-015
  -1.3049999999999999E-002    -2.0515014586971363E-015
  -1.3000000000000001E-002    -5.0356290285170152E-015
  -1.2950000000000000E-002    -7.2967939335717453E-015
  -1.2899999999999998E-002    -8.6033125637588584E-015
  -1.2850000000000000E-002    -8.7967283665005956E-015
  -1.2799999999999999E-002    -7.7227298498878177E-015