  -4.0000000000000001E-002     0.0000000000000000     
  -3.9949999999999999E-002     0.0000000000000000     
  -3.9899999999999998E-002     0.0000000000000000     
  -3.9850000000000003E-002     0.0000000000000000     
  -3.9800000000000002E-002     0.0000000000000000     
  -3.9750000000000001E-002     0.0000000000000000     
  -3.9699999999999999E-002     0.0000000000000000     
  -3.9649999999999998E-002     0.0000000000000000     
  -3.9600000000000003E-002     0.0000000000000000     
  -3.9550000000000002E-002     0.0000000000000000     
  -3.9500000000000000E-002     0.0000000000000000     
  -3.9449999999999999E-002     0.0000000000000000     
  -3.9399999999999998E-002     0.0000000000000000     
  -3.9350000000000003E-002     0.0000000000000000     
  -3.9300000000000002E-002     0.0000000000000000     
  -3.9250000000000000E-002     0.0000000000000000     
  -3.9199999999999999E-002     0.0000000000000000     
  -3.9150000000000004E-002     0.0000000000000000     
  -3.9100000000000003E-002     0.0000000000000000     
  -3.9050000000000001E-002     0.0000000000000000     
  -3.9000000000000000E-002     0.0000000000000000     
  -3.8949999999999999E-002     0.0000000000000000     
  -3.8900000000000004E-002     0.0000000000000000     
  -3.8850000000000003E-002     0.0000000000000000     
  -3.8800000000000001E-002     0.0000000000000000     
  -3.8750000000000000E-002     0.0000000000000000     
  -3.8699999999999998E-002     0.0000000000000000     
  -3.8650000000000004E-002     0.0000000000000000     
  -3.8600000000000002E-002     0.0000000000000000     
  -3.8550000000000001E-002     0.0000000000000000     
  -3.8500000000000000E-002     0.0000000000000000     
  -3.8449999999999998E-002     0.0000000000000000     
  -3.8400000000000004E-002     0.0000000000000000     
  -3.8350000000000002E-002     0.0000000000000000     
  -3.8300000000000001E-002     0.0000000000000000     
  -3.8249999999999999E-002     0.0000000000000000     
  -3.8199999999999998E-002     0.0000000000000000     
  -3.8150000000000003E-002     0.0000000000000000     
  -3.8100000000000002E-002     0.0000000000000000     
  -3.8050000000000000E-002     0.0000000000000000     
  -3.7999999999999999E-002     0.0000000000000000     
  -3.7949999999999998E-002     0.0000000000000000     
  -3.7900000000000003E-002     0.0000000000000000     
  -3.7850000000000002E-002     0.0000000000000000     
  -3.7800000000000000E-002     0.0000000000000000     
  -3.7749999999999999E-002     0.0000000000000000     
  -3.7699999999999997E-002     0.0000000000000000     
  -3.7650000000000003E-002     0.0000000000000000     
  -3.7600000000000001E-002     0.0000000000000000     
  -3.7550000000000000E-002     0.0000000000000000     
  -3.7499999999999999E-002     0.0000000000000000     
  -3.7449999999999997E-002     0.0000000000000000     
  -3.7400000000000003E-002     0.0000000000000000     
  -3.7350000000000001E-002     0.0000000000000000     
  -3.7300000000000000E-002     0.0000000000000000     
  -3.7249999999999998E-002     0.0000000000000000     
  -3.7200000000000004E-002     0.0000000000000000     
  -3.7150000000000002E-002     0.0000000000000000     
  -3.7100000000000001E-002     0.0000000000000000     
  -3.7050000000000000E-002     0.0000000000000000     
  -3.6999999999999998E-002     0.0000000000000000     
  -3.6950000000000004E-002     0.0000000000000000     
  -3.6900000000000002E-002     0.0000000000000000     
  -3.6850000000000001E-002     0.0000000000000000     
  -3.6799999999999999E-002     0.0000000000000000     
  -3.6749999999999998E-002     0.0000000000000000     
  -3.6700000000000003E-002     0.0000000000000000     
  -3.6650000000000002E-002     0.0000000000000000     
  -3.6600000000000001E-002     0.0000000000000000     
  -3.6549999999999999E-002     0.0000000000000000     
  -3.6499999999999998E-002     0.0000000000000000     
  -3.6450000000000003E-002     0.0000000000000000     
  -3.6400000000000002E-002     0.0000000000000000     
  -3.6350000000000000E-002     0.0000000000000000     
  -3.6299999999999999E-002     0.0000000000000000     
  -3.6249999999999998E-002     0.0000000000000000     
  -3.6200000000000003E-002     0.0000000000000000     
  -3.6150000000000002E-002     0.0000000000000000     
  -3.6100000000000000E-002     0.0000000000000000     
  -3.6049999999999999E-002     0.0000000000000000     
  -3.6000000000000004E-002     0.0000000000000000     
  -3.5950000000000003E-002     0.0000000000000000     
  -3.5900000000000001E-002     0.0000000000000000     
  -3.5850000000000000E-002     0.0000000000000000     
  -3.5799999999999998E-002     0.0000000000000000     
  -3.5750000000000004E-002     0.0000000000000000     
  -3.5700000000000003E-002     0.0000000000000000     
  -3.5650000000000001E-002     0.0000000000000000     
  -3.5600000000000000E-002     0.0000000000000000     
  -3.5549999999999998E-002     0.0000000000000000     
  -3.5500000000000004E-002     0.0000000000000000     
  -3.5450000000000002E-002     0.0000000000000000     
  -3.5400000000000001E-002     0.0000000000000000     
  -3.5349999999999999E-002     0.0000000000000000     
  -3.5299999999999998E-002     0.0000000000000000     
  -3.5250000000000004E-002     0.0000000000000000     
  -3.5200000000000002E-002     0.0000000000000000     
  -3.5150000000000001E-002     0.0000000000000000     
  -3.5099999999999999E-002     0.0000000000000000     
  -3.5049999999999998E-002     0.0000000000000000     
  -3.5000000000000003E-002     0.0000000000000000     
  -3.4950000000000002E-002     0.0000000000000000     
  -3.4900000000000000E-002     0.0000000000000000     
  -3.4849999999999999E-002     0.0000000000000000     
  -3.4799999999999998E-002     0.0000000000000000     
  -3.4750000000000003E-002     0.0000000000000000     
  -3.4700000000000002E-002     0.0000000000000000     
  -3.4650000000000000E-002     0.0000000000000000     
  -3.4599999999999999E-002     0.0000000000000000     
  -3.4549999999999997E-002     0.0000000000000000     
  -3.4500000000000003E-002     0.0000000000000000     
  -3.4450000000000001E-002     0.0000000000000000     
  -3.4400000000000000E-002     0.0000000000000000     
  -3.4349999999999999E-002     0.0000000000000000     
  -3.4299999999999997E-002     0.0000000000000000     
  -3.4250000000000003E-002     0.0000000000000000     
  -3.4200000000000001E-002     0.0000000000000000     
  -3.4150000000000000E-002     0.0000000000000000     
  -3.4099999999999998E-002     0.0000000000000000     
  -3.4049999999999997E-002     0.0000000000000000     
  -3.4000000000000002E-002     0.0000000000000000     
  -3.3950000000000001E-002     0.0000000000000000     
  -3.3900000000000000E-002     0.0000000000000000     
  -3.3849999999999998E-002     0.0000000000000000     
  -3.3799999999999997E-002     0.0000000000000000     
  -3.3750000000000002E-002     0.0000000000000000     
  -3.3700000000000001E-002     0.0000000000000000     
  -3.3649999999999999E-002     0.0000000000000000     
  -3.3599999999999998E-002     0.0000000000000000     
  -3.3550000000000003E-002     0.0000000000000000     
  -3.3500000000000002E-002     0.0000000000000000     
  -3.3450000000000001E-002     0.0000000000000000     
  -3.3399999999999999E-002     0.0000000000000000     
  -3.3349999999999998E-002     0.0000000000000000     
  -3.3300000000000003E-002     0.0000000000000000     
  -3.3250000000000002E-002     0.0000000000000000     
  -3.3200000000000000E-002     0.0000000000000000     
  -3.3149999999999999E-002     0.0000000000000000     
  -3.3099999999999997E-002     0.0000000000000000     
  -3.3050000000000003E-002     0.0000000000000000     
  -3.3000000000000002E-002     0.0000000000000000     
  -3.2950000000000000E-002     0.0000000000000000     
  -3.2899999999999999E-002     0.0000000000000000     
  -3.2850000000000004E-002     0.0000000000000000     
  -3.2800000000000003E-002     0.0000000000000000     
  -3.2750000000000001E-002     0.0000000000000000     
  -3.2700000000000000E-002     0.0000000000000000     
  -3.2649999999999998E-002     0.0000000000000000     
  -3.2600000000000004E-002     0.0000000000000000     
  -3.2550000000000003E-002     0.0000000000000000     
  -3.2500000000000001E-002     0.0000000000000000     
  -3.2450000000000000E-002     0.0000000000000000     
  -3.2399999999999998E-002     0.0000000000000000     
  -3.2350000000000004E-002     0.0000000000000000     
  -3.2300000000000002E-002     0.0000000000000000     
  -3.2250000000000001E-002     0.0000000000000000     
  -3.2199999999999999E-002     0.0000000000000000     
  -3.2149999999999998E-002     0.0000000000000000     
  -3.2100000000000004E-002     0.0000000000000000     
  -3.2050000000000002E-002     0.0000000000000000     
  -3.2000000000000001E-002     0.0000000000000000     
  -3.1949999999999999E-002     0.0000000000000000     
  -3.1899999999999998E-002     0.0000000000000000     
  -3.1850000000000003E-002     0.0000000000000000     
  -3.1800000000000002E-002     0.0000000000000000     
  -3.1750000000000000E-002     0.0000000000000000     
  -3.1699999999999999E-002     0.0000000000000000     
  -3.1649999999999998E-002     0.0000000000000000     
  -3.1600000000000003E-002     0.0000000000000000     
  -3.1550000000000002E-002     0.0000000000000000     
  -3.1500000000000000E-002     0.0000000000000000     
  -3.1449999999999999E-002     0.0000000000000000     
  -3.1399999999999997E-002     0.0000000000000000     
  -3.1350000000000003E-002     0.0000000000000000     
  -3.1300000000000001E-002     0.0000000000000000     
  -3.1250000000000000E-002     0.0000000000000000     
  -3.1199999999999999E-002     0.0000000000000000     
  -3.1150000000000001E-002     0.0000000000000000     
  -3.1100000000000003E-002     0.0000000000000000     
  -3.1050000000000001E-002     0.0000000000000000     
  -3.1000000000000000E-002     0.0000000000000000     
  -3.0949999999999998E-002     0.0000000000000000     
  -3.0900000000000000E-002     0.0000000000000000     
  -3.0850000000000002E-002     0.0000000000000000     
  -3.0800000000000001E-002     0.0000000000000000     
  -3.0750000000000000E-002     0.0000000000000000     
  -3.0699999999999998E-002     0.0000000000000000     
  -3.0650000000000000E-002     0.0000000000000000     
  -3.0600000000000002E-002     0.0000000000000000     
  -3.0550000000000001E-002     0.0000000000000000     
  -3.0499999999999999E-002     0.0000000000000000     
  -3.0449999999999998E-002     0.0000000000000000     
  -3.0400000000000000E-002     0.0000000000000000     
  -3.0350000000000002E-002     0.0000000000000000     
  -3.0300000000000001E-002     0.0000000000000000     
  -3.0249999999999999E-002     0.0000000000000000     
  -3.0200000000000001E-002     0.0000000000000000     
  -3.0150000000000000E-002     0.0000000000000000     
  -3.0100000000000002E-002     0.0000000000000000     
  -3.0050000000000000E-002     0.0000000000000000     
  -2.9999999999999999E-002     0.0000000000000000     
  -2.9950000000000001E-002     0.0000000000000000     
  -2.9899999999999999E-002     0.0000000000000000     
  -2.9850000000000002E-002     0.0000000000000000     
  -2.9800000000000000E-002     0.0000000000000000     
  -2.9749999999999999E-002     0.0000000000000000     
  -2.9700000000000001E-002     0.0000000000000000     
  -2.9650000000000003E-002     0.0000000000000000     
  -2.9600000000000001E-002     0.0000000000000000     
  -2.9550000000000000E-002     0.0000000000000000     
  -2.9499999999999998E-002     0.0000000000000000     
  -2.9450000000000000E-002     0.0000000000000000     
  -2.9400000000000003E-002     0.0000000000000000     
  -2.9350000000000001E-002     0.0000000000000000     
  -2.9300000000000000E-002     0.0000000000000000     
  -2.9249999999999998E-002     0.0000000000000000     
  -2.9200000000000000E-002     0.0000000000000000     
  -2.9150000000000002E-002     0.0000000000000000     
  -2.9100000000000001E-002     0.0000000000000000     
  -2.9049999999999999E-002     0.0000000000000000     
  -2.8999999999999998E-002     0.0000000000000000     
  -2.8950000000000000E-002     0.0000000000000000     
  -2.8900000000000002E-002     0.0000000000000000     
  -2.8850000000000001E-002     0.0000000000000000     
  -2.8799999999999999E-002     0.0000000000000000     
  -2.8749999999999998E-002     0.0000000000000000     
  -2.8700000000000000E-002     0.0000000000000000     
  -2.8650000000000002E-002     0.0000000000000000     
  -2.8600000000000000E-002     0.0000000000000000     
  -2.8549999999999999E-002     0.0000000000000000     
  -2.8500000000000001E-002     0.0000000000000000     
  -2.8450000000000000E-002     0.0000000000000000     
  -2.8400000000000002E-002     0.0000000000000000     
  -2.8350000000000000E-002     0.0000000000000000     
  -2.8299999999999999E-002     0.0000000000000000     
  -2.8250000000000001E-002     0.0000000000000000     
  -2.8200000000000003E-002     0.0000000000000000     
  -2.8150000000000001E-002     0.0000000000000000     
  -2.8100000000000000E-002     0.0000000000000000     
  -2.8049999999999999E-002     0.0000000000000000     
  -2.8000000000000001E-002     0.0000000000000000     
  -2.7950000000000003E-002     0.0000000000000000     
  -2.7900000000000001E-002     0.0000000000000000     
  -2.7850000000000000E-002     0.0000000000000000     
  -2.7799999999999998E-002     0.0000000000000000     
  -2.7750000000000000E-002     0.0000000000000000     
  -2.7700000000000002E-002     0.0000000000000000     
  -2.7650000000000001E-002     0.0000000000000000     
  -2.7600000000000000E-002     0.0000000000000000     
  -2.7549999999999998E-002     0.0000000000000000     
  -2.7500000000000000E-002     0.0000000000000000     
  -2.7450000000000002E-002     0.0000000000000000     
  -2.7400000000000001E-002     0.0000000000000000     
  -2.7349999999999999E-002     0.0000000000000000     
  -2.7299999999999998E-002     0.0000000000000000     
  -2.7250000000000000E-002     0.0000000000000000     
  -2.7200000000000002E-002     0.0000000000000000     
  -2.7150000000000001E-002     0.0000000000000000     
  -2.7099999999999999E-002     0.0000000000000000     
  -2.7049999999999998E-002     0.0000000000000000     
  -2.7000000000000000E-002     0.0000000000000000     
  -2.6950000000000002E-002     0.0000000000000000     
  -2.6900000000000000E-002     0.0000000000000000     
  -2.6849999999999999E-002     0.0000000000000000     
  -2.6800000000000001E-002     0.0000000000000000     
  -2.6749999999999999E-002     0.0000000000000000     
  -2.6700000000000002E-002     0.0000000000000000     
  -2.6650000000000000E-002     0.0000000000000000     
  -2.6599999999999999E-002     0.0000000000000000     
  -2.6550000000000001E-002     0.0000000000000000     
  -2.6500000000000003E-002     0.0000000000000000     
  -2.6450000000000001E-002     0.0000000000000000     
  -2.6400000000000000E-002     0.0000000000000000     
  -2.6349999999999998E-002     0.0000000000000000     
  -2.6300000000000000E-002     0.0000000000000000     
  -2.6250000000000002E-002     0.0000000000000000     
  -2.6200000000000001E-002     0.0000000000000000     
  -2.6150000000000000E-002     0.0000000000000000     
  -2.6099999999999998E-002     0.0000000000000000     
  -2.6050000000000000E-002     0.0000000000000000     
  -2.6000000000000002E-002     0.0000000000000000     
  -2.5950000000000001E-002     0.0000000000000000     
  -2.5899999999999999E-002     0.0000000000000000     
  -2.5849999999999998E-002     0.0000000000000000     
  -2.5800000000000000E-002     0.0000000000000000     
  -2.5750000000000002E-002     0.0000000000000000     
  -2.5700000000000001E-002     0.0000000000000000     
  -2.5649999999999999E-002     0.0000000000000000     
  -2.5599999999999998E-002     0.0000000000000000     
  -2.5550000000000000E-002     0.0000000000000000     
  -2.5500000000000002E-002     0.0000000000000000     
  -2.5450000000000000E-002     0.0000000000000000     
  -2.5399999999999999E-002     0.0000000000000000     
  -2.5349999999999998E-002     0.0000000000000000     
  -2.5300000000000000E-002     0.0000000000000000     
  -2.5250000000000002E-002     0.0000000000000000     
  -2.5200000000000000E-002     0.0000000000000000     
  -2.5149999999999999E-002     0.0000000000000000     
  -2.5100000000000001E-002     0.0000000000000000     
  -2.5049999999999999E-002     0.0000000000000000     
  -2.5000000000000001E-002     0.0000000000000000     
  -2.4950000000000000E-002     0.0000000000000000     
  -2.4899999999999999E-002     0.0000000000000000     
  -2.4850000000000001E-002     0.0000000000000000     
  -2.4800000000000003E-002     0.0000000000000000     
  -2.4750000000000001E-002     0.0000000000000000     
  -2.4700000000000000E-002     0.0000000000000000     
  -2.4649999999999998E-002     0.0000000000000000     
  -2.4600000000000000E-002     0.0000000000000000     
  -2.4550000000000002E-002     0.0000000000000000     
  -2.4500000000000001E-002     0.0000000000000000     
  -2.4450000000000000E-002     0.0000000000000000     
  -2.4399999999999998E-002     0.0000000000000000     
  -2.4350000000000000E-002     0.0000000000000000     
  -2.4299999999999999E-002     0.0000000000000000     
  -2.4250000000000001E-002     0.0000000000000000     
  -2.4199999999999999E-002     0.0000000000000000     
  -2.4150000000000001E-002     0.0000000000000000     
  -2.4100000000000000E-002     0.0000000000000000     
  -2.4049999999999998E-002     0.0000000000000000     
  -2.4000000000000000E-002     0.0000000000000000     
  -2.3949999999999999E-002     0.0000000000000000     
  -2.3900000000000001E-002     0.0000000000000000     
  -2.3850000000000000E-002     0.0000000000000000     
  -2.3800000000000002E-002     0.0000000000000000     
  -2.3750000000000000E-002     0.0000000000000000     
  -2.3699999999999999E-002     0.0000000000000000     
  -2.3650000000000001E-002     0.0000000000000000     
  -2.3599999999999999E-002     0.0000000000000000     
  -2.3550000000000001E-002     0.0000000000000000     
  -2.3500000000000000E-002     0.0000000000000000     
  -2.3449999999999999E-002     0.0000000000000000     
  -2.3400000000000001E-002     0.0000000000000000     
  -2.3349999999999999E-002     0.0000000000000000     
  -2.3300000000000001E-002     0.0000000000000000     
  -2.3250000000000000E-002     0.0000000000000000     
  -2.3199999999999998E-002     0.0000000000000000     
  -2.3150000000000000E-002     0.0000000000000000     
  -2.3099999999999999E-002     0.0000000000000000     
  -2.3050000000000001E-002     0.0000000000000000     
  -2.3000000000000000E-002     0.0000000000000000     
  -2.2950000000000002E-002     0.0000000000000000     
  -2.2900000000000000E-002     0.0000000000000000     
  -2.2849999999999999E-002     0.0000000000000000     
  -2.2800000000000001E-002     0.0000000000000000     
  -2.2749999999999999E-002     0.0000000000000000     
  -2.2700000000000001E-002     0.0000000000000000     
  -2.2650000000000000E-002     0.0000000000000000     
  -2.2599999999999999E-002     0.0000000000000000     
  -2.2550000000000001E-002     0.0000000000000000     
  -2.2499999999999999E-002     0.0000000000000000     
  -2.2450000000000001E-002     0.0000000000000000     
  -2.2400000000000000E-002     0.0000000000000000     
  -2.2349999999999998E-002     0.0000000000000000     
  -2.2300000000000000E-002     0.0000000000000000     
  -2.2249999999999999E-002     0.0000000000000000     
  -2.2200000000000001E-002     0.0000000000000000     
  -2.2150000000000000E-002     0.0000000000000000     
  -2.2100000000000002E-002     0.0000000000000000     
  -2.2050000000000000E-002     0.0000000000000000     
  -2.1999999999999999E-002     0.0000000000000000     
  -2.1950000000000001E-002     0.0000000000000000     
  -2.1899999999999999E-002     0.0000000000000000     
  -2.1850000000000001E-002     0.0000000000000000     
  -2.1800000000000000E-002     0.0000000000000000     
  -2.1749999999999999E-002     0.0000000000000000     
  -2.1700000000000001E-002     0.0000000000000000     
  -2.1649999999999999E-002     0.0000000000000000     
  -2.1600000000000001E-002     0.0000000000000000     
  -2.1550000000000000E-002     0.0000000000000000     
  -2.1499999999999998E-002     0.0000000000000000     
  -2.1450000000000000E-002     0.0000000000000000     
  -2.1399999999999999E-002     0.0000000000000000     
  -2.1350000000000001E-002     0.0000000000000000     
  -2.1299999999999999E-002     0.0000000000000000     
  -2.1250000000000002E-002     0.0000000000000000     
  -2.1200000000000000E-002     0.0000000000000000     
  -2.1149999999999999E-002     0.0000000000000000     
  -2.1100000000000001E-002     0.0000000000000000     
  -2.1049999999999999E-002     0.0000000000000000     
  -2.1000000000000001E-002     0.0000000000000000     
  -2.0950000000000000E-002     0.0000000000000000     
  -2.0899999999999998E-002     0.0000000000000000     
  -2.0850000000000000E-002    -4.2562473875609209E-040
  -2.0799999999999999E-002     0.0000000000000000     
  -2.0750000000000001E-002     2.8177986778774309E-039
  -2.0700000000000000E-002     5.8820462891716094E-039
  -2.0649999999999998E-002     6.5567927251708584E-039
  -2.0600000000000000E-002     1.6009354751169376E-039
  -2.0549999999999999E-002    -9.2689515912502545E-039
  -2.0500000000000001E-002    -2.4345052809803462E-038
  -2.0449999999999999E-002    -3.5616674959551435E-038
  -2.0400000000000001E-002    -1.8223261587242179E-038
  -2.0350000000000000E-002     6.6099584210826210E-039
  -2.0299999999999999E-002     2.3896599333300941E-038
  -2.0250000000000001E-002     1.2430658779150352E-038
  -2.0199999999999999E-002    -1.3564793602719139E-038
  -2.0150000000000001E-002    -2.1475773586660314E-038
  -2.0100000000000000E-002     1.7477714343732969E-038
  -2.0049999999999998E-002     1.0238880909109170E-037
  -2.0000000000000000E-002     1.9573908540381152E-037
  -1.9949999999999999E-002     2.3304057632751292E-037
  -1.9900000000000001E-002     1.5909730074554611E-037
  -1.9850000000000000E-002    -3.9972152840061714E-038
  -1.9799999999999998E-002    -3.1453257303152433E-037
  -1.9750000000000000E-002    -5.5903025688580959E-037
  -1.9699999999999999E-002    -6.4489955750060995E-037
  -1.9650000000000001E-002    -4.7867202060659532E-037
  -1.9599999999999999E-002    -6.3607819076086354E-038
  -1.9550000000000001E-002     4.9104127720572700E-037
  -1.9500000000000000E-002     9.9761657962400389E-037
  -1.9449999999999999E-002     1.2548419490841370E-036
  -1.9400000000000001E-002     1.1223764815635683E-036
  -1.9349999999999999E-002     5.7969737162212076E-037
  -1.9300000000000001E-002    -2.5078563533924943E-037
  -1.9250000000000000E-002    -1.1300586823365881E-036
  -1.9199999999999998E-002    -1.7734533689985637E-036
  -1.9150000000000000E-002    -1.9503515791548538E-036
  -1.9099999999999999E-002    -1.5776573788595721E-036
  -1.9050000000000001E-002    -7.6569643347371589E-037
  -1.9000000000000000E-002     2.1669922157258897E-037
  -1.8949999999999998E-002     1.0606444589296391E-036
  -1.8900000000000000E-002     1.5842189947537978E-036
  -1.8849999999999999E-002     1.8431962454052946E-036
  -1.8800000000000001E-002     2.1218019747827519E-036
  -1.8749999999999999E-002     2.7353289165414638E-036
  -1.8700000000000001E-002     3.7064421375806148E-036
  -1.8650000000000000E-002     4.4775341374683087E-036
  -1.8599999999999998E-002     3.8833122871404175E-036
  -1.8550000000000001E-002     5.5134137286399202E-037
  -1.8499999999999999E-002    -6.2786996080418582E-036
  -1.8450000000000001E-002    -1.5789999379265291E-035
  -1.8400000000000000E-002    -2.4974071226422802E-035
  -1.8349999999999998E-002    -2.8909483238963994E-035
  -1.8300000000000000E-002    -2.2250662071635031E-035
  -1.8249999999999999E-002    -1.7422973444696033E-036
  -1.8200000000000001E-002     3.1033311615328599E-035
  -1.8149999999999999E-002     6.7944595527441965E-035
  -1.8100000000000002E-002     9.4935645694911638E-035
  -1.8050000000000000E-002     9.5704807284758108E-035
  -1.7999999999999999E-002     5.7996385492053944E-035
  -1.7950000000000001E-002    -1.9318041647598222E-035
  -1.7899999999999999E-002    -1.2125314411431113E-034
  -1.7850000000000001E-002    -2.1680968055328497E-034
  -1.7800000000000000E-002    -2.6594705630801423E-034
  -1.7749999999999998E-002    -2.3279855446965180E-034
  -1.7700000000000000E-002    -1.0157157068749210E-034
  -1.7649999999999999E-002     1.1070565757472804E-034
  -1.7600000000000001E-002     3.5084960782458328E-034
  -1.7550000000000000E-002     5.3967516570037182E-034
  -1.7499999999999998E-002     5.9516080665711909E-034
  -1.7450000000000000E-002     4.6258983948788227E-034
  -1.7399999999999999E-002     1.4125612488136897E-034
  -1.7350000000000001E-002    -3.0364073448764081E-034
  -1.7299999999999999E-002    -7.5160100030826157E-034
  -1.7250000000000001E-002    -1.0598557689409939E-033
  -1.7200000000000000E-002    -1.1094763829888129E-033
  -1.7149999999999999E-002    -8.4830425470348867E-034
  -1.7100000000000001E-002    -3.1350048722949858E-034
  -1.7049999999999999E-002     3.7686306176253630E-034
  -1.7000000000000001E-002     1.0612698877871924E-033
  -1.6950000000000000E-002     1.5859965363109563E-033
  -1.6899999999999998E-002     1.8470823865723395E-033
  -1.6850000000000000E-002     1.8030321103239178E-033
  -1.6799999999999999E-002     1.4528895502508394E-033
  -1.6750000000000001E-002     7.9529722220296892E-034
  -1.6700000000000000E-002    -1.9878274310843294E-034
  -1.6649999999999998E-002    -1.5651809194208464E-033
  -1.6600000000000000E-002    -3.2629416196583070E-033
  -1.6549999999999999E-002    -5.0519500074956639E-033
  -1.6500000000000001E-002    -6.3975618203950244E-033
  -1.6449999999999999E-002    -6.4905242746146788E-033
  -1.6400000000000001E-002    -4.4521507361529492E-033
  -1.6350000000000000E-002     2.7265427073341547E-034
  -1.6299999999999999E-002     7.4339204348003272E-033
  -1.6250000000000001E-002     1.5604726224477817E-032
  -1.6199999999999999E-002     2.2160265620477561E-032
  -1.6150000000000001E-002     2.3792829651432676E-032
  -1.6100000000000000E-002     1.7578012705681676E-032
  -1.6049999999999998E-002     2.3606659644674875E-033
  -1.6000000000000000E-002    -2.0009567098582040E-032
  -1.5949999999999999E-002    -4.4181765628366352E-032
  -1.5900000000000001E-002    -6.2037208022400634E-032
  -1.5850000000000000E-002    -6.4798999084745853E-032
  -1.5799999999999998E-002    -4.6140935290001577E-032
  -1.5750000000000000E-002    -5.3856992219434212E-033
  -1.5699999999999999E-002     5.0436688074057245E-032
  -1.5650000000000001E-002     1.0680864889380046E-031
  -1.5599999999999999E-002     1.4478388731998082E-031
  -1.5550000000000001E-002     1.4649036315367693E-031
  -1.5500000000000000E-002     1.0164256052617945E-031
  -1.5449999999999998E-002     1.2906864753253479E-032
  -1.5400000000000000E-002    -1.0207798759337874E-031
  -1.5349999999999999E-002    -2.1342157608860302E-031
  -1.5300000000000001E-002    -2.8634956595412255E-031
  -1.5250000000000000E-002    -2.9141067261349231E-031
  -1.5199999999999998E-002    -2.1442388573622587E-031
  -1.5150000000000000E-002    -6.2778580960075720E-032
  -1.5099999999999999E-002     1.3433280230832970E-031
  -1.5050000000000001E-002     3.3218526955896561E-031
  -1.4999999999999999E-002     4.8144189381673797E-031
  -1.4949999999999998E-002     5.4021661897793806E-031
  -1.4900000000000000E-002     4.8351742978741779E-031
  -1.4849999999999999E-002     3.0766433169881022E-031
  -1.4800000000000001E-002     2.9694704431270140E-032
  -1.4749999999999999E-002    -3.1592879370913313E-031
  -1.4700000000000001E-002    -6.8012372204177538E-031
  -1.4650000000000000E-002    -9.9966669069449784E-031
  -1.4599999999999998E-002    -1.1967605886995847E-030
  -1.4550000000000000E-002    -1.1827122818483518E-030
  -1.4499999999999999E-002    -8.7236215895912292E-031
  -1.4450000000000001E-002    -2.1348505642766604E-031
  -1.4400000000000000E-002     7.7168381411046849E-031
  -1.4349999999999998E-002     1.9455033700221725E-030
  -1.4300000000000000E-002     3.0357900174148714E-030
  -1.4249999999999999E-002     3.6616350028431397E-030
  -1.4200000000000001E-002     3.4184801103704361E-030
  -1.4149999999999999E-002     2.0166822516991839E-030
  -1.4099999999999998E-002    -5.5888469675570849E-031
  -1.4050000000000000E-002    -3.9242668038373896E-030
  -1.3999999999999999E-002    -7.2718421997136312E-030
  -1.3950000000000001E-002    -9.4952820894868077E-030
  -1.3899999999999999E-002    -9.4720077558598109E-030
  -1.3850000000000001E-002    -6.4517086466995867E-030
  -1.3800000000000000E-002    -4.4114505095978484E-031
  -1.3749999999999998E-002     7.5579445991935577E-030
  -1.3700000000000000E-002     1.5588739246256325E-029
  -1.3649999999999999E-002     2.1122098101563298E-029
  -1.3600000000000001E-002     2.1739215078354662E-029
  -1.3550000000000000E-002     1.5952095836278776E-029
  -1.3499999999999998E-002     3.9120976537861208E-030
  -1.3450000000000000E-002    -1.2259298664336653E-029
  -1.3399999999999999E-002    -2.8706923843035906E-029
  -1.3350000000000001E-002    -4.0676629444977249E-029
  -1.3299999999999999E-002    -4.3782496511906135E-029
  -1.3249999999999998E-002    -3.5370783540793886E-029
  -1.3200000000000000E-002    -1.5567468372772739E-029
  -1.3149999999999998E-002     1.2349494162140434E-029
  -1.3100000000000001E-002     4.2430977444837363E-029
  -1.3049999999999999E-002     6.7315123445259210E-029
  -1.3000000000000001E-002     7.9948416148365385E-029
  -1.2950000000000000E-002     7.5316434984123097E-029
  -1.2899999999999998E-002     5.1745132381566003E-029
  -1.2850000000000000E-002     1.1492040126943488E-029
  -1.2799999999999999E-002    -3.9423758622232044E-029