  -4.0000000000000001E-002     0.0000000000000000     
  -3.9949999999999999E-002     0.0000000000000000     
  -3.9899999999999998E-002     0.0000000000000000     
  -3.9850000000000003E-002     0.0000000000000000     
  -3.9800000000000002E-002     0.0000000000000000     
  -3.9750000000000001E-002     0.0000000000000000     
  -3.9699999999999999E-002     0.0000000000000000     
  -3.9649999999999998E-002     0.0000000000000000     
  -3.9600000000000003E-002     0.0000000000000000     
  -3.9550000000000002E-002     0.0000000000000000     
  -3.9500000000000000E-002     0.0000000000000000     
  -3.9449999999999999E-002     0.0000000000000000     
  -3.9399999999999998E-002     0.0000000000000000     
  -3.9350000000000003E-002     0.0000000000000000     
  -3.9300000000000002E-002    -8.5710764424727842E-039
  -3.9250000000000000E-002    -1.9452146026683968E-037
  -3.9199999999999999E-002    -2.2383404845418898E-036
  -3.9150000000000004E-002    -1.5793756550997839E-035
  -3.9100000000000003E-002    -7.6930411204336225E-035
  -3.9050000000000001E-002    -2.5956037987090429E-034
  -3.9000000000000000E-002    -5.1056226177554477E-034
  -3.8949999999999999E-002     2.8867664238106225E-034
  -3.8900000000000004E-002     7.2201497467166281E-033
  -3.8850000000000003E-002     3.4750215469298322E-032
  -3.8800000000000001E-002     1.0944025476980217E-031
  -3.8750000000000000E-002     2.4794294200276813E-031
  -3.8699999999999998E-002     3.6116074325399479E-031
  -3.8650000000000004E-002     2.5511157160735942E-032
  -3.8600000000000002E-002    -1.8511700487631485E-030
  -3.8550000000000001E-002    -7.1352725848420400E-030
  -3.8500000000000000E-002    -1.7427589872206788E-029
  -3.8449999999999998E-002    -3.0375428387514280E-029
  -3.8400000000000004E-002    -3.2194609042606164E-029
  -3.8350000000000002E-002     1.1754966296198769E-029
  -3.8300000000000001E-002     1.5936580318981733E-028
  -3.8249999999999999E-002     4.6796373672182628E-028
  -3.8199999999999998E-002     9.1898702230892097E-028
  -3.8150000000000003E-002     1.2793466529226841E-027
  -3.8100000000000002E-002     9.4005687667703956E-028
  -3.8050000000000000E-002    -1.1287736459541566E-027
  -3.7999999999999999E-002    -6.0555288239845703E-027
  -3.7949999999999998E-002    -1.4098473980701303E-026
  -3.7900000000000003E-002    -2.2963867100945625E-026
  -3.7850000000000002E-002    -2.5929423370220918E-026
  -3.7800000000000000E-002    -1.1205243830737682E-026
  -3.7749999999999999E-002     3.5208930125471621E-026
  -3.7699999999999997E-002     1.2101803877360460E-025
  -3.7650000000000003E-002     2.3338581475171838E-025
  -3.7600000000000001E-002     3.2336275611058916E-025
  -3.7550000000000000E-002     2.9934100943837943E-025
  -3.7499999999999999E-002     4.4064742073716251E-026
  -3.7449999999999997E-002    -5.3276449299245700E-025
  -3.7400000000000003E-002    -1.4077469613156825E-024
  -3.7350000000000001E-002    -2.3488752841313797E-024
  -3.7300000000000000E-002    -2.8660751678881948E-024
  -3.7249999999999998E-002    -2.2754605372293080E-024
  -3.7200000000000004E-002     7.2011142471387039E-026
  -3.7150000000000002E-002     4.4079212766376843E-024
  -3.7100000000000001E-002     1.0115872495255869E-023
  -3.7050000000000000E-002     1.5453349532338011E-023
  -3.6999999999999998E-002     1.7663626102901660E-023
  -3.6950000000000004E-002     1.3644422755743189E-023
  -3.6900000000000002E-002     1.1456083600087117E-024
  -3.6850000000000001E-002    -1.9802867007981607E-023
  -3.6799999999999999E-002    -4.5770516728288784E-023
  -3.6749999999999998E-002    -6.9722509491645404E-023
  -3.6700000000000003E-002    -8.2147474552181546E-023
  -3.6650000000000002E-002    -7.3479077953032896E-023
  -3.6600000000000001E-002    -3.7207387137089678E-023
  -3.6549999999999999E-002     2.7344589601451554E-023
  -3.6499999999999998E-002     1.1361082229572047E-022
  -3.6450000000000003E-002     2.0823173905027424E-022
  -3.6400000000000002E-002     2.9292050094179229E-022
  -3.6350000000000000E-002     3.4644595259286534E-022
  -3.6299999999999999E-002     3.4532977533683545E-022
  -3.6249999999999998E-002     2.6304286838786076E-022
  -3.6200000000000003E-002     6.9881622435192725E-023
  -3.6150000000000002E-002    -2.6177703876227836E-022
  -3.6100000000000000E-002    -7.4153500312603739E-022
  -3.6049999999999999E-002    -1.3325280866240479E-021
  -3.6000000000000004E-002    -1.9170854928974838E-021
  -3.5950000000000003E-002    -2.2743433298032621E-021
  -3.5900000000000001E-002    -2.0959707187648597E-021
  -3.5850000000000000E-002    -1.0636735822502585E-021
  -3.5799999999999998E-002     1.0072185395934835E-021
  -3.5750000000000004E-002     3.9890354497524789E-021
  -3.5700000000000003E-002     7.2984469369296252E-021
  -3.5650000000000001E-002     9.8820768357262209E-021
  -3.5600000000000000E-002     1.0408971977448562E-020
  -3.5549999999999998E-002     7.6831074471669708E-021
  -3.5500000000000004E-002     1.1879723327874385E-021
  -3.5450000000000002E-002    -8.4238964849552284E-021
  -3.5400000000000001E-002    -1.9128791875460694E-020
  -3.5349999999999999E-002    -2.7799612028921587E-020
  -3.5299999999999998E-002    -3.0977064826998431E-020
  -3.5250000000000004E-002    -2.5975888294415864E-020
  -3.5200000000000002E-002    -1.1986336628561351E-020
  -3.5150000000000001E-002     9.2250575221051208E-021
  -3.5099999999999999E-002     3.3313321706260853E-020
  -3.5049999999999998E-002     5.4129966822089860E-020
  -3.5000000000000003E-002     6.5108530742150420E-020
  -3.4950000000000002E-002     6.0932331969630403E-020
  -3.4900000000000000E-002     3.9132510983803454E-020
  -3.4849999999999999E-002     1.3439753352072309E-021
  -3.4799999999999998E-002    -4.5979886395426146E-020
  -3.4750000000000003E-002    -9.1628453280467669E-020
  -3.4700000000000002E-002    -1.2084980367959346E-019
  -3.4650000000000000E-002    -1.1819568842734915E-019
  -3.4599999999999999E-002    -7.2257655538331471E-020
  -3.4549999999999997E-002     1.8166245492774270E-020
  -3.4500000000000003E-002     1.3811433436094714E-019
  -3.4450000000000001E-002     2.5355480783934063E-019
  -3.4400000000000000E-002     3.1484744513603991E-019
  -3.4349999999999999E-002     2.6888132518121104E-019
  -3.4299999999999997E-002     7.9371667730791094E-020
  -3.4250000000000003E-002    -2.4934767295174709E-019
  -3.4200000000000001E-002    -6.5373615103316649E-019
  -3.4150000000000000E-002    -1.0082663442474593E-018
  -3.4099999999999998E-002    -1.1469725415220532E-018
  -3.4049999999999997E-002    -9.1106733743417450E-019
  -3.4000000000000002E-002    -2.1406660568412617E-019
  -3.3950000000000001E-002     8.9476095133542635E-019
  -3.3900000000000000E-002     2.1943161511391326E-018
  -3.3849999999999998E-002     3.3069218825726930E-018
  -3.3799999999999997E-002     3.7769468672263778E-018
  -3.3750000000000002E-002     3.2044411475734950E-018
  -3.3700000000000001E-002     1.4022081706816169E-018
  -3.3649999999999999E-002    -1.4730290101945014E-018
  -3.3599999999999998E-002    -4.8688032377087137E-018
  -3.3550000000000003E-002    -7.9034562289102472E-018
  -3.3500000000000002E-002    -9.5583697799837791E-018
  -3.3450000000000001E-002    -8.9620156186177894E-018
  -3.3399999999999999E-002    -5.6941923427847323E-018
  -3.3349999999999998E-002    -1.8145898797638637E-020
  -3.3300000000000003E-002     7.0455874730891331E-018
  -3.3250000000000002E-002     1.3855165357645789E-017
  -3.3200000000000000E-002     1.8489461150746680E-017
  -3.3149999999999999E-002     1.9231507292894575E-017
  -3.3099999999999997E-002     1.5080209327125495E-017
  -3.3050000000000003E-002     6.1557717281479909E-018
  -3.3000000000000002E-002    -6.1232007575593589E-018
  -3.2950000000000000E-002    -1.9169079951093704E-017
  -3.2899999999999999E-002    -2.9674417282865250E-017
  -3.2850000000000004E-002    -3.4322780418837379E-017
  -3.2800000000000003E-002    -3.0638230498240796E-017
  -3.2750000000000001E-002    -1.7802444611713675E-017
  -3.2700000000000000E-002     2.7558332792121972E-018
  -3.2649999999999998E-002     2.7189109586621377E-017
  -3.2600000000000004E-002     4.9625549811484768E-017
  -3.2550000000000003E-002     6.3192171542761715E-017
  -3.2500000000000001E-002     6.1597220642439508E-017
  -3.2450000000000000E-002     4.1033076725131575E-017
  -3.2399999999999998E-002     1.9860541533004150E-018
  -3.2350000000000004E-002    -4.9588426644992955E-017
  -3.2300000000000002E-002    -1.0228247999480149E-016
  -3.2250000000000001E-002    -1.4084630090079195E-016
  -3.2199999999999999E-002    -1.4944876668588516E-016
  -3.2149999999999998E-002    -1.1614905082162762E-016
  -3.2100000000000004E-002    -3.7609439155941214E-017
  -3.2050000000000002E-002     7.7315591916999667E-017
  -3.2000000000000001E-002     2.0655710333771859E-016
  -3.1949999999999999E-002     3.1745111279844482E-016
  -3.1899999999999998E-002     3.7324789640817912E-016
  -3.1850000000000003E-002     3.4261764688116245E-016
  -3.1800000000000002E-002     2.1009357810234586E-016
  -3.1750000000000000E-002    -1.5422640623337505E-017
  -3.1699999999999999E-002    -2.9708515038035732E-016
  -3.1649999999999998E-002    -5.7367052595110052E-016
  -3.1600000000000003E-002    -7.7087130846777939E-016
  -3.1550000000000002E-002    -8.1875167847932283E-016
  -3.1500000000000000E-002    -6.7168872570376570E-016
  -3.1449999999999999E-002    -3.2568890051986878E-016
  -3.1399999999999997E-002     1.7224035796148812E-016
  -3.1350000000000003E-002     7.2670221048897538E-016
  -3.1300000000000001E-002     1.2099088430746039E-015
  -3.1250000000000000E-002     1.4890340306088451E-015
  -3.1199999999999999E-002     1.4594915763309128E-015
  -3.1150000000000001E-002     1.0763187639035570E-015
  -3.1100000000000003E-002     3.7520709738509143E-016
  -3.1050000000000001E-002    -5.2374946726925619E-016
  -3.1000000000000000E-002    -1.4330126650093309E-015
  -3.0949999999999998E-002    -2.1338718412618191E-015
  -3.0900000000000000E-002    -2.4256263607757317E-015
  -3.0850000000000002E-002    -2.1772867617447096E-015
  -3.0800000000000001E-002    -1.3695368782232211E-015
  -3.0750000000000000E-002    -1.1557080639053170E-016
  -3.0699999999999998E-002     1.3469082550295191E-015
  -3.0650000000000000E-002     2.6943866147830631E-015
  -3.0600000000000002E-002     3.5819113801934875E-015
  -3.0550000000000001E-002     3.7216282568612747E-015
  -3.0499999999999999E-002     2.9593707335071972E-015
  -3.0449999999999998E-002     1.3315887968174133E-015
  -3.0400000000000000E-002    -9.1303122904815919E-016
  -3.0350000000000002E-002    -3.3372627749363078E-015
  -3.0300000000000001E-002    -5.3858697220718455E-015
  -3.0249999999999999E-002    -6.4945353216683091E-015
  -3.0200000000000001E-002    -6.2191286924953311E-015
  -3.0150000000000000E-002    -4.3599135124970915E-015
  -3.0100000000000002E-002    -1.0520864484826869E-015
  -3.0050000000000000E-002     3.2036407995468586E-015
  -2.9999999999999999E-002     7.5883682891877267E-015
  -2.9950000000000001E-002     1.1094240537453191E-014
  -2.9899999999999999E-002     1.2721933005753741E-014
  -2.9850000000000002E-002     1.1714395180188994E-014
  -2.9800000000000000E-002     7.7798868735931266E-015
  -2.9749999999999999E-002     1.2500301965354770E-015
  -2.9700000000000001E-002    -6.8774084428910215E-015
  -2.9650000000000003E-002    -1.5044272745363515E-014
  -2.9600000000000001E-002    -2.1390609460984775E-014
  -2.9550000000000000E-002    -2.4134065659137116E-014
  -2.9499999999999998E-002    -2.2001801654814210E-014
  -2.9450000000000000E-002    -1.4620209458685747E-014
  -2.9400000000000003E-002    -2.7597188346380328E-015
  -2.9350000000000001E-002     1.1651133382187531E-014
  -2.9300000000000000E-002     2.5786190257908753E-014
  -2.9249999999999998E-002     3.6439499716265939E-014
  -2.9200000000000000E-002     4.0715861216417662E-014
  -2.9150000000000002E-002     3.6752533720873754E-014
  -2.9100000000000001E-002     2.4300847138768898E-014
  -2.9049999999999999E-002     5.0061879184321703E-015
  -2.8999999999999998E-002    -1.7722758312273860E-014
  -2.8950000000000000E-002    -3.9277353936040932E-014
  -2.8900000000000002E-002    -5.4762945810954108E-014
  -2.8850000000000001E-002    -6.0085983195872153E-014
  -2.8799999999999999E-002    -5.2975488889099583E-014
  -2.8749999999999998E-002    -3.3691627556381852E-014
  -2.8700000000000000E-002    -5.2257786722415874E-015
  -2.8650000000000002E-002     2.7100319976198601E-014
  -2.8600000000000000E-002     5.6595799050835231E-014
  -2.8549999999999999E-002     7.6549764905229884E-014
  -2.8500000000000001E-002     8.1696946255946706E-014
  -2.8450000000000000E-002     6.9486754416041865E-014
  -2.8400000000000002E-002     4.0869128627412392E-014
  -2.8350000000000000E-002     4.0010122858865774E-016
  -2.8299999999999999E-002    -4.4397054456933965E-014
  -2.8250000000000001E-002    -8.4331102656995342E-014
  -2.8200000000000003E-002    -1.1028541748065907E-013
  -2.8150000000000001E-002    -1.1509287375641691E-013
  -2.8100000000000000E-002    -9.5193075789166394E-014
  -2.8049999999999999E-002    -5.1741983216259766E-014
  -2.8000000000000001E-002     9.0818064778139850E-015
  -2.7950000000000003E-002     7.6710966298032860E-014
  -2.7900000000000001E-002     1.3775152696799244E-013
  -2.7850000000000000E-002     1.7829784373781946E-013
  -2.7799999999999998E-002     1.8666715536092115E-013
  -2.7750000000000000E-002     1.5609186937100939E-013
  -2.7700000000000002E-002     8.6837197951088414E-014
  -2.7650000000000001E-002    -1.2772725448196903E-014
  -2.7600000000000000E-002    -1.2681352152934648E-013
  -2.7549999999999998E-002    -2.3386368158524476E-013
  -2.7500000000000000E-002    -3.1059173419656848E-013
  -2.7450000000000002E-002    -3.3631323429047173E-013
  -2.7400000000000001E-002    -2.9769596396458489E-013
  -2.7349999999999999E-002    -1.9261501146689005E-013
  -2.7299999999999998E-002    -3.2185212513195138E-014
  -2.7250000000000000E-002     1.5973988814234103E-013
  -2.7200000000000002E-002     3.4984074044328772E-013
  -2.7150000000000001E-002     5.0101443786732821E-013
  -2.7099999999999999E-002     5.7951048292321452E-013
  -2.7049999999999998E-002     5.6211781263681456E-013
  -2.7000000000000000E-002     4.4183955894650541E-013
  -2.6950000000000002E-002     2.3067914386649832E-013
  -2.6900000000000000E-002    -4.1309188791196814E-014
  -2.6849999999999999E-002    -3.3078002581868434E-013
  -2.6800000000000001E-002    -5.8889319635534413E-013
  -2.6749999999999999E-002    -7.7064232596233333E-013
  -2.6700000000000002E-002    -8.4378179776514720E-013
  -2.6650000000000000E-002    -7.9540493894181584E-013
  -2.6599999999999999E-002    -6.3465783562089102E-013
  -2.6550000000000001E-002    -3.9086253064216549E-013
  -2.6500000000000003E-002    -1.0731460431665384E-013
  -2.6450000000000001E-002     1.6801618837063500E-013
  -2.6400000000000000E-002     3.9292647007990569E-013
  -2.6349999999999998E-002     5.4028801251222189E-013
  -2.6300000000000000E-002     6.0412005513261297E-013
  -2.6250000000000002E-002     6.0094829002067095E-013
  -2.6200000000000001E-002     5.6592895427552452E-013
  -2.6150000000000000E-002     5.4430228662849042E-013
  -2.6099999999999998E-002     5.7973286819737008E-013
  -2.6050000000000000E-002     7.0180059611955988E-013
  -2.6000000000000002E-002     9.1519355285508446E-013
  -2.5950000000000001E-002     1.1929810408362559E-012
  -2.5899999999999999E-002     1.4757524529543376E-012
  -2.5849999999999998E-002     1.6775032950023645E-012
  -2.5800000000000000E-002     1.6980699894643955E-012
  -2.5750000000000002E-002     1.4408100660225259E-012
  -2.5700000000000001E-002     8.3322898922337456E-013
  -2.5649999999999999E-002    -1.5251067925884592E-013
  -2.5599999999999998E-002    -1.4826879433532302E-012
  -2.5550000000000000E-002    -3.0521935597450776E-012
  -2.5500000000000002E-002    -4.6846891711894336E-012
  -2.5450000000000000E-002    -6.1445461259533150E-012
  -2.5399999999999999E-002    -7.1607299898783974E-012
  -2.5349999999999998E-002    -7.4608264154462648E-012
  -2.5300000000000000E-002    -6.8114030313962015E-012
  -2.5250000000000002E-002    -5.0592802752505925E-012
  -2.5200000000000000E-002    -2.1674574657739254E-012
  -2.5149999999999999E-002     1.7603012462239787E-012
  -2.5100000000000001E-002     6.4707235534001103E-012
  -2.5049999999999999E-002     1.1570114430633450E-011
  -2.5000000000000001E-002     1.6550177130545672E-011
  -2.4950000000000000E-002     2.0826438257251309E-011
  -2.4899999999999999E-002     2.3782919492148062E-011
  -2.4850000000000001E-002     2.4815754361851118E-011
  -2.4800000000000003E-002     2.3369073806733361E-011
  -2.4750000000000001E-002     1.8958617684370401E-011
  -2.4700000000000000E-002     1.1181490293928072E-011
  -2.4649999999999998E-002    -2.8612516328823057E-013
  -2.4600000000000000E-002    -1.5698845302198075E-011
  -2.4550000000000002E-002    -3.5253482738846617E-011
  -2.4500000000000001E-002    -5.9095912140468568E-011
  -2.4450000000000000E-002    -8.7318944521055156E-011
  -2.4399999999999998E-002    -1.1994942073309922E-010
  -2.4350000000000000E-002    -1.5692602208385183E-010
  -2.4299999999999999E-002    -1.9807252918489097E-010
  -2.4250000000000001E-002    -2.4307320664974285E-010
  -2.4199999999999999E-002    -2.9145794762404437E-010
  -2.4150000000000001E-002    -3.4260425393989046E-010
  -2.4100000000000000E-002    -3.9575967780505878E-010
  -2.4049999999999998E-002    -4.5008633552382821E-010
  -2.4000000000000000E-002    -5.0472371533498416E-010
  -2.3949999999999999E-002    -5.5886276188730952E-010
  -2.3900000000000001E-002    -6.1182238654149909E-010
  -2.3850000000000000E-002    -6.6311633488867875E-010
  -2.3800000000000002E-002    -7.1250154556468408E-010
  -2.3750000000000000E-002    -7.5999929969974837E-010
  -2.3699999999999999E-002    -8.0588558332001838E-010
  -2.3650000000000001E-002    -8.5065031501485928E-010
  -2.3599999999999999E-002    -8.9493065280249860E-010
  -2.3550000000000001E-002    -9.3942570981537541E-010
  -2.3500000000000000E-002    -9.8480499531022393E-010
  -2.3449999999999999E-002    -1.0316208755971174E-009
  -2.3400000000000001E-002    -1.0802388762581275E-009
  -2.3349999999999999E-002    -1.1307951431051679E-009
  -2.3300000000000001E-002    -1.1831875589952243E-009
  -2.3250000000000000E-002    -1.2371039504397174E-009
  -2.3199999999999998E-002    -1.2920826671834430E-009
  -2.3150000000000000E-002    -1.3475977404642366E-009
  -2.3099999999999999E-002    -1.4031561989131769E-009
  -2.3050000000000001E-002    -1.4583906399625526E-009
  -2.3000000000000000E-002    -1.5131332500771316E-009
  -2.2950000000000002E-002    -1.5674569200693589E-009
  -2.2900000000000000E-002    -1.6216774700800527E-009
  -2.2849999999999999E-002    -1.6763170805516245E-009
  -2.2800000000000001E-002    -1.7320339723468292E-009
  -2.2749999999999999E-002    -1.7895318853872354E-009
  -2.2700000000000001E-002    -1.8494632105146581E-009
  -2.2650000000000000E-002    -1.9123422332499499E-009
  -2.2599999999999999E-002    -1.9784819157461789E-009
  -2.2550000000000001E-002    -2.0479638313307995E-009
  -2.2499999999999999E-002    -2.1206443200425920E-009
  -2.2450000000000001E-002    -2.1961964345927991E-009
  -2.2400000000000000E-002    -2.2741775008717943E-009
  -2.2349999999999998E-002    -2.3541126907579411E-009
  -2.2300000000000000E-002    -2.4355784428590870E-009
  -2.2249999999999999E-002    -2.5182690552164346E-009
  -2.2200000000000001E-002    -2.6020333516376751E-009
  -2.2150000000000000E-002    -2.6868757788820898E-009
  -2.2100000000000002E-002    -2.7729234985488579E-009
  -2.2050000000000000E-002    -2.8603680877719564E-009
  -2.1999999999999999E-002    -2.9494042741064926E-009
  -2.1950000000000001E-002    -3.0401812624677742E-009
  -2.1899999999999999E-002    -3.1327902061187997E-009
  -2.1850000000000001E-002    -3.2272883768840282E-009
  -2.1800000000000000E-002    -3.3237580301541644E-009
  -2.1749999999999999E-002    -3.4223763832693564E-009
  -2.1700000000000001E-002    -3.5234733731829165E-009
  -2.1649999999999999E-002    -3.6275491890461994E-009
  -2.1600000000000001E-002    -3.7352371726505903E-009
  -2.1550000000000000E-002    -3.8472170836263181E-009
  -2.1499999999999998E-002    -3.9640980962555136E-009
  -2.1450000000000000E-002    -4.0863014265546296E-009
  -2.1399999999999999E-002    -4.2139773453380481E-009
  -2.1350000000000001E-002    -4.3469797464668504E-009
  -2.1299999999999999E-002    -4.4848990872847941E-009
  -2.1250000000000002E-002    -4.6271417374767307E-009
  -2.1200000000000000E-002    -4.7730290500491346E-009
  -2.1149999999999999E-002    -4.9218900912774862E-009
  -2.1100000000000001E-002    -5.0731288752821235E-009
  -2.1049999999999999E-002    -5.2262684491450835E-009
  -2.1000000000000001E-002    -5.3809803478016036E-009
  -2.0950000000000000E-002    -5.5371232805616434E-009
  -2.0899999999999998E-002    -5.6947946540318311E-009
  -2.0850000000000000E-002    -5.8543950585086528E-009
  -2.0799999999999999E-002    -6.0166779736105894E-009
  -2.0750000000000001E-002    -6.1827537210922924E-009
  -2.0700000000000000E-002    -6.3540159469452843E-009
  -2.0649999999999998E-002    -6.5319799583370380E-009
  -2.0600000000000000E-002    -6.7180561820889216E-009
  -2.0549999999999999E-002    -6.9133049515588244E-009
  -2.0500000000000001E-002    -7.1182391225005383E-009
  -2.0449999999999999E-002    -7.3327282824404557E-009
  -2.0400000000000001E-002    -7.5560434772419789E-009
  -2.0350000000000000E-002    -7.7870254077285424E-009
  -2.0299999999999999E-002    -8.0243397392915592E-009
  -2.0250000000000001E-002    -8.2667465543370055E-009
  -2.0199999999999999E-002    -8.5133149645517367E-009
  -2.0150000000000001E-002    -8.7635460083770077E-009
  -2.0100000000000000E-002    -9.0173837168597049E-009
  -2.0049999999999998E-002    -9.2751441028267590E-009
  -2.0000000000000000E-002    -9.5374046326267343E-009
  -1.9949999999999999E-002    -9.8048912466523438E-009
  -1.9900000000000001E-002    -1.0078392941855065E-008
  -1.9850000000000000E-002    -1.0358712441511054E-008
  -1.9799999999999998E-002    -1.0646626019620457E-008
  -1.9750000000000000E-002    -1.0942852672534449E-008
  -1.9699999999999999E-002    -1.1248006001263223E-008
  -1.9650000000000001E-002    -1.1562558120192690E-008
  -1.9599999999999999E-002    -1.1886819918263315E-008
  -1.9550000000000001E-002    -1.2220965639966258E-008
  -1.9500000000000000E-002    -1.2565111038955653E-008
  -1.9449999999999999E-002    -1.2919409052017403E-008
  -1.9400000000000001E-002    -1.3284135002710324E-008
  -1.9349999999999999E-002    -1.3659709466004238E-008
  -1.9300000000000001E-002    -1.4046640584602370E-008
  -1.9250000000000000E-002    -1.4445380171028204E-008
  -1.9199999999999998E-002    -1.4856160129977258E-008
  -1.9150000000000000E-002    -1.5278866061469112E-008
  -1.9099999999999999E-002    -1.5713007399799871E-008
  -1.9050000000000001E-002    -1.6157829509829621E-008
  -1.9000000000000000E-002    -1.6612543125347252E-008
  -1.8949999999999998E-002    -1.7076582054299431E-008
  -1.8900000000000000E-002    -1.7549823991497217E-008
  -1.8849999999999999E-002    -1.8032689925791404E-008
  -1.8800000000000001E-002    -1.8526083465492822E-008
  -1.8749999999999999E-002    -1.9031194014442430E-008
  -1.8700000000000001E-002    -1.9549273753909536E-008
  -1.8650000000000000E-002    -2.0081435917572087E-008
  -1.8599999999999998E-002    -2.0628574301860128E-008
  -1.8550000000000001E-002    -2.1191401580393318E-008
  -1.8499999999999999E-002    -2.1770544952698144E-008
  -1.8450000000000001E-002    -2.2366637601437747E-008
  -1.8400000000000000E-002    -2.2980308745488725E-008
  -1.8349999999999998E-002    -2.3612048249614864E-008
  -1.8300000000000000E-002    -2.4261997433140960E-008
  -1.8249999999999999E-002    -2.4929754120805073E-008
  -1.8200000000000001E-002    -2.5614309234629793E-008
  -1.8149999999999999E-002    -2.6314207330549227E-008
  -1.8100000000000002E-002    -2.7027920383012850E-008
  -1.8050000000000000E-002    -2.7754353161968037E-008
  -1.7999999999999999E-002    -2.8493301756309937E-008
  -1.7950000000000001E-002    -2.9245723339109813E-008
  -1.7899999999999999E-002    -3.0013696033929965E-008
  -1.7850000000000001E-002    -3.0800053347164558E-008
  -1.7800000000000000E-002    -3.1607824502900518E-008
  -1.7749999999999998E-002    -3.2439649600258906E-008
  -1.7700000000000000E-002    -3.3297340882346862E-008
  -1.7649999999999999E-002    -3.4181759012140597E-008
  -1.7600000000000001E-002    -3.5092951749250898E-008
  -1.7550000000000000E-002    -3.6030530352899710E-008
  -1.7499999999999998E-002    -3.6994041150788345E-008
  -1.7450000000000000E-002    -3.7983260050919895E-008
  -1.7399999999999999E-002    -3.8998253003883111E-008
  -1.7350000000000001E-002    -4.0039264561997841E-008
  -1.7299999999999999E-002    -4.1106471637654190E-008
  -1.7250000000000001E-002    -4.2199826231374472E-008
  -1.7200000000000000E-002    -4.3319018023227064E-008
  -1.7149999999999999E-002    -4.4463610342025441E-008
  -1.7100000000000001E-002    -4.5633333265061120E-008
  -1.7049999999999999E-002    -4.6828299445611116E-008
  -1.7000000000000001E-002    -4.8049157766694105E-008
  -1.6950000000000000E-002    -4.9296987937037530E-008
  -1.6899999999999998E-002    -5.0573044477764983E-008
  -1.6850000000000000E-002    -5.1878444975957654E-008
  -1.6799999999999999E-002    -5.3213920414384641E-008
  -1.6750000000000001E-002    -5.4579762851082043E-008
  -1.6700000000000000E-002    -5.5975992735397243E-008
  -1.6649999999999998E-002    -5.7402708302575773E-008
  -1.6600000000000000E-002    -5.8860398824244664E-008
  -1.6549999999999999E-002    -6.0350151836588170E-008
  -1.6500000000000001E-002    -6.1873615950932664E-008
  -1.6449999999999999E-002    -6.3432708016745056E-008
  -1.6400000000000001E-002    -6.5029251695862478E-008
  -1.6350000000000000E-002    -6.6664627210725325E-008
  -1.6299999999999999E-002    -6.8339568121792124E-008
  -1.6250000000000001E-002    -7.0054270237235492E-008
  -1.6199999999999999E-002    -7.1808726579212290E-008
  -1.6150000000000001E-002    -7.3603115879016879E-008
  -1.6100000000000000E-002    -7.5438172217975014E-008
  -1.6049999999999998E-002    -7.7315343743885988E-008
  -1.6000000000000000E-002    -7.9236685098691719E-008
  -1.5949999999999999E-002    -8.1204642138932174E-008
  -1.5900000000000001E-002    -8.3221687807316080E-008
  -1.5850000000000000E-002    -8.5290137998257192E-008
  -1.5799999999999998E-002    -8.7412013738706350E-008
  -1.5750000000000000E-002    -8.9589153084401508E-008
  -1.5699999999999999E-002    -9.1823307000869694E-008
  -1.5650000000000001E-002    -9.4116174613823736E-008
  -1.5599999999999999E-002    -9.6469325657994109E-008
  -1.5550000000000001E-002    -9.8883866574912235E-008
  -1.5500000000000000E-002    -1.0136011394139975E-007
  -1.5449999999999998E-002    -1.0389727197679265E-007
  -1.5400000000000000E-002    -1.0649337840584155E-007
  -1.5349999999999999E-002    -1.0914551088600120E-007
  -1.5300000000000001E-002    -1.1185036038253803E-007
  -1.5250000000000000E-002    -1.1460491281007029E-007
  -1.5199999999999998E-002    -1.1740713959534521E-007
  -1.5150000000000000E-002    -1.2025645922099080E-007
  -1.5099999999999999E-002    -1.2315383240827223E-007
  -1.5050000000000001E-002    -1.2610153063831068E-007
  -1.4999999999999999E-002    -1.2910268419168547E-007
  -1.4949999999999998E-002    -1.3216066548334391E-007
  -1.4900000000000000E-002    -1.3527862637599512E-007
  -1.4849999999999999E-002    -1.3845928008909502E-007
  -1.4800000000000001E-002    -1.4170481904629831E-007
  -1.4749999999999999E-002    -1.4501709311266796E-007
  -1.4700000000000001E-002    -1.4839780737123547E-007
  -1.4650000000000000E-002    -1.5184878029833548E-007
  -1.4599999999999998E-002    -1.5537196534163277E-007
  -1.4550000000000000E-002    -1.5896955037937135E-007
  -1.4499999999999999E-002    -1.6264390206845080E-007
  -1.4450000000000001E-002    -1.6639753511577303E-007
  -1.4400000000000000E-002    -1.7023314017156636E-007
  -1.4349999999999998E-002    -1.7415366791161058E-007
  -1.4300000000000000E-002    -1.7816250369511087E-007
  -1.4249999999999999E-002    -1.8226348013933998E-007
  -1.4200000000000001E-002    -1.8646086130410073E-007
  -1.4149999999999999E-002    -1.9075933374057291E-007
  -1.4099999999999998E-002    -1.9516378816378214E-007
  -1.4050000000000000E-002    -1.9967899908245910E-007
  -1.3999999999999999E-002    -2.0430938607908379E-007
  -1.3950000000000001E-002    -2.0905873096830299E-007
  -1.3899999999999999E-002    -2.1392987593441769E-007
  -1.3850000000000001E-002    -2.1892450888220371E-007
  -1.3800000000000000E-002    -2.2404302966673006E-007
  -1.3749999999999998E-002    -2.2928453089794600E-007
  -1.3700000000000000E-002    -2.3464684197733917E-007
  -1.3649999999999999E-002    -2.4012684970383856E-007
  -1.3600000000000001E-002    -2.4572067091202520E-007
  -1.3550000000000000E-002    -2.5142416664265775E-007
  -1.3499999999999998E-002    -2.5723316346221261E-007
  -1.3450000000000000E-002    -2.6314366255404251E-007
  -1.3399999999999999E-002    -2.6915201650064042E-007
  -1.3350000000000001E-002    -2.7525499030212196E-007
  -1.3299999999999999E-002    -2.8144963327985001E-007
  -1.3249999999999998E-002    -2.8773337610539151E-007
  -1.3200000000000000E-002    -2.9410418776935761E-007
  -1.3149999999999998E-002    -3.0056072115985678E-007
  -1.3100000000000001E-002    -3.0710274590110266E-007
  -1.3049999999999999E-002    -3.1373127430175481E-007
  -1.3000000000000001E-002    -3.2044868546499995E-007
  -1.2950000000000000E-002    -3.2725860977443451E-007
  -1.2899999999999998E-002    -3.3416533183166754E-007
  -1.2850000000000000E-002    -3.4117305452574244E-007
  -1.2799999999999999E-002    -3.4828539867392619E-007