  -4.0000000000000001E-002     0.0000000000000000     
  -3.9949999999999999E-002     0.0000000000000000     
  -3.9899999999999998E-002     0.0000000000000000     
  -3.9850000000000003E-002     0.0000000000000000     
  -3.9800000000000002E-002     0.0000000000000000     
  -3.9750000000000001E-002     0.0000000000000000     
  -3.9699999999999999E-002     0.0000000000000000     
  -3.9649999999999998E-002     0.0000000000000000     
  -3.9600000000000003E-002     0.0000000000000000     
  -3.9550000000000002E-002     0.0000000000000000     
  -3.9500000000000000E-002     0.0000000000000000     
  -3.9449999999999999E-002     0.0000000000000000     
  -3.9399999999999998E-002     0.0000000000000000     
  -3.9350000000000003E-002     0.0000000000000000     
  -3.9300000000000002E-002     0.0000000000000000     
  -3.9250000000000000E-002     0.0000000000000000     
  -3.9199999999999999E-002     0.0000000000000000     
  -3.9150000000000004E-002     0.0000000000000000     
  -3.9100000000000003E-002     0.0000000000000000     
  -3.9050000000000001E-002     0.0000000000000000     
  -3.9000000000000000E-002     0.0000000000000000     
  -3.8949999999999999E-002     0.0000000000000000     
  -3.8900000000000004E-002     0.0000000000000000     
  -3.8850000000000003E-002     0.0000000000000000     
  -3.8800000000000001E-002     0.0000000000000000     
  -3.8750000000000000E-002     0.0000000000000000     
  -3.8699999999999998E-002     0.0000000000000000     
  -3.8650000000000004E-002     0.0000000000000000     
  -3.8600000000000002E-002     0.0000000000000000     
  -3.8550000000000001E-002     0.0000000000000000     
  -3.8500000000000000E-002     0.0000000000000000     
  -3.8449999999999998E-002     0.0000000000000000     
  -3.8400000000000004E-002     0.0000000000000000     
  -3.8350000000000002E-002     0.0000000000000000     
  -3.8300000000000001E-002     0.0000000000000000     
  -3.8249999999999999E-002     0.0000000000000000     
  -3.8199999999999998E-002     0.0000000000000000     
  -3.8150000000000003E-002     0.0000000000000000     
  -3.8100000000000002E-002     0.0000000000000000     
  -3.8050000000000000E-002     0.0000000000000000     
  -3.7999999999999999E-002     0.0000000000000000     
  -3.7949999999999998E-002     0.0000000000000000     
  -3.7900000000000003E-002     0.0000000000000000     
  -3.7850000000000002E-002     0.0000000000000000     
  -3.7800000000000000E-002     0.0000000000000000     
  -3.7749999999999999E-002     0.0000000000000000     
  -3.7699999999999997E-002     0.0000000000000000     
  -3.7650000000000003E-002     0.0000000000000000     
  -3.7600000000000001E-002     0.0000000000000000     
  -3.7550000000000000E-002     0.0000000000000000     
  -3.7499999999999999E-002     0.0000000000000000     
  -3.7449999999999997E-002     0.0000000000000000     
  -3.7400000000000003E-002     0.0000000000000000     
  -3.7350000000000001E-002     0.0000000000000000     
  -3.7300000000000000E-002     0.0000000000000000     
  -3.7249999999999998E-002     0.0000000000000000     
  -3.7200000000000004E-002     0.0000000000000000     
  -3.7150000000000002E-002     0.0000000000000000     
  -3.7100000000000001E-002     0.0000000000000000     
  -3.7050000000000000E-002     0.0000000000000000     
  -3.6999999999999998E-002     0.0000000000000000     
  -3.6950000000000004E-002     0.0000000000000000     
  -3.6900000000000002E-002     0.0000000000000000     
  -3.6850000000000001E-002     0.0000000000000000     
  -3.6799999999999999E-002     0.0000000000000000     
  -3.6749999999999998E-002     0.0000000000000000     
  -3.6700000000000003E-002     0.0000000000000000     
  -3.6650000000000002E-002     0.0000000000000000     
  -3.6600000000000001E-002     0.0000000000000000     
  -3.6549999999999999E-002     0.0000000000000000     
  -3.6499999999999998E-002     0.0000000000000000     
  -3.6450000000000003E-002     0.0000000000000000     
  -3.6400000000000002E-002     0.0000000000000000     
  -3.6350000000000000E-002     0.0000000000000000     
  -3.6299999999999999E-002     0.0000000000000000     
  -3.6249999999999998E-002     0.0000000000000000     
  -3.6200000000000003E-002     0.0000000000000000     
  -3.6150000000000002E-002     0.0000000000000000     
  -3.6100000000000000E-002     0.0000000000000000     
  -3.6049999999999999E-002     0.0000000000000000     
  -3.6000000000000004E-002     0.0000000000000000     
  -3.5950000000000003E-002     0.0000000000000000     
  -3.5900000000000001E-002     0.0000000000000000     
  -3.5850000000000000E-002     0.0000000000000000     
  -3.5799999999999998E-002     0.0000000000000000     
  -3.5750000000000004E-002     0.0000000000000000     
  -3.5700000000000003E-002     0.0000000000000000     
  -3.5650000000000001E-002     0.0000000000000000     
  -3.5600000000000000E-002     0.0000000000000000     
  -3.5549999999999998E-002     0.0000000000000000     
  -3.5500000000000004E-002     0.0000000000000000     
  -3.5450000000000002E-002     0.0000000000000000     
  -3.5400000000000001E-002     0.0000000000000000     
  -3.5349999999999999E-002     0.0000000000000000     
  -3.5299999999999998E-002     0.0000000000000000     
  -3.5250000000000004E-002     0.0000000000000000     
  -3.5200000000000002E-002     0.0000000000000000     
  -3.5150000000000001E-002     0.0000000000000000     
  -3.5099999999999999E-002     0.0000000000000000     
  -3.5049999999999998E-002     0.0000000000000000     
  -3.5000000000000003E-002     0.0000000000000000     
  -3.4950000000000002E-002     0.0000000000000000     
  -3.4900000000000000E-002     0.0000000000000000     
  -3.4849999999999999E-002     0.0000000000000000     
  -3.4799999999999998E-002     0.0000000000000000     
  -3.4750000000000003E-002     0.0000000000000000     
  -3.4700000000000002E-002     0.0000000000000000     
  -3.4650000000000000E-002     0.0000000000000000     
  -3.4599999999999999E-002     0.0000000000000000     
  -3.4549999999999997E-002     0.0000000000000000     
  -3.4500000000000003E-002     0.0000000000000000     
  -3.4450000000000001E-002     0.0000000000000000     
  -3.4400000000000000E-002     0.0000000000000000     
  -3.4349999999999999E-002     0.0000000000000000     
  -3.4299999999999997E-002     0.0000000000000000     
  -3.4250000000000003E-002     0.0000000000000000     
  -3.4200000000000001E-002     0.0000000000000000     
  -3.4150000000000000E-002     0.0000000000000000     
  -3.4099999999999998E-002     0.0000000000000000     
  -3.4049999999999997E-002     0.0000000000000000     
  -3.4000000000000002E-002     0.0000000000000000     
  -3.3950000000000001E-002     0.0000000000000000     
  -3.3900000000000000E-002     0.0000000000000000     
  -3.3849999999999998E-002     0.0000000000000000     
  -3.3799999999999997E-002     0.0000000000000000     
  -3.3750000000000002E-002     0.0000000000000000     
  -3.3700000000000001E-002     0.0000000000000000     
  -3.3649999999999999E-002     0.0000000000000000     
  -3.3599999999999998E-002     0.0000000000000000     
  -3.3550000000000003E-002     0.0000000000000000     
  -3.3500000000000002E-002     0.0000000000000000     
  -3.3450000000000001E-002     0.0000000000000000     
  -3.3399999999999999E-002     0.0000000000000000     
  -3.3349999999999998E-002     0.0000000000000000     
  -3.3300000000000003E-002     0.0000000000000000     
  -3.3250000000000002E-002     0.0000000000000000     
  -3.3200000000000000E-002     0.0000000000000000     
  -3.3149999999999999E-002     0.0000000000000000     
  -3.3099999999999997E-002     0.0000000000000000     
  -3.3050000000000003E-002     0.0000000000000000     
  -3.3000000000000002E-002     0.0000000000000000     
  -3.2950000000000000E-002     0.0000000000000000     
  -3.2899999999999999E-002     0.0000000000000000     
  -3.2850000000000004E-002     0.0000000000000000     
  -3.2800000000000003E-002     0.0000000000000000     
  -3.2750000000000001E-002     0.0000000000000000     
  -3.2700000000000000E-002     0.0000000000000000     
  -3.2649999999999998E-002     0.0000000000000000     
  -3.2600000000000004E-002     0.0000000000000000     
  -3.2550000000000003E-002     0.0000000000000000     
  -3.2500000000000001E-002     0.0000000000000000     
  -3.2450000000000000E-002     0.0000000000000000     
  -3.2399999999999998E-002     0.0000000000000000     
  -3.2350000000000004E-002     0.0000000000000000     
  -3.2300000000000002E-002     0.0000000000000000     
  -3.2250000000000001E-002     0.0000000000000000     
  -3.2199999999999999E-002     0.0000000000000000     
  -3.2149999999999998E-002     0.0000000000000000     
  -3.2100000000000004E-002     0.0000000000000000     
  -3.2050000000000002E-002     0.0000000000000000     
  -3.2000000000000001E-002     0.0000000000000000     
  -3.1949999999999999E-002     0.0000000000000000     
  -3.1899999999999998E-002     0.0000000000000000     
  -3.1850000000000003E-002     0.0000000000000000     
  -3.1800000000000002E-002     0.0000000000000000     
  -3.1750000000000000E-002     0.0000000000000000     
  -3.1699999999999999E-002     0.0000000000000000     
  -3.1649999999999998E-002     0.0000000000000000     
  -3.1600000000000003E-002     0.0000000000000000     
  -3.1550000000000002E-002     0.0000000000000000     
  -3.1500000000000000E-002     0.0000000000000000     
  -3.1449999999999999E-002     0.0000000000000000     
  -3.1399999999999997E-002     0.0000000000000000     
  -3.1350000000000003E-002     0.0000000000000000     
  -3.1300000000000001E-002     0.0000000000000000     
  -3.1250000000000000E-002     0.0000000000000000     
  -3.1199999999999999E-002     0.0000000000000000     
  -3.1150000000000001E-002     0.0000000000000000     
  -3.1100000000000003E-002     0.0000000000000000     
  -3.1050000000000001E-002     0.0000000000000000     
  -3.1000000000000000E-002     0.0000000000000000     
  -3.0949999999999998E-002     0.0000000000000000     
  -3.0900000000000000E-002     0.0000000000000000     
  -3.0850000000000002E-002     0.0000000000000000     
  -3.0800000000000001E-002     0.0000000000000000     
  -3.0750000000000000E-002     0.0000000000000000     
  -3.0699999999999998E-002     0.0000000000000000     
  -3.0650000000000000E-002     0.0000000000000000     
  -3.0600000000000002E-002     0.0000000000000000     
  -3.0550000000000001E-002     0.0000000000000000     
  -3.0499999999999999E-002     0.0000000000000000     
  -3.0449999999999998E-002     0.0000000000000000     
  -3.0400000000000000E-002     0.0000000000000000     
  -3.0350000000000002E-002     0.0000000000000000     
  -3.0300000000000001E-002     0.0000000000000000     
  -3.0249999999999999E-002     0.0000000000000000     
  -3.0200000000000001E-002     0.0000000000000000     
  -3.0150000000000000E-002     0.0000000000000000     
  -3.0100000000000002E-002     0.0000000000000000     
  -3.0050000000000000E-002     0.0000000000000000     
  -2.9999999999999999E-002     0.0000000000000000     
  -2.9950000000000001E-002     0.0000000000000000     
  -2.9899999999999999E-002     0.0000000000000000     
  -2.9850000000000002E-002     0.0000000000000000     
  -2.9800000000000000E-002     0.0000000000000000     
  -2.9749999999999999E-002     0.0000000000000000     
  -2.9700000000000001E-002     0.0000000000000000     
  -2.9650000000000003E-002     0.0000000000000000     
  -2.9600000000000001E-002     0.0000000000000000     
  -2.9550000000000000E-002     0.0000000000000000     
  -2.9499999999999998E-002     0.0000000000000000     
  -2.9450000000000000E-002     0.0000000000000000     
  -2.9400000000000003E-002     0.0000000000000000     
  -2.9350000000000001E-002     0.0000000000000000     
  -2.9300000000000000E-002     0.0000000000000000     
  -2.9249999999999998E-002     0.0000000000000000     
  -2.9200000000000000E-002     0.0000000000000000     
  -2.9150000000000002E-002     0.0000000000000000     
  -2.9100000000000001E-002     0.0000000000000000     
  -2.9049999999999999E-002     0.0000000000000000     
  -2.8999999999999998E-002     0.0000000000000000     
  -2.8950000000000000E-002     0.0000000000000000     
  -2.8900000000000002E-002     0.0000000000000000     
  -2.8850000000000001E-002     0.0000000000000000     
  -2.8799999999999999E-002     0.0000000000000000     
  -2.8749999999999998E-002     0.0000000000000000     
  -2.8700000000000000E-002     0.0000000000000000     
  -2.8650000000000002E-002     0.0000000000000000     
  -2.8600000000000000E-002     0.0000000000000000     
  -2.8549999999999999E-002     0.0000000000000000     
  -2.8500000000000001E-002     0.0000000000000000     
  -2.8450000000000000E-002     0.0000000000000000     
  -2.8400000000000002E-002     0.0000000000000000     
  -2.8350000000000000E-002     0.0000000000000000     
  -2.8299999999999999E-002     0.0000000000000000     
  -2.8250000000000001E-002     0.0000000000000000     
  -2.8200000000000003E-002     0.0000000000000000     
  -2.8150000000000001E-002     0.0000000000000000     
  -2.8100000000000000E-002     0.0000000000000000     
  -2.8049999999999999E-002     0.0000000000000000     
  -2.8000000000000001E-002     0.0000000000000000     
  -2.7950000000000003E-002     0.0000000000000000     
  -2.7900000000000001E-002     0.0000000000000000     
  -2.7850000000000000E-002     0.0000000000000000     
  -2.7799999999999998E-002     0.0000000000000000     
  -2.7750000000000000E-002     0.0000000000000000     
  -2.7700000000000002E-002     0.0000000000000000     
  -2.7650000000000001E-002     0.0000000000000000     
  -2.7600000000000000E-002     0.0000000000000000     
  -2.7549999999999998E-002     0.0000000000000000     
  -2.7500000000000000E-002     0.0000000000000000     
  -2.7450000000000002E-002     0.0000000000000000     
  -2.7400000000000001E-002     0.0000000000000000     
  -2.7349999999999999E-002     0.0000000000000000     
  -2.7299999999999998E-002     0.0000000000000000     
  -2.7250000000000000E-002     0.0000000000000000     
  -2.7200000000000002E-002     0.0000000000000000     
  -2.7150000000000001E-002     0.0000000000000000     
  -2.7099999999999999E-002     0.0000000000000000     
  -2.7049999999999998E-002     0.0000000000000000     
  -2.7000000000000000E-002     0.0000000000000000     
  -2.6950000000000002E-002     0.0000000000000000     
  -2.6900000000000000E-002     0.0000000000000000     
  -2.6849999999999999E-002     0.0000000000000000     
  -2.6800000000000001E-002     0.0000000000000000     
  -2.6749999999999999E-002     0.0000000000000000     
  -2.6700000000000002E-002     0.0000000000000000     
  -2.6650000000000000E-002     0.0000000000000000     
  -2.6599999999999999E-002     0.0000000000000000     
  -2.6550000000000001E-002     0.0000000000000000     
  -2.6500000000000003E-002     0.0000000000000000     
  -2.6450000000000001E-002     0.0000000000000000     
  -2.6400000000000000E-002     0.0000000000000000     
  -2.6349999999999998E-002     0.0000000000000000     
  -2.6300000000000000E-002     0.0000000000000000     
  -2.6250000000000002E-002     0.0000000000000000     
  -2.6200000000000001E-002     0.0000000000000000     
  -2.6150000000000000E-002     0.0000000000000000     
  -2.6099999999999998E-002     0.0000000000000000     
  -2.6050000000000000E-002     0.0000000000000000     
  -2.6000000000000002E-002     0.0000000000000000     
  -2.5950000000000001E-002     0.0000000000000000     
  -2.5899999999999999E-002     0.0000000000000000     
  -2.5849999999999998E-002     0.0000000000000000     
  -2.5800000000000000E-002     0.0000000000000000     
  -2.5750000000000002E-002     0.0000000000000000     
  -2.5700000000000001E-002     0.0000000000000000     
  -2.5649999999999999E-002     0.0000000000000000     
  -2.5599999999999998E-002     0.0000000000000000     
  -2.5550000000000000E-002     0.0000000000000000     
  -2.5500000000000002E-002     0.0000000000000000     
  -2.5450000000000000E-002     0.0000000000000000     
  -2.5399999999999999E-002     0.0000000000000000     
  -2.5349999999999998E-002     0.0000000000000000     
  -2.5300000000000000E-002     0.0000000000000000     
  -2.5250000000000002E-002     0.0000000000000000     
  -2.5200000000000000E-002     0.0000000000000000     
  -2.5149999999999999E-002     0.0000000000000000     
  -2.5100000000000001E-002     0.0000000000000000     
  -2.5049999999999999E-002     0.0000000000000000     
  -2.5000000000000001E-002     0.0000000000000000     
  -2.4950000000000000E-002     0.0000000000000000     
  -2.4899999999999999E-002     0.0000000000000000     
  -2.4850000000000001E-002     0.0000000000000000     
  -2.4800000000000003E-002     0.0000000000000000     
  -2.4750000000000001E-002     0.0000000000000000     
  -2.4700000000000000E-002     0.0000000000000000     
  -2.4649999999999998E-002     0.0000000000000000     
  -2.4600000000000000E-002     0.0000000000000000     
  -2.4550000000000002E-002     0.0000000000000000     
  -2.4500000000000001E-002     0.0000000000000000     
  -2.4450000000000000E-002     0.0000000000000000     
  -2.4399999999999998E-002     0.0000000000000000     
  -2.4350000000000000E-002     0.0000000000000000     
  -2.4299999999999999E-002     0.0000000000000000     
  -2.4250000000000001E-002     0.0000000000000000     
  -2.4199999999999999E-002     0.0000000000000000     
  -2.4150000000000001E-002     0.0000000000000000     
  -2.4100000000000000E-002     0.0000000000000000     
  -2.4049999999999998E-002     0.0000000000000000     
  -2.4000000000000000E-002     0.0000000000000000     
  -2.3949999999999999E-002     0.0000000000000000     
  -2.3900000000000001E-002     0.0000000000000000     
  -2.3850000000000000E-002     0.0000000000000000     
  -2.3800000000000002E-002     0.0000000000000000     
  -2.3750000000000000E-002     0.0000000000000000     
  -2.3699999999999999E-002     0.0000000000000000     
  -2.3650000000000001E-002     0.0000000000000000     
  -2.3599999999999999E-002     0.0000000000000000     
  -2.3550000000000001E-002     0.0000000000000000     
  -2.3500000000000000E-002     0.0000000000000000     
  -2.3449999999999999E-002     0.0000000000000000     
  -2.3400000000000001E-002     0.0000000000000000     
  -2.3349999999999999E-002     0.0000000000000000     
  -2.3300000000000001E-002     0.0000000000000000     
  -2.3250000000000000E-002     0.0000000000000000     
  -2.3199999999999998E-002     0.0000000000000000     
  -2.3150000000000000E-002     0.0000000000000000     
  -2.3099999999999999E-002     0.0000000000000000     
  -2.3050000000000001E-002     0.0000000000000000     
  -2.3000000000000000E-002     0.0000000000000000     
  -2.2950000000000002E-002     0.0000000000000000     
  -2.2900000000000000E-002     0.0000000000000000     
  -2.2849999999999999E-002     0.0000000000000000     
  -2.2800000000000001E-002     0.0000000000000000     
  -2.2749999999999999E-002     0.0000000000000000     
  -2.2700000000000001E-002     0.0000000000000000     
  -2.2650000000000000E-002     0.0000000000000000     
  -2.2599999999999999E-002     0.0000000000000000     
  -2.2550000000000001E-002     0.0000000000000000     
  -2.2499999999999999E-002     0.0000000000000000     
  -2.2450000000000001E-002     0.0000000000000000     
  -2.2400000000000000E-002     0.0000000000000000     
  -2.2349999999999998E-002     0.0000000000000000     
  -2.2300000000000000E-002     0.0000000000000000     
  -2.2249999999999999E-002     0.0000000000000000     
  -2.2200000000000001E-002     0.0000000000000000     
  -2.2150000000000000E-002     0.0000000000000000     
  -2.2100000000000002E-002     0.0000000000000000     
  -2.2050000000000000E-002     0.0000000000000000     
  -2.1999999999999999E-002     0.0000000000000000     
  -2.1950000000000001E-002     0.0000000000000000     
  -2.1899999999999999E-002     0.0000000000000000     
  -2.1850000000000001E-002     2.1669721973704686E-040
  -2.1800000000000000E-002     4.4880588427256629E-040
  -2.1749999999999999E-002     4.4880588427256629E-040
  -2.1700000000000001E-002    -2.1925473273761682E-040
  -2.1649999999999999E-002    -9.0920213486962057E-040
  -2.1600000000000001E-002    -1.7558626071375961E-039
  -2.1550000000000000E-002    -2.0181133891798329E-039
  -2.1499999999999998E-002    -1.3319823966155042E-039
  -2.1450000000000000E-002     4.6130853211477410E-040
  -2.1399999999999999E-002     1.9764544092763868E-038
  -2.1350000000000001E-002     4.1160363087450914E-038
  -2.1299999999999999E-002     5.4006050175945044E-038
  -2.1250000000000002E-002     5.3346425270529372E-038
  -2.1200000000000000E-002     2.5474961281301213E-038
  -2.1149999999999999E-002    -1.9979866660960180E-038
  -2.1100000000000001E-002    -7.1738540873606873E-038
  -2.1049999999999999E-002    -1.1675909106396393E-037
  -2.1000000000000001E-002    -1.4461225554098643E-037
  -2.0950000000000000E-002    -1.3198293172914686E-037
  -2.0899999999999998E-002    -7.3135772591887507E-038
  -2.0850000000000000E-002     4.4565692425677031E-038
  -2.0799999999999999E-002     2.1681790760893485E-037
  -2.0750000000000001E-002     4.0174010912560855E-037
  -2.0700000000000000E-002     5.3486153324214698E-037
  -2.0649999999999998E-002     5.0482916386915093E-037
  -2.0600000000000000E-002     2.1351089442608021E-037
  -2.0549999999999999E-002    -3.6643244435298237E-037
  -2.0500000000000001E-002    -1.1289445564839902E-036
  -2.0449999999999999E-002    -1.8127058486069126E-036
  -2.0400000000000001E-002    -2.0490094480437045E-036
  -2.0350000000000000E-002    -1.4885090095401710E-036
  -2.0299999999999999E-002     1.3061079848380048E-038
  -2.0250000000000001E-002     2.2280037832488709E-036
  -2.0199999999999999E-002     4.4917296446078844E-036
  -2.0150000000000001E-002     5.8419038029219168E-036
  -2.0100000000000000E-002     5.3100043854178435E-036
  -2.0049999999999998E-002     2.3757121900912470E-036
  -2.0000000000000000E-002    -2.6443757003992069E-036
  -1.9949999999999999E-002    -8.4411246768674189E-036
  -1.9900000000000001E-002    -1.2944097377635305E-035
  -1.9850000000000000E-002    -1.3956166880025945E-035
  -1.9799999999999998E-002    -1.0030223772688120E-035
  -1.9750000000000000E-002    -1.2702186969449468E-036
  -1.9699999999999999E-002     1.0313203999907779E-035
  -1.9650000000000001E-002     2.1158151996976410E-035
  -1.9599999999999999E-002     2.7229064170799202E-035
  -1.9550000000000001E-002     2.5503505635552207E-035
  -1.9500000000000000E-002     1.5301366136251340E-035
  -1.9449999999999999E-002    -1.1559911913762181E-036
  -1.9400000000000001E-002    -1.9328650158456866E-035
  -1.9349999999999999E-002    -3.3975175708435483E-035
  -1.9300000000000001E-002    -4.1165676272636037E-035
  -1.9250000000000000E-002    -3.9730459155354441E-035
  -1.9199999999999998E-002    -3.1308438758485708E-035
  -1.9150000000000000E-002    -1.8782855053466590E-035
  -1.9099999999999999E-002    -3.8185093965330685E-036
  -1.9050000000000001E-002     1.4991497851353825E-035
  -1.9000000000000000E-002     4.1713711943435720E-035
  -1.8949999999999998E-002     7.9570931063593441E-035
  -1.8900000000000000E-002     1.2522764565773417E-034
  -1.8849999999999999E-002     1.6368537459806058E-034
  -1.8800000000000001E-002     1.6774761342068051E-034
  -1.8749999999999999E-002     1.0533583116827207E-034
  -1.8700000000000001E-002    -4.4988907054939298E-035
  -1.8650000000000000E-002    -2.7449776168672413E-034
  -1.8599999999999998E-002    -5.2937926645756665E-034
  -1.8550000000000001E-002    -7.1092043916318299E-034
  -1.8499999999999999E-002    -6.9848284667101205E-034
  -1.8450000000000001E-002    -3.9499582406372724E-034
  -1.8400000000000000E-002     2.1660690236710142E-034
  -1.8349999999999998E-002     1.0279387928199926E-033
  -1.8300000000000000E-002     1.7966169487969870E-033
  -1.8249999999999999E-002     2.1937948137444419E-033
  -1.8200000000000001E-002     1.9086664140823738E-033
  -1.8149999999999999E-002     7.8544610682939597E-034
  -1.8100000000000002E-002    -1.0549360074988574E-033
  -1.8050000000000000E-002    -3.1659144389399611E-033
  -1.7999999999999999E-002    -4.8440547419159176E-033
  -1.7950000000000001E-002    -5.3241014669752589E-033
  -1.7899999999999999E-002    -4.0578944012610873E-033
  -1.7850000000000001E-002    -9.8727157640554867E-034
  -1.7800000000000000E-002     3.3009259799563310E-033
  -1.7749999999999998E-002     7.6297580986860836E-033
  -1.7700000000000000E-002     1.0525178005516345E-032
  -1.7649999999999999E-002     1.0684567626413916E-032
  -1.7600000000000001E-002     7.4738480712802074E-033
  -1.7550000000000000E-002     1.2663143553215824E-033
  -1.7499999999999998E-002    -6.5322910868770829E-033
  -1.7450000000000000E-002    -1.3825011700240913E-032
  -1.7399999999999999E-002    -1.8441696585400344E-032
  -1.7350000000000001E-002    -1.8820214522321970E-032
  -1.7299999999999999E-002    -1.4491431441714149E-032
  -1.7250000000000001E-002    -6.1755242106967473E-033
  -1.7200000000000000E-002     4.5367686044913572E-033
  -1.7149999999999999E-002     1.5745779716174158E-032
  -1.7100000000000001E-002     2.5742310584226584E-032
  -1.7049999999999999E-002     3.3158774753102354E-032
  -1.7000000000000001E-002     3.6682892080464720E-032
  -1.6950000000000000E-002     3.4553109539789755E-032
  -1.6899999999999998E-002     2.4324509259876715E-032
  -1.6850000000000000E-002     3.4456130240707090E-033
  -1.6799999999999999E-002    -2.9099317915962019E-032
  -1.6750000000000001E-002    -7.0424793738230706E-032
  -1.6700000000000000E-002    -1.1169363899894810E-031
  -1.6649999999999998E-002    -1.3786294720314050E-031
  -1.6600000000000000E-002    -1.3053819349334556E-031
  -1.6549999999999999E-002    -7.4282773195642310E-032
  -1.6500000000000001E-002     3.4874529753574321E-032
  -1.6449999999999999E-002     1.8169482932640577E-031
  -1.6400000000000001E-002     3.2871146062040883E-031
  -1.6350000000000000E-002     4.2144292908949924E-031
  -1.6299999999999999E-002     4.0306867813884223E-031
  -1.6250000000000001E-002     2.3609476429594246E-031
  -1.6199999999999999E-002    -7.5434301310348894E-032
  -1.6150000000000001E-002    -4.7217584649342433E-031
  -1.6100000000000000E-002    -8.4272324347106122E-031
  -1.6049999999999998E-002    -1.0481503947036033E-030
  -1.6000000000000000E-002    -9.6484474276725933E-031
  -1.5949999999999999E-002    -5.3435531319270052E-031
  -1.5900000000000001E-002     1.9697311777534618E-031
  -1.5850000000000000E-002     1.0663870587440868E-030
  -1.5799999999999998E-002     1.8225221212954741E-030
  -1.5750000000000000E-002     2.1915289221212270E-030
  -1.5699999999999999E-002     1.9655989342545400E-030
  -1.5650000000000001E-002     1.0862476823757657E-030
  -1.5599999999999999E-002    -3.0851207622878808E-031
  -1.5550000000000001E-002    -1.8958010419601775E-030
  -1.5500000000000000E-002    -3.2427147275865004E-030
  -1.5449999999999998E-002    -3.9261422030574579E-030
  -1.5400000000000000E-002    -3.6608795140891767E-030
  -1.5349999999999999E-002    -2.3932164273039821E-030
  -1.5300000000000001E-002    -3.2738472019002183E-031
  -1.5250000000000000E-002     2.1237724424226954E-030
  -1.5199999999999998E-002     4.4439183587555992E-030
  -1.5150000000000000E-002     6.1333373026658606E-030
  -1.5099999999999999E-002     6.8007913219144292E-030
  -1.5050000000000001E-002     6.2027485466864986E-030
  -1.4999999999999999E-002     4.2383270566736030E-030
  -1.4949999999999998E-002     9.3842815571415467E-031
  -1.4900000000000000E-002    -3.5036369980731003E-030
  -1.4849999999999999E-002    -8.6368894672189980E-030
  -1.4800000000000001E-002    -1.3622967346642138E-029
  -1.4749999999999999E-002    -1.7162525088792101E-029
  -1.4700000000000001E-002    -1.7601484107052674E-029
  -1.4650000000000000E-002    -1.3314144920130292E-029
  -1.4599999999999998E-002    -3.3609186632871551E-030
  -1.4550000000000000E-002     1.1732931723602969E-029
  -1.4499999999999999E-002     2.9378664223958907E-029
  -1.4450000000000001E-002     4.4874565151614951E-029
  -1.4400000000000000E-002     5.2196681256270198E-029
  -1.4349999999999998E-002     4.5675778121405487E-029
  -1.4300000000000000E-002     2.2242320104773504E-029
  -1.4249999999999999E-002    -1.6442304152273245E-029
  -1.4200000000000001E-002    -6.2854650093283011E-029
  -1.4149999999999999E-002    -1.0426915856017824E-028
  -1.4099999999999998E-002    -1.2555002133370964E-028
  -1.4050000000000000E-002    -1.1369009093708037E-028
  -1.3999999999999999E-002    -6.2927045085042609E-029
  -1.3950000000000001E-002     2.1276521887157499E-029
  -1.3899999999999999E-002     1.2112641457246717E-028
  -1.3850000000000001E-002     2.0936650576971949E-028
  -1.3800000000000000E-002     2.5602963240322696E-028
  -1.3749999999999998E-002     2.3755227177099027E-028
  -1.3700000000000000E-002     1.4558853749625557E-028
  -1.3649999999999999E-002    -7.5229752416375232E-030
  -1.3600000000000001E-002    -1.8902099786395656E-028
  -1.3550000000000000E-002    -3.5246331996239204E-028
  -1.3499999999999998E-002    -4.4957453976353617E-028
  -1.3450000000000000E-002    -4.4394209686575766E-028
  -1.3399999999999999E-002    -3.2239972120435113E-028
  -1.3350000000000001E-002    -1.0045371960339566E-028
  -1.3299999999999999E-002     1.8003517264660360E-028
  -1.3249999999999998E-002     4.6014738455799252E-028
  -1.3200000000000000E-002     6.7713998858810251E-028
  -1.3149999999999998E-002     7.7754674890382000E-028
  -1.3100000000000001E-002     7.2673132791315226E-028
  -1.3049999999999999E-002     5.1355534623160801E-028
  -1.3000000000000001E-002     1.5130070402983615E-028
  -1.2950000000000000E-002    -3.2248602877375562E-028
  -1.2899999999999998E-002    -8.4501864634279230E-028
  -1.2850000000000000E-002    -1.3265348329039715E-027
  -1.2799999999999999E-002    -1.6517567669927262E-027