  -4.0000000000000001E-002     0.0000000000000000     
  -3.9949999999999999E-002     0.0000000000000000     
  -3.9899999999999998E-002     0.0000000000000000     
  -3.9850000000000003E-002     0.0000000000000000     
  -3.9800000000000002E-002     0.0000000000000000     
  -3.9750000000000001E-002     0.0000000000000000     
  -3.9699999999999999E-002     0.0000000000000000     
  -3.9649999999999998E-002     0.0000000000000000     
  -3.9600000000000003E-002     0.0000000000000000     
  -3.9550000000000002E-002     0.0000000000000000     
  -3.9500000000000000E-002     0.0000000000000000     
  -3.9449999999999999E-002     0.0000000000000000     
  -3.9399999999999998E-002     0.0000000000000000     
  -3.9350000000000003E-002     0.0000000000000000     
  -3.9300000000000002E-002     0.0000000000000000     
  -3.9250000000000000E-002     0.0000000000000000     
  -3.9199999999999999E-002     0.0000000000000000     
  -3.9150000000000004E-002     0.0000000000000000     
  -3.9100000000000003E-002     0.0000000000000000     
  -3.9050000000000001E-002     0.0000000000000000     
  -3.9000000000000000E-002     0.0000000000000000     
  -3.8949999999999999E-002     0.0000000000000000     
  -3.8900000000000004E-002     0.0000000000000000     
  -3.8850000000000003E-002     0.0000000000000000     
  -3.8800000000000001E-002     0.0000000000000000     
  -3.8750000000000000E-002     0.0000000000000000     
  -3.8699999999999998E-002     0.0000000000000000     
  -3.8650000000000004E-002     0.0000000000000000     
  -3.8600000000000002E-002     0.0000000000000000     
  -3.8550000000000001E-002     0.0000000000000000     
  -3.8500000000000000E-002     0.0000000000000000     
  -3.8449999999999998E-002     0.0000000000000000     
  -3.8400000000000004E-002     0.0000000000000000     
  -3.8350000000000002E-002     0.0000000000000000     
  -3.8300000000000001E-002     0.0000000000000000     
  -3.8249999999999999E-002     0.0000000000000000     
  -3.8199999999999998E-002     0.0000000000000000     
  -3.8150000000000003E-002     0.0000000000000000     
  -3.8100000000000002E-002     0.0000000000000000     
  -3.8050000000000000E-002     0.0000000000000000     
  -3.7999999999999999E-002     0.0000000000000000     
  -3.7949999999999998E-002     0.0000000000000000     
  -3.7900000000000003E-002     0.0000000000000000     
  -3.7850000000000002E-002     0.0000000000000000     
  -3.7800000000000000E-002     0.0000000000000000     
  -3.7749999999999999E-002     0.0000000000000000     
  -3.7699999999999997E-002     0.0000000000000000     
  -3.7650000000000003E-002     0.0000000000000000     
  -3.7600000000000001E-002     0.0000000000000000     
  -3.7550000000000000E-002     0.0000000000000000     
  -3.7499999999999999E-002     0.0000000000000000     
  -3.7449999999999997E-002     0.0000000000000000     
  -3.7400000000000003E-002     0.0000000000000000     
  -3.7350000000000001E-002     0.0000000000000000     
  -3.7300000000000000E-002     0.0000000000000000     
  -3.7249999999999998E-002     0.0000000000000000     
  -3.7200000000000004E-002     0.0000000000000000     
  -3.7150000000000002E-002     0.0000000000000000     
  -3.7100000000000001E-002     0.0000000000000000     
  -3.7050000000000000E-002     0.0000000000000000     
  -3.6999999999999998E-002     0.0000000000000000     
  -3.6950000000000004E-002     0.0000000000000000     
  -3.6900000000000002E-002     0.0000000000000000     
  -3.6850000000000001E-002     0.0000000000000000     
  -3.6799999999999999E-002     0.0000000000000000     
  -3.6749999999999998E-002     0.0000000000000000     
  -3.6700000000000003E-002     0.0000000000000000     
  -3.6650000000000002E-002     0.0000000000000000     
  -3.6600000000000001E-002     0.0000000000000000     
  -3.6549999999999999E-002     0.0000000000000000     
  -3.6499999999999998E-002     0.0000000000000000     
  -3.6450000000000003E-002     0.0000000000000000     
  -3.6400000000000002E-002    -4.8985334319872321E-039
  -3.6350000000000000E-002    -1.0781506189698884E-038
  -3.6299999999999999E-002    -5.2712918889032036E-039
  -3.6249999999999998E-002     2.0215715564943980E-038
  -3.6200000000000003E-002     6.2892827219108520E-038
  -3.6150000000000002E-002     1.0429968522305307E-037
  -3.6100000000000000E-002     1.2190548318245074E-037
  -3.6049999999999999E-002     7.8802217325460932E-038
  -3.6000000000000004E-002    -7.4537088250536339E-038
  -3.5950000000000003E-002    -3.4531087066236576E-037
  -3.5900000000000001E-002    -7.1136336742432003E-037
  -3.5850000000000000E-002    -1.0375670310877668E-036
  -3.5799999999999998E-002    -1.0469442124604419E-036
  -3.5750000000000004E-002    -3.7740964201129331E-037
  -3.5700000000000003E-002     1.2670369039546854E-036
  -3.5650000000000001E-002     3.8494244400201611E-036
  -3.5600000000000000E-002     6.6971530939574124E-036
  -3.5549999999999998E-002     8.3512093993202432E-036
  -3.5500000000000004E-002     6.7562660599169643E-036
  -3.5450000000000002E-002    -1.5436382226894708E-038
  -3.5400000000000001E-002    -1.2568257090438904E-035
  -3.5349999999999999E-002    -2.8867701809500441E-035
  -3.5299999999999998E-002    -4.3476996488776383E-035
  -3.5250000000000004E-002    -4.8114015787186748E-035
  -3.5200000000000002E-002    -3.3993738049556672E-035
  -3.5150000000000001E-002     4.3474602102010789E-036
  -3.5099999999999999E-002     6.5015330889823368E-035
  -3.5049999999999998E-002     1.3643328350309163E-034
  -3.5000000000000003E-002     1.9840856693343527E-034
  -3.4950000000000002E-002     2.2681861511289467E-034
  -3.4900000000000000E-002     1.9999111122447030E-034
  -3.4849999999999999E-002     1.0328176254676350E-034
  -3.4799999999999998E-002    -7.0983381396492676E-035
  -3.4750000000000003E-002    -3.2727147000417021E-034
  -3.4700000000000002E-002    -6.6768420797550472E-034
  -3.4650000000000000E-002    -1.0793203358183596E-033
  -3.4599999999999999E-002    -1.5005242237607177E-033
  -3.4549999999999997E-002    -1.7716094707941913E-033
  -3.4500000000000003E-002    -1.5971068415483945E-033
  -3.4450000000000001E-002    -5.6643861010816084E-034
  -3.4400000000000000E-002     1.7177291769961065E-033
  -3.4349999999999999E-002     5.3841146902730905E-033
  -3.4299999999999997E-002     9.9563789980898442E-033
  -3.4250000000000003E-002     1.4065227813861958E-032
  -3.4200000000000001E-002     1.5403133276736736E-032
  -3.4150000000000000E-002     1.1115560923317357E-032
  -3.4099999999999998E-002    -1.2738427647691849E-033
  -3.4049999999999997E-002    -2.2495265991159460E-032
  -3.4000000000000002E-002    -5.0046238553365667E-032
  -3.3950000000000001E-002    -7.7112112614872218E-032
  -3.3900000000000000E-002    -9.2514076528867772E-032
  -3.3849999999999998E-002    -8.2251862386629214E-032
  -3.3799999999999997E-002    -3.2998601078411417E-032
  -3.3750000000000002E-002     6.2466184136547288E-032
  -3.3700000000000001E-002     1.9847794288981177E-031
  -3.3649999999999999E-002     3.4982148473619296E-031
  -3.3599999999999998E-002     4.6780410795710193E-031
  -3.3550000000000003E-002     4.8289743905537511E-031
  -3.3500000000000002E-002     3.1828414219903712E-031
  -3.3450000000000001E-002    -8.2742542657605737E-032
  -3.3399999999999999E-002    -7.1707668014422353E-031
  -3.3349999999999998E-002    -1.4792505648254017E-030
  -3.3300000000000003E-002    -2.1350750810572550E-030
  -3.3250000000000002E-002    -2.3373358879134748E-030
  -3.3200000000000000E-002    -1.7070923482462323E-030
  -3.3149999999999999E-002     1.3184438580738875E-032
  -3.3099999999999997E-002     2.7617666811067707E-030
  -3.3050000000000003E-002     5.9840320826728269E-030
  -3.3000000000000002E-002     8.5843323583975091E-030
  -3.2950000000000000E-002     9.1038801123472042E-030
  -3.2899999999999999E-002     6.1713767458488849E-030
  -3.2850000000000004E-002    -8.3554522296233399E-031
  -3.2800000000000003E-002    -1.1116760361690489E-029
  -3.2750000000000001E-002    -2.2071262101592748E-029
  -3.2700000000000000E-002    -2.9532521259619052E-029
  -3.2649999999999998E-002    -2.8798667540114718E-029
  -3.2600000000000004E-002    -1.6354789398330430E-029
  -3.2550000000000003E-002     8.1677445695337232E-030
  -3.2500000000000001E-002     4.0528871421428736E-029
  -3.2450000000000000E-002     7.1697112327593366E-029
  -3.2399999999999998E-002     8.9453906211184627E-029
  -3.2350000000000004E-002     8.1727453085843514E-029
  -3.2300000000000002E-002     4.0927232961117395E-029
  -3.2250000000000001E-002    -3.1958702567606682E-029
  -3.2199999999999999E-002    -1.2485743961130255E-028
  -3.2149999999999998E-002    -2.1471264743022187E-028
  -3.2100000000000004E-002    -2.7059304141627420E-028
  -3.2050000000000002E-002    -2.5961980759748680E-028
  -3.2000000000000001E-002    -1.5522157462768020E-028
  -3.1949999999999999E-002     5.2854788531854111E-029
  -3.1899999999999998E-002     3.4763877607424407E-028
  -3.1850000000000003E-002     6.7509901489121094E-028
  -3.1800000000000002E-002     9.3948214459640090E-028
  -3.1750000000000000E-002     1.0104057580649229E-027
  -3.1699999999999999E-002     7.4916921298416951E-028
  -3.1649999999999998E-002     5.8481103124045863E-029
  -3.1600000000000003E-002    -1.0493979630205526E-027
  -3.1550000000000002E-002    -2.3853715564983262E-027
  -3.1500000000000000E-002    -3.5508218536500016E-027
  -3.1449999999999999E-002    -3.9793968528457534E-027
  -3.1399999999999997E-002    -3.0817712092234404E-027
  -3.1350000000000003E-002    -4.8809480920240151E-028
  -3.1300000000000001E-002     3.6685682716615549E-027
  -3.1250000000000000E-002     8.5365083629393516E-027
  -3.1199999999999999E-002     1.2532295841568683E-026
  -3.1150000000000001E-002     1.3639532488791240E-026
  -3.1100000000000003E-002     1.0038506145050856E-026
  -3.1050000000000001E-002     9.4534984605641838E-028
  -3.1000000000000000E-002    -1.2606889120356866E-026
  -3.0949999999999998E-002    -2.7399492681321710E-026
  -3.0900000000000000E-002    -3.8390356461713247E-026
  -3.0850000000000002E-002    -3.9939859756385795E-026
  -3.0800000000000001E-002    -2.7725731187394383E-026
  -3.0750000000000000E-002    -8.3742980175749266E-028
  -3.0699999999999998E-002     3.6689783370208845E-026
  -3.0650000000000000E-002     7.5643481250145973E-026
  -3.0600000000000002E-002     1.0316531567511275E-025
  -3.0550000000000001E-002     1.0598570149151255E-025
  -3.0499999999999999E-002     7.4698372739742733E-026
  -3.0449999999999998E-002     7.9304552819323363E-027
  -3.0400000000000000E-002    -8.4910303732894086E-026
  -3.0350000000000002E-002    -1.8341524540441516E-025
  -3.0300000000000001E-002    -2.5904155094135341E-025
  -3.0249999999999999E-002    -2.8092039887121611E-025
  -3.0200000000000001E-002    -2.2378779388925332E-025
  -3.0150000000000000E-002    -7.6698856323198763E-026
  -3.0100000000000002E-002     1.4917970867688714E-025
  -3.0050000000000000E-002     4.1569499260087492E-025
  -2.9999999999999999E-002     6.5798499246622013E-025
  -2.9950000000000001E-002     7.9215633620155973E-025
  -2.9899999999999999E-002     7.3197998871796327E-025
  -2.9850000000000002E-002     4.1442132523583414E-025
  -2.9800000000000000E-002    -1.6942718619619259E-025
  -2.9749999999999999E-002    -9.4573939846653620E-025
  -2.9700000000000001E-002    -1.7433723388476953E-024
  -2.9650000000000003E-002    -2.3064555540454585E-024
  -2.9600000000000001E-002    -2.3438560087607812E-024
  -2.9550000000000000E-002    -1.6156020736011943E-024
  -2.9499999999999998E-002    -4.1459885476019632E-026
  -2.9450000000000000E-002     2.1993608847665668E-024
  -2.9400000000000003E-002     4.6195085894671048E-024
  -2.9350000000000001E-002     6.4668371488532503E-024
  -2.9300000000000000E-002     6.8826204954688044E-024
  -2.9249999999999998E-002     5.1625811432611158E-024
  -2.9200000000000000E-002     1.0647530202035476E-024
  -2.9150000000000002E-002    -4.9307123814267408E-024
  -2.9100000000000001E-002    -1.1521413580265804E-023
  -2.9049999999999999E-002    -1.6734507021390638E-023
  -2.8999999999999998E-002    -1.8362900498188512E-023
  -2.8950000000000000E-002    -1.4627689117656225E-023
  -2.8900000000000002E-002    -4.9115841761119564E-024
  -2.8850000000000001E-002     9.6627918244824574E-024
  -2.8799999999999999E-002     2.6048437384946072E-023
  -2.8749999999999998E-002     3.9657434692419933E-023
  -2.8700000000000000E-002     4.5348099080716141E-023
  -2.8650000000000002E-002     3.8868086844577494E-023
  -2.8600000000000000E-002     1.8426496643467498E-023
  -2.8549999999999999E-002    -1.4050884196411219E-023
  -2.8500000000000001E-002    -5.2439837252806197E-023
  -2.8450000000000000E-002    -8.7046793384572387E-023
  -2.8400000000000002E-002    -1.0644713004310019E-022
  -2.8350000000000000E-002    -1.0031668800105639E-022
  -2.8299999999999999E-002    -6.2719692648134786E-023
  -2.8250000000000001E-002     4.9341168660972164E-024
  -2.8200000000000003E-002     9.2156940907078883E-023
  -2.8150000000000001E-002     1.7967962480400380E-022
  -2.8100000000000000E-002     2.4227297216640445E-022
  -2.8049999999999999E-002     2.5407170014756458E-022
  -2.8000000000000001E-002     1.9571346535809218E-022
  -2.7950000000000003E-002     6.1900254769745813E-023
  -2.7900000000000001E-002    -1.3258882486094667E-022
  -2.7850000000000000E-002    -3.5065257279454839E-022
  -2.7799999999999998E-002    -5.3632081503709022E-022
  -2.7750000000000000E-002    -6.2487315139142581E-022
  -2.7700000000000002E-002    -5.5896190408823746E-022
  -2.7650000000000001E-002    -3.0802338515151086E-022
  -2.7600000000000000E-002     1.1374003813138826E-022
  -2.7549999999999998E-002     6.3679075454455724E-022
  -2.7500000000000000E-002     1.1389081816803803E-021
  -2.7450000000000002E-002     1.4647643137712014E-021
  -2.7400000000000001E-002     1.4620618993097876E-021
  -2.7349999999999999E-002     1.0285075656593804E-021
  -2.7299999999999998E-002     1.5855722800485342E-022
  -2.7250000000000000E-002    -1.0246706013341953E-021
  -2.7200000000000002E-002    -2.2668767000308626E-021
  -2.7150000000000001E-002    -3.2193072010004323E-021
  -2.7099999999999999E-002    -3.5152515429269380E-021
  -2.7049999999999998E-002    -2.8745836769443286E-021
  -2.7000000000000000E-002    -1.2125071470637646E-021
  -2.6950000000000002E-002     1.2793905214008230E-021
  -2.6900000000000000E-002     4.1120160100696001E-021
  -2.6849999999999999E-002     6.5603161137187844E-021
  -2.6800000000000001E-002     7.8112745907316604E-021
  -2.6749999999999999E-002     7.1772135431578050E-021
  -2.6700000000000002E-002     4.3284720185075621E-021
  -2.6650000000000000E-002    -5.1764498336394445E-022
  -2.6599999999999999E-002    -6.5173946104988577E-021
  -2.6550000000000001E-002    -1.2280505324718657E-020
  -2.6500000000000003E-002    -1.6125440191384409E-020
  -2.6450000000000001E-002    -1.6479831436652773E-020
  -2.6400000000000000E-002    -1.2348003322358636E-020
  -2.6349999999999998E-002    -3.7308848826397711E-021
  -2.6300000000000000E-002     8.1292980933252846E-021
  -2.6250000000000002E-002     2.0787776521937813E-020
  -2.6200000000000001E-002     3.0974807501827686E-020
  -2.6150000000000000E-002     3.5288081476684650E-020
  -2.6099999999999998E-002     3.1085843402120224E-020
  -2.6050000000000000E-002     1.7387023628071042E-020
  -2.6000000000000002E-002    -4.4613483767876788E-021
  -2.5950000000000001E-002    -3.0582391763940304E-020
  -2.5899999999999999E-002    -5.4997009879602536E-020
  -2.5849999999999998E-002    -7.0716427307504225E-020
  -2.5800000000000000E-002    -7.1368144356835550E-020
  -2.5750000000000002E-002    -5.3051401768232046E-020
  -2.5700000000000001E-002    -1.5984517924694689E-020
  -2.5649999999999999E-002     3.4544941679747170E-020
  -2.5599999999999998E-002     8.8350881254676932E-020
  -2.5550000000000000E-002     1.3187027973415123E-019
  -2.5500000000000002E-002     1.5096200765142772E-019
  -2.5450000000000000E-002     1.3454866237224327E-019
  -2.5399999999999999E-002     7.8332051699717836E-020
  -2.5349999999999998E-002    -1.2399052347496177E-020
  -2.5300000000000000E-002    -1.2185024022092582E-019
  -2.5250000000000002E-002    -2.2540508573969104E-019
  -2.5200000000000000E-002    -2.9409392401249450E-019
  -2.5149999999999999E-002    -3.0131683826275504E-019
  -2.5100000000000001E-002    -2.3054414553134360E-019
  -2.5049999999999999E-002    -8.2139945718583549E-020
  -2.5000000000000001E-002     1.2275285359396585E-019
  -2.4950000000000000E-002     3.4301600316565540E-019
  -2.4899999999999999E-002     5.2392741893925754E-019
  -2.4850000000000001E-002     6.0866288352653050E-019
  -2.4800000000000003E-002     5.5298727615036666E-019
  -2.4750000000000001E-002     3.3988274754138283E-019
  -2.4700000000000000E-002    -9.8504537698815458E-021
  -2.4649999999999998E-002    -4.3476471162210980E-019
  -2.4600000000000000E-002    -8.4016089955140268E-019
  -2.4550000000000002E-002    -1.1159223496060047E-018
  -2.4500000000000001E-002    -1.1622332702359786E-018
  -2.4450000000000000E-002    -9.1797978325196099E-019
  -2.4399999999999998E-002    -3.8485029858133227E-019
  -2.4350000000000000E-002     3.6010999339939814E-019
  -2.4299999999999999E-002     1.1691102040515898E-018
  -2.4250000000000001E-002     1.8475801386654536E-018
  -2.4199999999999999E-002     2.1950225221468859E-018
  -2.4150000000000001E-002     2.0554059583033513E-018
  -2.4100000000000000E-002     1.3659009733485058E-018
  -2.4049999999999998E-002     1.9112339683342734E-019
  -2.4000000000000000E-002    -1.2685829854184991E-018
  -2.3949999999999999E-002    -2.7017356416077482E-018
  -2.3900000000000001E-002    -3.7429985543450430E-018
  -2.3850000000000000E-002    -4.0547102729974044E-018
  -2.3800000000000002E-002    -3.4166409803574235E-018
  -2.3750000000000000E-002    -1.8030865998468806E-018
  -2.3699999999999999E-002     5.7411787296464616E-019
  -2.3650000000000001E-002     3.2734567947564135E-018
  -2.3599999999999999E-002     5.6897257280292947E-018
  -2.3550000000000001E-002     7.1724887344166520E-018
  -2.3500000000000000E-002     7.1775628554831510E-018
  -2.3449999999999999E-002     5.4205641528596570E-018
  -2.3400000000000001E-002     1.9954666572796550E-018
  -2.3349999999999999E-002    -2.5771505369816740E-018
  -2.3300000000000001E-002    -7.3969996165128647E-018
  -2.3250000000000000E-002    -1.1332495320698895E-017
  -2.3199999999999998E-002    -1.3253646640677688E-017
  -2.3150000000000000E-002    -1.2308624164390465E-017
  -2.3099999999999999E-002    -8.1847657379394622E-018
  -2.3050000000000001E-002    -1.2871764663530520E-018
  -2.3000000000000000E-002     7.2246406679126986E-018
  -2.2950000000000002E-002     1.5578343260396337E-017
  -2.2900000000000000E-002     2.1707776338734938E-017
  -2.2849999999999999E-002     2.3704665789699375E-017
  -2.2800000000000001E-002     2.0316532859043661E-017
  -2.2749999999999999E-002     1.1376175100064992E-017
  -2.2700000000000001E-002    -1.9568202469049659E-018
  -2.2650000000000000E-002    -1.7237716472588354E-017
  -2.2599999999999999E-002    -3.1103529221162338E-017
  -2.2550000000000001E-002    -3.9933441821460182E-017
  -2.2499999999999999E-002    -4.0691342216004423E-017
  -2.2450000000000001E-002    -3.1773341421738377E-017
  -2.2400000000000000E-002    -1.3650247270540666E-017
  -2.2349999999999998E-002     1.0890095573922476E-017
  -2.2300000000000000E-002     3.7028879635409597E-017
  -2.2249999999999999E-002     5.8748512866877873E-017
  -2.2200000000000001E-002     7.0095414369472668E-017
  -2.2150000000000000E-002     6.6632384524115123E-017
  -2.2100000000000002E-002     4.6754591702502677E-017
  -2.2050000000000000E-002     1.2526893248602787E-017
  -2.1999999999999999E-002    -3.0234231136026316E-017
  -2.1950000000000001E-002    -7.2767276358847959E-017
  -2.1899999999999999E-002    -1.0499797818962197E-016
  -2.1850000000000001E-002    -1.1772669777386317E-016
  -2.1800000000000000E-002    -1.0493018261634471E-016
  -2.1749999999999999E-002    -6.5649723163052325E-017
  -2.1700000000000001E-002    -4.9644460632085526E-018
  -2.1649999999999999E-002     6.6304227627976513E-017
  -2.1600000000000001E-002     1.3326252801632749E-016
  -2.1550000000000000E-002     1.7979156035759792E-016
  -2.1499999999999998E-002     1.9207927830266019E-016
  -2.1450000000000000E-002     1.6212500389105986E-016
  -2.1399999999999999E-002     9.0416207684081299E-017
  -2.1350000000000001E-002    -1.2942598293791256E-017
  -2.1299999999999999E-002    -1.2911994626483690E-016
  -2.1250000000000002E-002    -2.3355183565829258E-016
  -2.1200000000000000E-002    -3.0066914606025871E-016
  -2.1149999999999999E-002    -3.0954865288825497E-016
  -2.1100000000000001E-002    -2.4935441234407991E-016
  -2.1049999999999999E-002    -1.2331464093954254E-016
  -2.1000000000000001E-002     4.9883892745493919E-017
  -2.0950000000000000E-002     2.3799518468868921E-016
  -2.0899999999999998E-002     4.0048709001589205E-016
  -2.0850000000000000E-002     4.9651546810865654E-016
  -2.0799999999999999E-002     4.9420290443434363E-016
  -2.0750000000000001E-002     3.7929930722021569E-016
  -2.0700000000000000E-002     1.6113180228401581E-016
  -2.0649999999999998E-002    -1.2595872214733913E-016
  -2.0600000000000000E-002    -4.2673690081776849E-016
  -2.0549999999999999E-002    -6.7465433135224706E-016
  -2.0500000000000001E-002    -8.0549956702016328E-016
  -2.0449999999999999E-002    -7.7254273911612122E-016
  -2.0400000000000001E-002    -5.5985023621670906E-016
  -2.0350000000000000E-002    -1.9037452207731038E-016
  -2.0299999999999999E-002     2.7383743158807689E-016
  -2.0250000000000001E-002     7.4048644065570205E-016
  -2.0199999999999999E-002     1.1040996707820309E-015
  -2.0150000000000001E-002     1.2684658078767987E-015
  -2.0100000000000000E-002     1.1698972160032544E-015
  -2.0049999999999998E-002     7.9600739125243222E-016
  -2.0000000000000000E-002     1.9508223265458070E-016
  -1.9949999999999999E-002    -5.2727223698654609E-016
  -1.9900000000000001E-002    -1.2249520874573959E-015
  -1.9850000000000000E-002    -1.7393608907779296E-015
  -1.9799999999999998E-002    -1.9334922021796355E-015
  -1.9750000000000000E-002    -1.7250545813213304E-015
  -1.9699999999999999E-002    -1.1110962673223017E-015
  -1.9650000000000001E-002    -1.7774190518710356E-016
  -1.9599999999999999E-002     9.0866039900933781E-016
  -1.9550000000000001E-002     1.9289405100448985E-015
  -1.9500000000000000E-002     2.6529614737297783E-015
  -1.9449999999999999E-002     2.8883282732127382E-015
  -1.9400000000000001E-002     2.5261749241436774E-015
  -1.9349999999999999E-002     1.5739594168440288E-015
  -1.9300000000000001E-002     1.6697372949970505E-016
  -1.9250000000000000E-002    -1.4460752214900984E-015
  -1.9199999999999998E-002    -2.9431395634556940E-015
  -1.9150000000000000E-002    -3.9889493108375182E-015
  -1.9099999999999999E-002    -4.3048366961311080E-015
  -1.9050000000000001E-002    -3.7347635832503185E-015
  -1.9000000000000000E-002    -2.2932844045620963E-015
  -1.8949999999999998E-002    -1.8317752286648565E-016
  -1.8900000000000000E-002     2.2247356030200884E-015
  -1.8849999999999999E-002     4.4501159522718466E-015
  -1.8800000000000001E-002     5.9924835440576142E-015
  -1.8749999999999999E-002     6.4363540358701087E-015
  -1.8700000000000001E-002     5.5515744934343623E-015
  -1.8650000000000000E-002     3.3664398481855793E-015
  -1.8599999999999998E-002     1.9398147354366809E-016
  -1.8550000000000001E-002    -3.4006113674441455E-015
  -1.8499999999999999E-002    -6.6920568359421775E-015
  -1.8450000000000001E-002    -8.9339111819556831E-015
  -1.8400000000000000E-002    -9.5194575259548884E-015
  -1.8349999999999998E-002    -8.1313465510949150E-015
  -1.8300000000000000E-002    -4.8450208243726913E-015
  -1.8249999999999999E-002    -1.5708655227202037E-016
  -1.8200000000000001E-002     5.0765832064713127E-015
  -1.8149999999999999E-002     9.7893627222911578E-015
  -1.8100000000000002E-002     1.2915136889541621E-014
  -1.8050000000000000E-002     1.3621516087062575E-014
  -1.7999999999999999E-002     1.1514982601563417E-014
  -1.7950000000000001E-002     6.7693872289273549E-015
  -1.7899999999999999E-002     1.4200288097487728E-016
  -1.7850000000000001E-002    -7.1365094123349310E-015
  -1.7800000000000000E-002    -1.3584828644239505E-014
  -1.7749999999999998E-002    -1.7766899462250534E-014
  -1.7700000000000000E-002    -1.8602485891192130E-014
  -1.7649999999999999E-002    -1.5626450236663876E-014
  -1.7600000000000001E-002    -9.1375423307455668E-015
  -1.7550000000000000E-002    -1.9732708750295875E-016
  -1.7499999999999998E-002     9.5308637089461818E-015
  -1.7450000000000000E-002     1.8080309240808773E-014
  -1.7399999999999999E-002     2.3564409838258130E-014
  -1.7350000000000001E-002     2.4572880178129736E-014
  -1.7299999999999999E-002     2.0501487926658293E-014
  -1.7250000000000001E-002     1.1744561549696168E-014
  -1.7200000000000000E-002    -2.9805099896513440E-016
  -1.7149999999999999E-002    -1.3415358074946258E-014
  -1.7100000000000001E-002    -2.4959251282462825E-014
  -1.7049999999999999E-002    -3.2340602991889541E-014
  -1.7000000000000001E-002    -3.3561662183616730E-014
  -1.6950000000000000E-002    -2.7684085186442613E-014
  -1.6899999999999998E-002    -1.5133979977801761E-014
  -1.6850000000000000E-002     2.2339842961877548E-015
  -1.6799999999999999E-002     2.1353377089917518E-014
  -1.6750000000000001E-002     3.8433143122210731E-014
  -1.6700000000000000E-002     4.9648965501085941E-014
  -1.6649999999999998E-002     5.1922648791533804E-014
  -1.6600000000000000E-002     4.3639916315891840E-014
  -1.6549999999999999E-002     2.5150171871072429E-014
  -1.6500000000000001E-002    -1.0824862216974873E-015
  -1.6449999999999999E-002    -3.0749745740551212E-014
  -1.6400000000000001E-002    -5.8381823238399451E-014
  -1.6350000000000000E-002    -7.8342150939300607E-014
  -1.6299999999999999E-002    -8.5953876608016132E-014
  -1.6250000000000001E-002    -7.8529340384739744E-014
  -1.6199999999999999E-002    -5.6072079902010480E-014
  -1.6150000000000001E-002    -2.1472288027693183E-014
  -1.6100000000000000E-002     1.9885910906127391E-014
  -1.6049999999999998E-002     6.1061277706226322E-014
  -1.6000000000000000E-002     9.4867007825127687E-014
  -1.5949999999999999E-002     1.1529217673643426E-013
  -1.5900000000000001E-002     1.1872795238836771E-013
  -1.5850000000000000E-002     1.0472194885607272E-013
  -1.5799999999999998E-002     7.6077576363100959E-014
  -1.5750000000000000E-002     3.8255620537757618E-014
  -1.5699999999999999E-002    -1.8095835844905874E-015
  -1.5650000000000001E-002    -3.7232317402161418E-014
  -1.5599999999999999E-002    -6.2706483054596029E-014
  -1.5550000000000001E-002    -7.5705061949398983E-014
  -1.5500000000000000E-002    -7.7070975868404124E-014
  -1.5449999999999998E-002    -7.0845725129926504E-014
  -1.5400000000000000E-002    -6.3338668944350638E-014
  -1.5349999999999999E-002    -6.1596727640660447E-014
  -1.5300000000000001E-002    -7.1560408809263097E-014
  -1.5250000000000000E-002    -9.6265304243731453E-014
  -1.5199999999999998E-002    -1.3445723072877613E-013
  -1.5150000000000000E-002    -1.7993521453676230E-013
  -1.5099999999999999E-002    -2.2182981251366178E-013
  -1.5050000000000001E-002    -2.4588047634148286E-013
  -1.4999999999999999E-002    -2.3661311359676462E-013
  -1.4949999999999998E-002    -1.8015863966906619E-013
  -1.4900000000000000E-002    -6.7313652707846750E-014
  -1.4849999999999999E-002     1.0365126828554252E-013
  -1.4800000000000001E-002     3.2496145021589802E-013
  -1.4749999999999999E-002     5.7855988840715707E-013
  -1.4700000000000001E-002     8.3691107238948082E-013
  -1.4650000000000000E-002     1.0654887609508123E-012
  -1.4599999999999998E-002     1.2267621200253040E-012
  -1.4550000000000000E-002     1.2852002057348744E-012
  -1.4499999999999999E-002     1.2125711277617440E-012
  -1.4450000000000001E-002     9.9268419387495190E-013
  -1.4400000000000000E-002     6.2475972239306437E-013
  -1.4349999999999998E-002     1.2482008453767591E-013
  -1.4300000000000000E-002    -4.7514644030073391E-013
  -1.4249999999999999E-002    -1.1300717548311799E-012
  -1.4200000000000001E-002    -1.7861600486500499E-012
  -1.4149999999999999E-002    -2.3858531525462863E-012
  -1.4099999999999998E-002    -2.8724921187233543E-012
  -1.4050000000000000E-002    -3.1939295365742593E-012
  -1.3999999999999999E-002    -3.3047221935835270E-012
  -1.3950000000000001E-002    -3.1670152183065353E-012
  -1.3899999999999999E-002    -2.7506811245079810E-012
  -1.3850000000000001E-002    -2.0335913986030406E-012
  -1.3800000000000000E-002    -1.0029466432441841E-012
  -1.3749999999999998E-002     3.4161980712322000E-013
  -1.3700000000000000E-002     1.9829107263699792E-012
  -1.3649999999999999E-002     3.8793201529010102E-012
  -1.3600000000000001E-002     5.9571541116713204E-012
  -1.3550000000000000E-002     8.1033986116201076E-012
  -1.3499999999999998E-002     1.0160373207460167E-011
  -1.3450000000000000E-002     1.1923575011798504E-011
  -1.3399999999999999E-002     1.3143664870158660E-011
  -1.3350000000000001E-002     1.3533011187000382E-011
  -1.3299999999999999E-002     1.2776630005722700E-011
  -1.3249999999999998E-002     1.0546835379345554E-011
  -1.3200000000000000E-002     6.5204942595811941E-012
  -1.3149999999999998E-002     3.9747866785642631E-013
  -1.3100000000000001E-002    -8.0812340527648183E-012
  -1.3049999999999999E-002    -1.9117413763718948E-011
  -1.3000000000000001E-002    -3.2842905969251064E-011
  -1.2950000000000000E-002    -4.9311744730836031E-011
  -1.2899999999999998E-002    -6.8497962366519279E-011
  -1.2850000000000000E-002    -9.0299448734370010E-011
  -1.2799999999999999E-002    -1.1454754178490634E-010