  -4.0000000000000001E-002     0.0000000000000000     
  -3.9949999999999999E-002     0.0000000000000000     
  -3.9899999999999998E-002     0.0000000000000000     
  -3.9850000000000003E-002     0.0000000000000000     
  -3.9800000000000002E-002     0.0000000000000000     
  -3.9750000000000001E-002     0.0000000000000000     
  -3.9699999999999999E-002     0.0000000000000000     
  -3.9649999999999998E-002     0.0000000000000000     
  -3.9600000000000003E-002     0.0000000000000000     
  -3.9550000000000002E-002     0.0000000000000000     
  -3.9500000000000000E-002     0.0000000000000000     
  -3.9449999999999999E-002     0.0000000000000000     
  -3.9399999999999998E-002     0.0000000000000000     
  -3.9350000000000003E-002     0.0000000000000000     
  -3.9300000000000002E-002     0.0000000000000000     
  -3.9250000000000000E-002     0.0000000000000000     
  -3.9199999999999999E-002     0.0000000000000000     
  -3.9150000000000004E-002     0.0000000000000000     
  -3.9100000000000003E-002     0.0000000000000000     
  -3.9050000000000001E-002     0.0000000000000000     
  -3.9000000000000000E-002     0.0000000000000000     
  -3.8949999999999999E-002     0.0000000000000000     
  -3.8900000000000004E-002     0.0000000000000000     
  -3.8850000000000003E-002     0.0000000000000000     
  -3.8800000000000001E-002     0.0000000000000000     
  -3.8750000000000000E-002     0.0000000000000000     
  -3.8699999999999998E-002     0.0000000000000000     
  -3.8650000000000004E-002     0.0000000000000000     
  -3.8600000000000002E-002     0.0000000000000000     
  -3.8550000000000001E-002     0.0000000000000000     
  -3.8500000000000000E-002     0.0000000000000000     
  -3.8449999999999998E-002     0.0000000000000000     
  -3.8400000000000004E-002     0.0000000000000000     
  -3.8350000000000002E-002     0.0000000000000000     
  -3.8300000000000001E-002     0.0000000000000000     
  -3.8249999999999999E-002     0.0000000000000000     
  -3.8199999999999998E-002     0.0000000000000000     
  -3.8150000000000003E-002     0.0000000000000000     
  -3.8100000000000002E-002     0.0000000000000000     
  -3.8050000000000000E-002     0.0000000000000000     
  -3.7999999999999999E-002     0.0000000000000000     
  -3.7949999999999998E-002     0.0000000000000000     
  -3.7900000000000003E-002     0.0000000000000000     
  -3.7850000000000002E-002     0.0000000000000000     
  -3.7800000000000000E-002     0.0000000000000000     
  -3.7749999999999999E-002     0.0000000000000000     
  -3.7699999999999997E-002     0.0000000000000000     
  -3.7650000000000003E-002     0.0000000000000000     
  -3.7600000000000001E-002     0.0000000000000000     
  -3.7550000000000000E-002     0.0000000000000000     
  -3.7499999999999999E-002     0.0000000000000000     
  -3.7449999999999997E-002     0.0000000000000000     
  -3.7400000000000003E-002     0.0000000000000000     
  -3.7350000000000001E-002     0.0000000000000000     
  -3.7300000000000000E-002     0.0000000000000000     
  -3.7249999999999998E-002     0.0000000000000000     
  -3.7200000000000004E-002     0.0000000000000000     
  -3.7150000000000002E-002     5.8097761544365601E-041
  -3.7100000000000001E-002     0.0000000000000000     
  -3.7050000000000000E-002    -1.9088880461339777E-040
  -3.6999999999999998E-002    -6.3943179396962104E-040
  -3.6950000000000004E-002    -1.4027451630249068E-039
  -3.6900000000000002E-002    -2.1683123388988098E-039
  -3.6850000000000001E-002    -1.5519029876011727E-039
  -3.6799999999999999E-002     2.4793541036405332E-039
  -3.6749999999999998E-002    -1.4061074531123603E-038
  -3.6700000000000003E-002    -3.2342690816114318E-038
  -3.6650000000000002E-002     9.9962270850556722E-040
  -3.6600000000000001E-002     7.1722898662317911E-038
  -3.6549999999999999E-002     2.3212582554779422E-037
  -3.6499999999999998E-002     4.5994883731327592E-037
  -3.6450000000000003E-002     6.3993338134351402E-037
  -3.6400000000000002E-002     5.6672409347053869E-037
  -3.6350000000000000E-002    -1.2430283133317829E-037
  -3.6299999999999999E-002    -1.7475320929953956E-036
  -3.6249999999999998E-002    -4.2827732518631848E-036
  -3.6200000000000003E-002    -6.9850709907784433E-036
  -3.6150000000000002E-002    -8.0717267357777437E-036
  -3.6100000000000000E-002    -4.7862739267515387E-036
  -3.6049999999999999E-002     5.7858418976420575E-036
  -3.6000000000000004E-002     2.4885889462658075E-035
  -3.5950000000000003E-002     4.9410691519671183E-035
  -3.5900000000000001E-002     6.9374050207054579E-035
  -3.5850000000000000E-002     6.7395334915552274E-035
  -3.5799999999999998E-002     2.2570516781873014E-035
  -3.5750000000000004E-002    -7.9714121926708907E-035
  -3.5700000000000003E-002    -2.3311211815350477E-034
  -3.5650000000000001E-002    -3.9610598491904443E-034
  -3.5600000000000000E-002    -4.8768305068257538E-034
  -3.5549999999999998E-002    -4.0321959188796701E-034
  -3.5500000000000004E-002    -5.5307935227168518E-035
  -3.5450000000000002E-002     5.6876726584496318E-034
  -3.5400000000000001E-002     1.3575635903133390E-033
  -3.5349999999999999E-002     2.0683786304510697E-033
  -3.5299999999999998E-002     2.3874862034238206E-033
  -3.5250000000000004E-002     2.0481129360336689E-033
  -3.5200000000000002E-002     9.4749208725183802E-034
  -3.5150000000000001E-002    -8.2724592591944761E-034
  -3.5099999999999999E-002    -3.1261292516823905E-033
  -3.5049999999999998E-002    -5.9663554722793359E-033
  -3.5000000000000003E-002    -9.6537126142919526E-033
  -3.4950000000000002E-002    -1.4481794835752559E-032
  -3.4900000000000000E-002    -1.9805117370216155E-032
  -3.4849999999999999E-002    -2.2700865922996678E-032
  -3.4799999999999998E-002    -1.7072685470979538E-032
  -3.4750000000000003E-002     5.4446438467205490E-033
  -3.4700000000000002E-002     5.1585077308117946E-032
  -3.4650000000000000E-002     1.1962151252409525E-031
  -3.4599999999999999E-002     1.9192476625858024E-031
  -3.4549999999999997E-002     2.3154184230140377E-031
  -3.4500000000000003E-002     1.8817051094420283E-031
  -3.4450000000000001E-002     1.6533120391108766E-032
  -3.4400000000000000E-002    -2.9565294222865426E-031
  -3.4349999999999999E-002    -7.0025081852120155E-031
  -3.4299999999999997E-002    -1.0768680979946386E-030
  -3.4250000000000003E-002    -1.2497933072161612E-030
  -3.4200000000000001E-002    -1.0365361294362497E-030
  -3.4150000000000000E-002    -3.1532265748769983E-031
  -3.4099999999999998E-002     9.1329896534691966E-031
  -3.4049999999999997E-002     2.4950356521949930E-030
  -3.4000000000000002E-002     4.1280482373236541E-030
  -3.3950000000000001E-002     5.3894818786426904E-030
  -3.3900000000000000E-002     5.7524156655285040E-030
  -3.3849999999999998E-002     4.5840478721277386E-030
  -3.3799999999999997E-002     1.1741794057740613E-030
  -3.3750000000000002E-002    -5.0902338992231463E-030
  -3.3700000000000001E-002    -1.4275923147881927E-029
  -3.3649999999999999E-002    -2.5160437345544465E-029
  -3.3599999999999998E-002    -3.4430347610697664E-029
  -3.3550000000000003E-002    -3.6376778302458238E-029
  -3.3500000000000002E-002    -2.3840787006132809E-029
  -3.3450000000000001E-002     9.0196533595373259E-030
  -3.3399999999999999E-002     6.2301159268199292E-029
  -3.3349999999999998E-002     1.2563081496873690E-028
  -3.3300000000000003E-002     1.7574634940938474E-028
  -3.3250000000000002E-002     1.7948050266637805E-028
  -3.3200000000000000E-002     1.0421977971358774E-028
  -3.3149999999999999E-002    -6.5003124631817991E-029
  -3.3099999999999997E-002    -3.0685666918097778E-028
  -3.3050000000000003E-002    -5.5246304743544213E-028
  -3.3000000000000002E-002    -6.9168725043856334E-028
  -3.2950000000000000E-002    -6.0340553257123453E-028
  -3.2899999999999999E-002    -2.0715286070244234E-028
  -3.2850000000000004E-002     4.7866117315346689E-028
  -3.2800000000000003E-002     1.2971836483593477E-027
  -3.2750000000000001E-002     1.9597193912963650E-027
  -3.2700000000000000E-002     2.1154958073828778E-027
  -3.2649999999999998E-002     1.4782769595930953E-027
  -3.2600000000000004E-002    -2.5780431758040766E-029
  -3.2550000000000003E-002    -2.1473402964904213E-027
  -3.2500000000000001E-002    -4.3009417224052359E-027
  -3.2450000000000000E-002    -5.6850440921844911E-027
  -3.2399999999999998E-002    -5.5208834319150699E-027
  -3.2350000000000004E-002    -3.3411444282184303E-027
  -3.2300000000000002E-002     7.7458347976962703E-028
  -3.2250000000000001E-002     6.1119589477575379E-027
  -3.2199999999999999E-002     1.1421414596540816E-026
  -3.2149999999999998E-002     1.5167114173011246E-026
  -3.2100000000000004E-002     1.5829795518645890E-026
  -3.2050000000000002E-002     1.2171824426807110E-026
  -3.2000000000000001E-002     3.4489228401049253E-027
  -3.1949999999999999E-002    -1.0340173890050941E-026
  -3.1899999999999998E-002    -2.8024282439800582E-026
  -3.1850000000000003E-002    -4.6606592493334768E-026
  -3.1800000000000002E-002    -6.0619239543180648E-026
  -3.1750000000000000E-002    -6.2076993115115010E-026
  -3.1699999999999999E-002    -4.1840099113197627E-026
  -3.1649999999999998E-002     7.0079145624035353E-027
  -3.1600000000000003E-002     8.3972034574908308E-026
  -3.1550000000000002E-002     1.7567002726352009E-025
  -3.1500000000000000E-002     2.5293262363225665E-025
  -3.1449999999999999E-002     2.7390557816671918E-025
  -3.1399999999999997E-002     1.9555138161744365E-025
  -3.1350000000000003E-002    -7.0371210627247161E-027
  -3.1300000000000001E-002    -3.1850387147477941E-025
  -3.1250000000000000E-002    -6.6751213759037534E-025
  -3.1199999999999999E-002    -9.2845329718428962E-025
  -3.1150000000000001E-002    -9.4877504551928263E-025
  -3.1100000000000003E-002    -6.0194099765829386E-025
  -3.1050000000000001E-002     1.4593206044317528E-025
  -3.1000000000000000E-002     1.1793389009104828E-024
  -3.0949999999999998E-002     2.2157708631675132E-024
  -3.0900000000000000E-002     2.8510590479510928E-024
  -3.0850000000000002E-002     2.6733848677742206E-024
  -3.0800000000000001E-002     1.4243270349332852E-024
  -3.0750000000000000E-002    -8.4224805943404180E-025
  -3.0699999999999998E-002    -3.6684311233256962E-024
  -3.0650000000000000E-002    -6.2261275536330184E-024
  -3.0600000000000002E-002    -7.5024424627341111E-024
  -3.0550000000000001E-002    -6.6103564887200222E-024
  -3.0499999999999999E-002    -3.1432501629663401E-024
  -3.0449999999999998E-002     2.5447408330913977E-024
  -3.0400000000000000E-002     9.2498745774419860E-024
  -3.0350000000000002E-002     1.5094170584320883E-023
  -3.0300000000000001E-002     1.7959201374606513E-023
  -3.0249999999999999E-002     1.6085448811378479E-023
  -3.0200000000000001E-002     8.6800289062550850E-024
  -3.0150000000000000E-002    -3.6412988965612526E-024
  -3.0100000000000002E-002    -1.8715177592539882E-023
  -3.0050000000000000E-002    -3.3057671172843576E-023
  -2.9999999999999999E-002    -4.2438473511145692E-023
  -2.9950000000000001E-002    -4.2723874324130592E-023
  -2.9899999999999999E-002    -3.0883334692170411E-023
  -2.9850000000000002E-002    -6.0441311707655669E-024
  -2.9800000000000000E-002     2.9549768287278465E-023
  -2.9749999999999999E-002     6.9893326490227305E-023
  -2.9700000000000001E-002     1.0522061274075441E-022
  -2.9650000000000003E-002     1.2306102413168297E-022
  -2.9600000000000001E-002     1.1070176190010517E-022
  -2.9550000000000000E-002     5.9093954565615052E-023
  -2.9499999999999998E-002    -3.2355549363844538E-023
  -2.9450000000000000E-002    -1.5142437650977944E-022
  -2.9400000000000003E-002    -2.7110179403161421E-022
  -2.9350000000000001E-002    -3.5207900993023273E-022
  -2.9300000000000000E-002    -3.5103094418431974E-022
  -2.9249999999999998E-002    -2.3429258733275849E-022
  -2.9200000000000000E-002     5.8726172595300953E-024
  -2.9150000000000002E-002     3.3755242230872138E-022
  -2.9100000000000001E-002     6.8437724979220236E-022
  -2.9049999999999999E-002     9.3511543326572922E-022
  -2.8999999999999998E-002     9.6972387076794176E-022
  -2.8950000000000000E-002     6.9834293572908916E-022
  -2.8900000000000002E-002     1.0351572120884978E-022
  -2.8850000000000001E-002    -7.2867703549172810E-022
  -2.8799999999999999E-002    -1.6035253386933504E-021
  -2.8749999999999998E-002    -2.2488130348716350E-021
  -2.8700000000000000E-002    -2.3823188143027992E-021
  -2.8650000000000002E-002    -1.8029038715680169E-021
  -2.8600000000000000E-002    -4.8053481794207215E-022
  -2.8549999999999999E-002     1.3855939751036753E-021
  -2.8500000000000001E-002     3.3685265271171151E-021
  -2.8450000000000000E-002     4.8888596383024437E-021
  -2.8400000000000002E-002     5.3569491229179488E-021
  -2.8350000000000000E-002     4.3518119636731092E-021
  -2.8299999999999999E-002     1.7887645860252155E-021
  -2.8250000000000001E-002    -1.9776831496726249E-021
  -2.8200000000000003E-002    -6.1588216578929525E-021
  -2.8150000000000001E-002    -9.6628099285697207E-021
  -2.8100000000000000E-002    -1.1336481518951144E-020
  -2.8049999999999999E-002    -1.0269676920674888E-020
  -2.8000000000000001E-002    -6.0910780141167401E-021
  -2.7950000000000003E-002     8.2166301022799378E-022
  -2.7900000000000001E-002     9.2824203932563479E-021
  -2.7850000000000000E-002     1.7425168639574008E-020
  -2.7799999999999998E-002     2.3021698238723153E-020
  -2.7750000000000000E-002     2.3951230681404262E-020
  -2.7700000000000002E-002     1.8749681959028903E-020
  -2.7650000000000001E-002     7.1376908299649175E-021
  -2.7600000000000000E-002    -9.5933920680324825E-021
  -2.7549999999999998E-002    -2.8464908503800119E-020
  -2.7500000000000000E-002    -4.5076181534776416E-020
  -2.7450000000000002E-002    -5.4316757840855191E-020
  -2.7400000000000001E-002    -5.1502279064604747E-020
  -2.7349999999999999E-002    -3.3783839688728735E-020
  -2.7299999999999998E-002    -1.5366600942005973E-021
  -2.7250000000000000E-002     4.0685006486537188E-020
  -2.7200000000000002E-002     8.4076271717094120E-020
  -2.7150000000000001E-002     1.1674324041643330E-019
  -2.7099999999999999E-002     1.2618621521875866E-019
  -2.7049999999999998E-002     1.0279632457136635E-019
  -2.7000000000000000E-002     4.3614187311578941E-020
  -2.6950000000000002E-002    -4.4747539902322380E-020
  -2.6900000000000000E-002    -1.4520856471722698E-019
  -2.6849999999999999E-002    -2.3226321993240211E-019
  -2.6800000000000001E-002    -2.7719586047764432E-019
  -2.6749999999999999E-002    -2.5574859235973818E-019
  -2.6700000000000002E-002    -1.5652870058018936E-019
  -2.6650000000000000E-002     1.2254194332423684E-020
  -2.6599999999999999E-002     2.2022542083377706E-019
  -2.6550000000000001E-002     4.1826853142858626E-019
  -2.6500000000000003E-002     5.4831348435408001E-019
  -2.6450000000000001E-002     5.5799521581811285E-019
  -2.6400000000000000E-002     4.1688579511068095E-019
  -2.6349999999999998E-002     1.2986171506741831E-019
  -2.6300000000000000E-002    -2.5684340656987284E-019
  -2.6250000000000002E-002    -6.6002010851808996E-019
  -2.6200000000000001E-002    -9.7495306941423209E-019
  -2.6150000000000000E-002    -1.0995984181666252E-018
  -2.6099999999999998E-002    -9.6229986440689202E-019
  -2.6050000000000000E-002    -5.4616806819778114E-019
  -2.6000000000000002E-002     9.6788697615140306E-020
  -2.5950000000000001E-002     8.4689985736118173E-019
  -2.5899999999999999E-002     1.5352659212857582E-018
  -2.5849999999999998E-002     1.9771976328231097E-018
  -2.5800000000000000E-002     2.0146587137714268E-018
  -2.5750000000000002E-002     1.5590000942185389E-018
  -2.5700000000000001E-002     6.2428718452893703E-019
  -2.5649999999999999E-002    -6.5754265816951871E-019
  -2.5599999999999998E-002    -2.0457448952644223E-018
  -2.5550000000000000E-002    -3.2260320281384526E-018
  -2.5500000000000002E-002    -3.8691117694490842E-018
  -2.5450000000000000E-002    -3.7044277765935743E-018
  -2.5399999999999999E-002    -2.5962869121391087E-018
  -2.5349999999999998E-002    -6.0605869299415566E-019
  -2.5300000000000000E-002     1.9770947575038009E-018
  -2.5250000000000002E-002     4.6522844783853515E-018
  -2.5200000000000000E-002     6.7784992490353546E-018
  -2.5149999999999999E-002     7.6994186972398600E-018
  -2.5100000000000001E-002     6.9047183206991232E-018
  -2.5049999999999999E-002     4.1962837214693220E-018
  -2.5000000000000001E-002    -1.8321531153479715E-019
  -2.4950000000000000E-002    -5.5043869221425170E-018
  -2.4899999999999999E-002    -1.0622830006832267E-017
  -2.4850000000000001E-002    -1.4180169636001176E-017
  -2.4800000000000003E-002    -1.4912458272184385E-017
  -2.4750000000000001E-002    -1.2007419652934370E-017
  -2.4700000000000000E-002    -5.4230877794076139E-018
  -2.4649999999999998E-002     3.9299942262115735E-018
  -2.4600000000000000E-002     1.4224710981314797E-017
  -2.4550000000000002E-002     2.3009255616283643E-017
  -2.4500000000000001E-002     2.7728173501655283E-017
  -2.4450000000000000E-002     2.6375376270051270E-017
  -2.4399999999999998E-002     1.8126086188585660E-017
  -2.4350000000000000E-002     3.7719643994670201E-018
  -2.4299999999999999E-002    -1.4192701998861019E-017
  -2.4250000000000001E-002    -3.1915781867119475E-017
  -2.4199999999999999E-002    -4.4941203173736044E-017
  -2.4150000000000001E-002    -4.9237365827489205E-017
  -2.4100000000000000E-002    -4.2274278374626961E-017
  -2.4049999999999998E-002    -2.3881306148692432E-017
  -2.4000000000000000E-002     3.3588963139086909E-018
  -2.3949999999999999E-002     3.4335865371312674E-017
  -2.3900000000000001E-002     6.2275309634749615E-017
  -2.3850000000000000E-002     8.0108333763723407E-017
  -2.3800000000000002E-002     8.2081031201614027E-017
  -2.3750000000000000E-002     6.5260946083162478E-017
  -2.3699999999999999E-002     3.0591371106815614E-017
  -2.3650000000000001E-002    -1.6785956574147610E-017
  -2.3599999999999999E-002    -6.8088198754201613E-017
  -2.3550000000000001E-002    -1.1230970155093675E-016
  -2.3500000000000000E-002    -1.3830911517298752E-016
  -2.3449999999999999E-002    -1.3722299813115932E-016
  -2.3400000000000001E-002    -1.0475974418680924E-016
  -2.3349999999999999E-002    -4.2889064858623813E-017
  -2.3300000000000001E-002     3.9519279183606530E-017
  -2.3250000000000000E-002     1.2742840118144029E-016
  -2.3199999999999998E-002     2.0184795974232858E-016
  -2.3150000000000000E-002     2.4335260806153710E-016
  -2.3099999999999999E-002     2.3640548806948978E-016
  -2.3050000000000001E-002     1.7368399686359745E-016
  -2.3000000000000000E-002     5.9405597491163123E-017
  -2.2950000000000002E-002    -8.9361733692542189E-017
  -2.2900000000000000E-002    -2.4417882145422492E-016
  -2.2849999999999999E-002    -3.6977011383051111E-016
  -2.2800000000000001E-002    -4.3116671460512144E-016
  -2.2749999999999999E-002    -4.0223098549346834E-016
  -2.2700000000000001E-002    -2.7369918842002194E-016
  -2.2650000000000000E-002    -5.8595811051706396E-017
  -2.2599999999999999E-002     2.0688741527338563E-016
  -2.2550000000000001E-002     4.6814189906756839E-016
  -2.2499999999999999E-002     6.6234333258544855E-016
  -2.2450000000000001E-002     7.3245627121184995E-016
  -2.2400000000000000E-002     6.4211040469651419E-016
  -2.2349999999999998E-002     3.8770423470027372E-016
  -2.2300000000000000E-002     4.2464226171830424E-018
  -2.2249999999999999E-002    -4.3744783514981941E-016
  -2.2200000000000001E-002    -8.4270035718358395E-016
  -2.2150000000000000E-002    -1.1122891162186751E-015
  -2.2100000000000002E-002    -1.1653122672435831E-015
  -2.2050000000000000E-002    -9.6045832012474784E-016
  -2.1999999999999999E-002    -5.1040660625924798E-016
  -2.1950000000000001E-002     1.1475119983792838E-016
  -2.1899999999999999E-002     7.9692248742305597E-016
  -2.1850000000000001E-002     1.3912569278100273E-015
  -2.1800000000000000E-002     1.7554373668668408E-015
  -2.1749999999999999E-002     1.7811901188071303E-015
  -2.1700000000000001E-002     1.4213493356332110E-015
  -2.1649999999999999E-002     7.0639221879711277E-016
  -2.1600000000000001E-002    -2.5378576567838523E-016
  -2.1550000000000000E-002    -1.2843482712021218E-015
  -2.1499999999999998E-002    -2.1746661299931947E-015
  -2.1450000000000000E-002    -2.7176877567701512E-015
  -2.1399999999999999E-002    -2.7528933500491084E-015
  -2.1350000000000001E-002    -2.2049901081505301E-015
  -2.1299999999999999E-002    -1.1104770188195030E-015
  -2.1250000000000002E-002     3.7457810124961884E-016
  -2.1200000000000000E-002     1.9897441479447510E-015
  -2.1149999999999999E-002     3.4090099577174583E-015
  -2.1100000000000001E-002     4.2993112176716729E-015
  -2.1049999999999999E-002     4.3902598117603523E-015
  -2.1000000000000001E-002     3.5424265554742597E-015
  -2.0950000000000000E-002     1.7991299852458841E-015
  -2.0899999999999998E-002    -5.9292350952762973E-016
  -2.0850000000000000E-002    -3.2048585194751665E-015
  -2.0799999999999999E-002    -5.4918920062778377E-015
  -2.0750000000000001E-002    -6.8977248532473510E-015
  -2.0700000000000000E-002    -6.9794882076897109E-015
  -2.0649999999999998E-002    -5.5271443166574868E-015
  -2.0600000000000000E-002    -2.6476883629455748E-015
  -2.0549999999999999E-002     1.2120772913361703E-015
  -2.0500000000000001E-002     5.3196031360223126E-015
  -2.0449999999999999E-002     8.7861427640318822E-015
  -2.0400000000000001E-002     1.0751370554539444E-014
  -2.0350000000000000E-002     1.0585945060471231E-014
  -2.0299999999999999E-002     8.0654005841507719E-015
  -2.0250000000000001E-002     3.4700502273248011E-015
  -2.0199999999999999E-002    -2.4215228487393417E-015
  -2.0150000000000001E-002    -8.4551854751262596E-015
  -2.0100000000000000E-002    -1.3322787870942195E-014
  -2.0049999999999998E-002    -1.5839836890297304E-014
  -2.0000000000000000E-002    -1.5219877144542463E-014
  -1.9949999999999999E-002    -1.1282766902222544E-014
  -1.9900000000000001E-002    -4.5453956136137774E-015
  -1.9850000000000000E-002     3.8326082338190524E-015
  -1.9799999999999998E-002     1.2244582221464566E-014
  -1.9750000000000000E-002     1.8939393216443119E-014
  -1.9699999999999999E-002     2.2372595655589520E-014
  -1.9650000000000001E-002     2.1536572675999775E-014
  -1.9599999999999999E-002     1.6203028677245001E-014
  -1.9550000000000001E-002     7.0271978241770239E-015
  -1.9500000000000000E-002    -4.5118094197544918E-015
  -1.9449999999999999E-002    -1.6331211061066450E-014
  -1.9400000000000001E-002    -2.6094325342422169E-014
  -1.9349999999999999E-002    -3.1636228568438706E-014
  -1.9300000000000001E-002    -3.1396520950207055E-014
  -1.9250000000000000E-002    -2.4783919592978997E-014
  -1.9199999999999998E-002    -1.2400780682207988E-014
  -1.9150000000000000E-002     3.9305711588499829E-015
  -1.9099999999999999E-002     2.1372715519345607E-014
  -1.9050000000000001E-002     3.6506113632310127E-014
  -1.9000000000000000E-002     4.5942895447514891E-014
  -1.8949999999999998E-002     4.7028287868323926E-014
  -1.8900000000000000E-002     3.8498533898331536E-014
  -1.8849999999999999E-002     2.0946306431779717E-014
  -1.8800000000000001E-002    -3.0427956674389004E-015
  -1.8749999999999999E-002    -2.9170694887447274E-014
  -1.8700000000000001E-002    -5.2130955861291993E-014
  -1.8650000000000000E-002    -6.6643352969929811E-014
  -1.8599999999999998E-002    -6.8629367093161760E-014
  -1.8550000000000001E-002    -5.6273251633809901E-014
  -1.8499999999999999E-002    -3.0701685176304074E-014
  -1.8450000000000001E-002     3.9300802785697456E-015
  -1.8400000000000000E-002     4.1040152602144931E-014
  -1.8349999999999998E-002     7.2846956343238712E-014
  -1.8300000000000000E-002     9.1997557679656925E-014
  -1.8249999999999999E-002     9.3252027035321356E-014
  -1.8200000000000001E-002     7.4832734735671783E-014
  -1.8149999999999999E-002     3.9095879271736817E-014
  -1.8100000000000002E-002    -7.6792728169022159E-015
  -1.8050000000000000E-002    -5.6390608110291619E-014
  -1.7999999999999999E-002    -9.6900987454756478E-014
  -1.7950000000000001E-002    -1.2014394215132807E-013
  -1.7899999999999999E-002    -1.2009403038279912E-013
  -1.7850000000000001E-002    -9.5171013768194984E-014
  -1.7800000000000000E-002    -4.8769378687944273E-014
  -1.7749999999999998E-002     1.1206389361499720E-014
  -1.7700000000000000E-002     7.3710761651467126E-014
  -1.7649999999999999E-002     1.2656130533669748E-013
  -1.7600000000000001E-002     1.5869671860688588E-013
  -1.7550000000000000E-002     1.6227889603350573E-013
  -1.7499999999999998E-002     1.3427707768692470E-013
  -1.7450000000000000E-002     7.7274232958929677E-014
  -1.7399999999999999E-002    -6.3770264488250746E-016
  -1.7350000000000001E-002    -8.6880634499105811E-014
  -1.7299999999999999E-002    -1.6622163325564372E-013
  -1.7250000000000001E-002    -2.2319963492749434E-013
  -1.7200000000000000E-002    -2.4483905388289354E-013
  -1.7149999999999999E-002    -2.2325544633271538E-013
  -1.7100000000000001E-002    -1.5769906948047593E-013
  -1.7049999999999999E-002    -5.5573647827424538E-014
  -1.7000000000000001E-002     6.7949332995987503E-014
  -1.6950000000000000E-002     1.9190711676790588E-013
  -1.6899999999999998E-002     2.9299823508776852E-013
  -1.6850000000000000E-002     3.5003342427093226E-013
  -1.6799999999999999E-002     3.4856768924026520E-013
  -1.6750000000000001E-002     2.8468443270651757E-013
  -1.6700000000000000E-002     1.6691540040021211E-013
  -1.6649999999999998E-002     1.5567163527596348E-014
  -1.6600000000000000E-002    -1.4073892524938147E-013
  -1.6549999999999999E-002    -2.7082602833780554E-013
  -1.6500000000000001E-002    -3.4787886082262744E-013
  -1.6449999999999999E-002    -3.5593848389882299E-013
  -1.6400000000000001E-002    -2.9432782729098053E-013
  -1.6350000000000000E-002    -1.7872722754344586E-013
  -1.6299999999999999E-002    -3.8364022770292806E-014
  -1.6250000000000001E-002     9.0268750451985404E-014
  -1.6199999999999999E-002     1.7184167521454993E-013
  -1.6150000000000001E-002     1.8083030269919209E-013
  -1.6100000000000000E-002     1.0829738375587535E-013
  -1.6049999999999998E-002    -3.4859234337339379E-014
  -1.6000000000000000E-002    -2.1903916309883077E-013
  -1.5949999999999999E-002    -4.0125929982354507E-013
  -1.5900000000000001E-002    -5.3349798946936744E-013
  -1.5850000000000000E-002    -5.7225641353907383E-013
  -1.5799999999999998E-002    -4.8735965822319478E-013
  -1.5750000000000000E-002    -2.6832935383984597E-013
  -1.5699999999999999E-002     7.2689638005892948E-014
  -1.5650000000000001E-002     5.0168907237916439E-013
  -1.5599999999999999E-002     9.6681216376575459E-013
  -1.5550000000000001E-002     1.4047739573045476E-012
  -1.5500000000000000E-002     1.7487096067905364E-012
  -1.5449999999999998E-002     1.9365459927875016E-012
  -1.5400000000000000E-002     1.9191316312556070E-012
  -1.5349999999999999E-002     1.6674172732279168E-012
  -1.5300000000000001E-002     1.1779155239825843E-012
  -1.5250000000000000E-002     4.7555241955097065E-013
  -1.5199999999999998E-002    -3.8699335056098079E-013
  -1.5150000000000000E-002    -1.3340854406830562E-012
  -1.5099999999999999E-002    -2.2760167361343365E-012
  -1.5050000000000001E-002    -3.1209424377569176E-012
  -1.4999999999999999E-002    -3.7877317642190141E-012
  -1.4949999999999998E-002    -4.2168040273539931E-012
  -1.4900000000000000E-002    -4.3758998196945406E-012
  -1.4849999999999999E-002    -4.2585365842602233E-012
  -1.4800000000000001E-002    -3.8745543674742704E-012
  -1.4749999999999999E-002    -3.2343630182755528E-012
  -1.4700000000000001E-002    -2.3306242333555218E-012
  -1.4650000000000000E-002    -1.1224208947712953E-012
  -1.4599999999999998E-002     4.7298469062391276E-013
  -1.4550000000000000E-002     2.5772224911896444E-012
  -1.4499999999999999E-002     5.3358595962418572E-012
  -1.4450000000000001E-002     8.8938125825802645E-012
  -1.4400000000000000E-002     1.3366410979732783E-011
  -1.4349999999999998E-002     1.8812965244283621E-011
  -1.4300000000000000E-002     2.5219443486125887E-011
  -1.4249999999999999E-002     3.2494770287065713E-011
  -1.4200000000000001E-002     4.0481871840612429E-011
  -1.4149999999999999E-002     4.8980980898069085E-011
  -1.4099999999999998E-002     5.7779684798731149E-011
  -1.4050000000000000E-002     6.6683075403757268E-011
  -1.3999999999999999E-002     7.5537677290547063E-011
  -1.3950000000000001E-002     8.4245087338750088E-011
  -1.3899999999999999E-002     9.2764357231293761E-011
  -1.3850000000000001E-002     1.0110482556134028E-010
  -1.3800000000000000E-002     1.0931289021946095E-010
  -1.3749999999999998E-002     1.1745663733100926E-010
  -1.3700000000000000E-002     1.2561116682498278E-010
  -1.3649999999999999E-002     1.3384636222961786E-010
  -1.3600000000000001E-002     1.4221691069269995E-010
  -1.3550000000000000E-002     1.5075431083426962E-010
  -1.3499999999999998E-002     1.5946095762517294E-010
  -1.3450000000000000E-002     1.6830707358736045E-010
  -1.3399999999999999E-002     1.7723272503164210E-010
  -1.3350000000000001E-002     1.8615700806220764E-010
  -1.3299999999999999E-002     1.9499536016245197E-010
  -1.3249999999999998E-002     2.0368310568538455E-010
  -1.3200000000000000E-002     2.1220079115599117E-010
  -1.3149999999999998E-002     2.2059406676835612E-010
  -1.3100000000000001E-002     2.2898076780120285E-010
  -1.3049999999999999E-002     2.3753990320550888E-010
  -1.3000000000000001E-002     2.4648199458006528E-010
  -1.2950000000000000E-002     2.5600532843962113E-010
  -1.2899999999999998E-002     2.6624858410174207E-010
  -1.2850000000000000E-002     2.7725243210262882E-010
  -1.2799999999999999E-002     2.8894177309600185E-010