  -4.0000000000000001E-002     0.0000000000000000     
  -3.9949999999999999E-002     0.0000000000000000     
  -3.9899999999999998E-002     0.0000000000000000     
  -3.9850000000000003E-002     0.0000000000000000     
  -3.9800000000000002E-002     0.0000000000000000     
  -3.9750000000000001E-002     0.0000000000000000     
  -3.9699999999999999E-002     0.0000000000000000     
  -3.9649999999999998E-002     0.0000000000000000     
  -3.9600000000000003E-002     0.0000000000000000     
  -3.9550000000000002E-002     0.0000000000000000     
  -3.9500000000000000E-002     0.0000000000000000     
  -3.9449999999999999E-002     0.0000000000000000     
  -3.9399999999999998E-002     0.0000000000000000     
  -3.9350000000000003E-002     0.0000000000000000     
  -3.9300000000000002E-002     0.0000000000000000     
  -3.9250000000000000E-002     0.0000000000000000     
  -3.9199999999999999E-002     0.0000000000000000     
  -3.9150000000000004E-002     0.0000000000000000     
  -3.9100000000000003E-002     0.0000000000000000     
  -3.9050000000000001E-002     0.0000000000000000     
  -3.9000000000000000E-002     0.0000000000000000     
  -3.8949999999999999E-002     0.0000000000000000     
  -3.8900000000000004E-002     0.0000000000000000     
  -3.8850000000000003E-002     0.0000000000000000     
  -3.8800000000000001E-002     0.0000000000000000     
  -3.8750000000000000E-002     0.0000000000000000     
  -3.8699999999999998E-002     0.0000000000000000     
  -3.8650000000000004E-002     0.0000000000000000     
  -3.8600000000000002E-002     0.0000000000000000     
  -3.8550000000000001E-002     0.0000000000000000     
  -3.8500000000000000E-002     0.0000000000000000     
  -3.8449999999999998E-002     0.0000000000000000     
  -3.8400000000000004E-002     0.0000000000000000     
  -3.8350000000000002E-002     0.0000000000000000     
  -3.8300000000000001E-002     0.0000000000000000     
  -3.8249999999999999E-002     0.0000000000000000     
  -3.8199999999999998E-002     0.0000000000000000     
  -3.8150000000000003E-002     0.0000000000000000     
  -3.8100000000000002E-002     0.0000000000000000     
  -3.8050000000000000E-002     0.0000000000000000     
  -3.7999999999999999E-002     0.0000000000000000     
  -3.7949999999999998E-002     0.0000000000000000     
  -3.7900000000000003E-002     0.0000000000000000     
  -3.7850000000000002E-002     0.0000000000000000     
  -3.7800000000000000E-002     0.0000000000000000     
  -3.7749999999999999E-002     0.0000000000000000     
  -3.7699999999999997E-002     0.0000000000000000     
  -3.7650000000000003E-002     0.0000000000000000     
  -3.7600000000000001E-002     0.0000000000000000     
  -3.7550000000000000E-002     0.0000000000000000     
  -3.7499999999999999E-002     0.0000000000000000     
  -3.7449999999999997E-002     0.0000000000000000     
  -3.7400000000000003E-002     0.0000000000000000     
  -3.7350000000000001E-002     0.0000000000000000     
  -3.7300000000000000E-002     0.0000000000000000     
  -3.7249999999999998E-002     0.0000000000000000     
  -3.7200000000000004E-002     0.0000000000000000     
  -3.7150000000000002E-002     0.0000000000000000     
  -3.7100000000000001E-002     0.0000000000000000     
  -3.7050000000000000E-002     0.0000000000000000     
  -3.6999999999999998E-002     0.0000000000000000     
  -3.6950000000000004E-002     0.0000000000000000     
  -3.6900000000000002E-002     0.0000000000000000     
  -3.6850000000000001E-002     0.0000000000000000     
  -3.6799999999999999E-002     0.0000000000000000     
  -3.6749999999999998E-002     0.0000000000000000     
  -3.6700000000000003E-002     0.0000000000000000     
  -3.6650000000000002E-002     0.0000000000000000     
  -3.6600000000000001E-002     0.0000000000000000     
  -3.6549999999999999E-002     0.0000000000000000     
  -3.6499999999999998E-002     0.0000000000000000     
  -3.6450000000000003E-002     0.0000000000000000     
  -3.6400000000000002E-002     0.0000000000000000     
  -3.6350000000000000E-002     0.0000000000000000     
  -3.6299999999999999E-002     0.0000000000000000     
  -3.6249999999999998E-002     0.0000000000000000     
  -3.6200000000000003E-002     0.0000000000000000     
  -3.6150000000000002E-002     0.0000000000000000     
  -3.6100000000000000E-002     0.0000000000000000     
  -3.6049999999999999E-002     0.0000000000000000     
  -3.6000000000000004E-002     0.0000000000000000     
  -3.5950000000000003E-002     0.0000000000000000     
  -3.5900000000000001E-002     0.0000000000000000     
  -3.5850000000000000E-002     0.0000000000000000     
  -3.5799999999999998E-002     0.0000000000000000     
  -3.5750000000000004E-002     0.0000000000000000     
  -3.5700000000000003E-002     0.0000000000000000     
  -3.5650000000000001E-002     0.0000000000000000     
  -3.5600000000000000E-002     0.0000000000000000     
  -3.5549999999999998E-002     0.0000000000000000     
  -3.5500000000000004E-002     0.0000000000000000     
  -3.5450000000000002E-002     8.0351803941573799E-040
  -3.5400000000000001E-002     1.9452213007358537E-039
  -3.5349999999999999E-002     1.9452213007358537E-039
  -3.5299999999999998E-002     1.9452213007358537E-039
  -3.5250000000000004E-002    -8.9574458503232234E-040
  -3.5200000000000002E-002    -6.1270166910864122E-039
  -3.5150000000000001E-002    -1.3909242988570121E-038
  -3.5099999999999999E-002    -2.1579117672342252E-038
  -3.5049999999999998E-002    -2.2927202789027308E-038
  -3.5000000000000003E-002    -1.2914487949997407E-039
  -3.4950000000000002E-002     4.6548098303887553E-038
  -3.4900000000000000E-002     9.0118463203984196E-038
  -3.4849999999999999E-002     1.1642247427429195E-037
  -3.4799999999999998E-002     1.1289308607984075E-037
  -3.4750000000000003E-002     7.6631941424142747E-038
  -3.4700000000000002E-002     1.6459995037252675E-038
  -3.4650000000000000E-002    -8.6335088412170273E-038
  -3.4599999999999999E-002    -2.6470836731099047E-037
  -3.4549999999999997E-002    -4.8544965396843759E-037
  -3.4500000000000003E-002    -7.0794735215721207E-037
  -3.4450000000000001E-002    -8.8708031212019580E-037
  -3.4400000000000000E-002    -9.9587615829319435E-037
  -3.4349999999999999E-002    -8.9218732431832072E-037
  -3.4299999999999997E-002    -2.8820222160903461E-037
  -3.4250000000000003E-002     1.2096881794046823E-036
  -3.4200000000000001E-002     3.8580430240781004E-036
  -3.4150000000000000E-002     7.4090977033063676E-036
  -3.4099999999999998E-002     1.0761074348972464E-035
  -3.4049999999999997E-002     1.1855629380432032E-035
  -3.4000000000000002E-002     8.0506694110629761E-036
  -3.3950000000000001E-002    -2.9375148718056454E-036
  -3.3900000000000000E-002    -2.1658045226788886E-035
  -3.3849999999999998E-002    -4.5538716952609926E-035
  -3.3799999999999997E-002    -6.8074817919865198E-035
  -3.3750000000000002E-002    -7.9129053829063849E-035
  -3.3700000000000001E-002    -6.6597127162144209E-035
  -3.3649999999999999E-002    -1.9311400078266762E-035
  -3.3599999999999998E-002     6.9131445475010749E-035
  -3.3550000000000003E-002     1.9579477397262826E-034
  -3.3500000000000002E-002     3.4296383887216321E-034
  -3.3450000000000001E-002     4.7199751088835123E-034
  -3.3399999999999999E-002     5.1830363251050480E-034
  -3.3349999999999998E-002     3.9265306607602757E-034
  -3.3300000000000003E-002    -2.1869169560778554E-036
  -3.3250000000000002E-002    -7.2973866341446653E-034
  -3.3200000000000000E-002    -1.7500351226279011E-033
  -3.3149999999999999E-002    -2.8361997042728401E-033
  -3.3099999999999997E-002    -3.5175334527123475E-033
  -3.3050000000000003E-002    -3.1123868359568920E-033
  -3.3000000000000002E-002    -9.1566358093217534E-034
  -3.2950000000000000E-002     3.4344779206125633E-033
  -3.2899999999999999E-002     9.4768715635512706E-033
  -3.2850000000000004E-002     1.5523685785620590E-032
  -3.2800000000000003E-002     1.8624195959842384E-032
  -3.2750000000000001E-002     1.5189653979850161E-032
  -3.2700000000000000E-002     2.4025999452683505E-033
  -3.2649999999999998E-002    -1.9825340394803437E-032
  -3.2600000000000004E-002    -4.7043626421883568E-032
  -3.2550000000000003E-002    -6.9654725969830314E-032
  -3.2500000000000001E-002    -7.4547219464799652E-032
  -3.2450000000000000E-002    -4.9413987603923281E-032
  -3.2399999999999998E-002     1.0967376658375976E-032
  -3.2350000000000004E-002     9.8609903926379971E-032
  -3.2300000000000002E-002     1.8943587685067929E-031
  -3.2250000000000001E-002     2.4653553921025936E-031
  -3.2199999999999999E-002     2.3068275267327231E-031
  -3.2149999999999998E-002     1.1613112018518347E-031
  -3.2100000000000004E-002    -9.3557064412491946E-032
  -3.2050000000000002E-002    -3.5665436793854687E-031
  -3.2000000000000001E-002    -5.9716431851263414E-031
  -3.1949999999999999E-002    -7.2278330644902821E-031
  -3.1899999999999998E-002    -6.5210755257639399E-031
  -3.1850000000000003E-002    -3.4159009113399260E-031
  -3.1800000000000002E-002     1.9727992157439396E-031
  -3.1750000000000000E-002     8.9440140417552659E-031
  -3.1699999999999999E-002     1.6262089924304097E-030
  -3.1649999999999998E-002     2.2192388133781886E-030
  -3.1600000000000003E-002     2.4464419492077985E-030
  -3.1550000000000002E-002     2.0273697879723299E-030
  -3.1500000000000000E-002     6.6502679831437118E-031
  -3.1449999999999999E-002    -1.8383293287335575E-030
  -3.1399999999999997E-002    -5.3669923895797694E-030
  -3.1350000000000003E-002    -9.2246429020894687E-030
  -3.1300000000000001E-002    -1.1951240525216263E-029
  -3.1250000000000000E-002    -1.1432574720476969E-029
  -3.1199999999999999E-002    -5.4959836241572287E-030
  -3.1150000000000001E-002     6.9706347782867583E-030
  -3.1100000000000003E-002     2.4635321866246439E-029
  -3.1050000000000001E-002     4.2676629440107804E-029
  -3.1000000000000000E-002     5.2891516529627150E-029
  -3.0949999999999998E-002     4.5646145094470627E-029
  -3.0900000000000000E-002     1.3767969927115881E-029
  -3.0850000000000002E-002    -4.2508424039571821E-029
  -3.0800000000000001E-002    -1.1147818491757515E-028
  -3.0750000000000000E-002    -1.6929676100191458E-028
  -3.0699999999999998E-002    -1.8477264819054110E-028
  -3.0650000000000000E-002    -1.2997853077216301E-028
  -3.0600000000000002E-002     5.6419589636829788E-030
  -3.0550000000000001E-002     2.0270132755963100E-028
  -3.0499999999999999E-002     4.0724912981543300E-028
  -3.0449999999999998E-002     5.3939609172217223E-028
  -3.0400000000000000E-002     5.1642363794073549E-028
  -3.0350000000000002E-002     2.8556786400127754E-028
  -3.0300000000000001E-002    -1.4418905453598762E-028
  -3.0249999999999999E-002    -6.8484354590811635E-028
  -3.0200000000000001E-002    -1.1778123340698966E-027
  -3.0150000000000000E-002    -1.4315018675001467E-027
  -3.0100000000000002E-002    -1.2804254801110766E-027
  -3.0050000000000000E-002    -6.4838489127859287E-028
  -2.9999999999999999E-002     4.0593384458009689E-028
  -2.9950000000000001E-002     1.6784127606926547E-027
  -2.9899999999999999E-002     2.8500256433060349E-027
  -2.9850000000000002E-002     3.5507947848014055E-027
  -2.9800000000000000E-002     3.4403378945180534E-027
  -2.9749999999999999E-002     2.2881573399068765E-027
  -2.9700000000000001E-002     4.5211439389430298E-029
  -2.9650000000000003E-002    -3.0921486725484447E-027
  -2.9600000000000001E-002    -6.6246831281465480E-027
  -2.9550000000000000E-002    -9.7144719239970315E-027
  -2.9499999999999998E-002    -1.1215492744723462E-026
  -2.9450000000000000E-002    -9.8396966348761697E-027
  -2.9400000000000003E-002    -4.5198284213405039E-027
  -2.9350000000000001E-002     5.0331739562737057E-027
  -2.9300000000000000E-002     1.7699993783312255E-026
  -2.9249999999999998E-002     3.0511747771107432E-026
  -2.9200000000000000E-002     3.8748684077486092E-026
  -2.9150000000000002E-002     3.6883923447528066E-026
  -2.9100000000000001E-002     2.0441612628415131E-026
  -2.9049999999999999E-002    -1.1568193548362428E-026
  -2.8999999999999998E-002    -5.4434645745569056E-026
  -2.8950000000000000E-002    -9.6855447574709265E-026
  -2.8900000000000002E-002    -1.2240810691641272E-025
  -2.8850000000000001E-002    -1.1384289226474942E-025
  -2.8799999999999999E-002    -5.9617424797989831E-026
  -2.8749999999999998E-002     3.9120931117602983E-026
  -2.8700000000000000E-002     1.6381014773039812E-025
  -2.8650000000000002E-002     2.7880261135361014E-025
  -2.8600000000000000E-002     3.3848706024494108E-025
  -2.8549999999999999E-002     3.0079702203549711E-025
  -2.8500000000000001E-002     1.4402273372156387E-025
  -2.8450000000000000E-002    -1.1842131619189791E-025
  -2.8400000000000002E-002    -4.3143480461019788E-025
  -2.8350000000000000E-002    -7.0468300403884268E-025
  -2.8299999999999999E-002    -8.3333638876547813E-025
  -2.8250000000000001E-002    -7.2951869742792717E-025
  -2.8200000000000003E-002    -3.5626352014989508E-025
  -2.8150000000000001E-002     2.4685411057004069E-025
  -2.8100000000000000E-002     9.5659341616435269E-025
  -2.8049999999999999E-002     1.5834436849936085E-024
  -2.8000000000000001E-002     1.9128623796372766E-024
  -2.7950000000000003E-002     1.7624606582872482E-024
  -2.7900000000000001E-002     1.0417497959211514E-024
  -2.7850000000000000E-002    -2.0105364935819055E-025
  -2.7799999999999998E-002    -1.7589372544112557E-024
  -2.7750000000000000E-002    -3.2817318649871160E-024
  -2.7700000000000002E-002    -4.3302025823626000E-024
  -2.7650000000000001E-002    -4.4647999601587656E-024
  -2.7600000000000000E-002    -3.3589201560097555E-024
  -2.7549999999999998E-002    -9.1980474781820880E-025
  -2.7500000000000000E-002     2.6074390197208430E-024
  -2.7450000000000002E-002     6.5849752921373451E-024
  -2.7400000000000001E-002     1.0013197751044493E-023
  -2.7349999999999999E-002     1.1679353059790880E-023
  -2.7299999999999998E-002     1.0435426319455715E-023
  -2.7250000000000000E-002     5.5784715572929894E-024
  -2.7200000000000002E-002    -2.7449666946451718E-024
  -2.7150000000000001E-002    -1.3238515094600342E-023
  -2.7099999999999999E-002    -2.3413173739516434E-023
  -2.7049999999999998E-002    -2.9932119231947823E-023
  -2.7000000000000000E-002    -2.9387176199482030E-023
  -2.6950000000000002E-002    -1.9408787635880365E-023
  -2.6900000000000000E-002     1.5315517891056836E-025
  -2.6849999999999999E-002     2.6370471771786617E-023
  -2.6800000000000001E-002     5.3123270309538594E-023
  -2.6749999999999999E-002     7.2037934046114490E-023
  -2.6700000000000002E-002     7.4509673733424199E-023
  -2.6650000000000000E-002     5.4467108803420535E-023
  -2.6599999999999999E-002     1.1164815016204667E-023
  -2.6550000000000001E-002    -4.8938222079149306E-023
  -2.6500000000000003E-002    -1.1211668328093958E-022
  -2.6450000000000001E-002    -1.5966956435161614E-022
  -2.6400000000000000E-002    -1.7245121561872195E-022
  -2.6349999999999998E-002    -1.3675790243789182E-022
  -2.6300000000000000E-002    -5.0023760651588636E-023
  -2.6250000000000002E-002     7.5520762258201276E-023
  -2.6200000000000001E-002     2.1284204263678964E-022
  -2.6150000000000000E-002     3.2456861576721113E-022
  -2.6099999999999998E-002     3.7155066768460241E-022
  -2.6050000000000000E-002     3.2383652220166880E-022
  -2.6000000000000002E-002     1.7137301065245440E-022
  -2.5950000000000001E-002    -6.8658886941068413E-023
  -2.5899999999999999E-002    -3.5054813391679409E-022
  -2.5849999999999998E-002    -6.0627691309212618E-022
  -2.5800000000000000E-002    -7.5900369400964426E-022
  -2.5750000000000002E-002    -7.4166065405779656E-022
  -2.5700000000000001E-002    -5.1691166585536316E-022
  -2.5649999999999999E-002    -9.3770142831486427E-023
  -2.5599999999999998E-002     4.6387559108910107E-022
  -2.5550000000000000E-002     1.0406319244752398E-021
  -2.5500000000000002E-002     1.4867642957425074E-021
  -2.5450000000000000E-002     1.6483487031295684E-021
  -2.5399999999999999E-002     1.4063830214186187E-021
  -2.5349999999999998E-002     7.1755310573930635E-022
  -2.5300000000000000E-002    -3.5327463520004266E-022
  -2.5250000000000002E-002    -1.6198376364640257E-021
  -2.5200000000000000E-002    -2.7901042058388508E-021
  -2.5149999999999999E-002    -3.5156451562264533E-021
  -2.5100000000000001E-002    -3.4717896378297052E-021
  -2.5049999999999999E-002    -2.4556195174811506E-021
  -2.5000000000000001E-002    -4.7913042237917576E-022
  -2.4950000000000000E-002     2.1713585723485625E-021
  -2.4899999999999999E-002     4.9377627728914058E-021
  -2.4850000000000001E-002     7.0731080438423156E-021
  -2.4800000000000003E-002     7.8040683367958278E-021
  -2.4750000000000001E-002     6.5476625392448492E-021
  -2.4700000000000000E-002     3.1323196177843490E-021
  -2.4649999999999998E-002    -2.0421263131097616E-021
  -2.4600000000000000E-002    -7.9702222531681888E-021
  -2.4550000000000002E-002    -1.3175818802043761E-020
  -2.4500000000000001E-002    -1.6018988086176706E-020
  -2.4450000000000000E-002    -1.5126257669409974E-020
  -2.4399999999999998E-002    -9.8465857183000623E-021
  -2.4350000000000000E-002    -6.0535644594419945E-022
  -2.4299999999999999E-002     1.0969516540470260E-020
  -2.4250000000000001E-002     2.2235181778283257E-020
  -2.4199999999999999E-002     3.0047399256121980E-020
  -2.4150000000000001E-002     3.1521129868938324E-020
  -2.4100000000000000E-002     2.4874125207722800E-020
  -2.4049999999999998E-002     1.0136285068047040E-020
  -2.4000000000000000E-002    -1.0493709372612647E-020
  -2.3949999999999999E-002    -3.2804262197837606E-020
  -2.3900000000000001E-002    -5.1288163882237465E-020
  -2.3850000000000000E-002    -6.0330622880136196E-020
  -2.3800000000000002E-002    -5.5641470159946199E-020
  -2.3750000000000000E-002    -3.5608304955218615E-020
  -2.3699999999999999E-002    -2.2175511432564922E-021
  -2.3650000000000001E-002     3.8757605379825745E-020
  -2.3599999999999999E-002     7.8474001279633006E-020
  -2.3550000000000001E-002     1.0662413186002331E-019
  -2.3500000000000000E-002     1.1370456303809482E-019
  -2.3449999999999999E-002     9.3527852011453256E-020
  -2.3400000000000001E-002     4.5426593603723149E-020
  -2.3349999999999999E-002    -2.4437199113389428E-020
  -2.3300000000000001E-002    -1.0315564199507225E-019
  -2.3250000000000000E-002    -1.7283052947119678E-019
  -2.3199999999999998E-002    -2.1394541830754847E-019
  -2.3150000000000000E-002    -2.0989499831395067E-019
  -2.3099999999999999E-002    -1.5181684113426073E-019
  -2.3050000000000001E-002    -4.2581519772390916E-020
  -2.3000000000000000E-002     1.0127841635143360E-019
  -2.2950000000000002E-002     2.5069777275359550E-019
  -2.2900000000000000E-002     3.6871597507531830E-019
  -2.2849999999999999E-002     4.1825245515716212E-019
  -2.2800000000000001E-002     3.7171481932312577E-019
  -2.2749999999999999E-002     2.2031319919456277E-019
  -2.2700000000000001E-002    -1.9484317697676454E-020
  -2.2650000000000000E-002    -3.0474906924747556E-019
  -2.2599999999999999E-002    -5.7165019110778579E-019
  -2.2550000000000001E-002    -7.4776404097336438E-019
  -2.2499999999999999E-002    -7.6926577904913029E-019
  -2.2450000000000001E-002    -5.9939356328834536E-019
  -2.2400000000000000E-002    -2.4348052301586796E-019
  -2.2349999999999998E-002     2.4415566705537906E-019
  -2.2300000000000000E-002     7.6487533721869404E-019
  -2.2249999999999999E-002     1.1928550558498048E-018
  -2.2200000000000001E-002     1.4024453524430245E-018
  -2.2150000000000000E-002     1.3003751452347680E-018
  -2.2100000000000002E-002     8.5525041463177228E-019
  -2.2050000000000000E-002     1.1627986960759290E-019
  -2.1999999999999999E-002    -7.8530791771527860E-019
  -2.1950000000000001E-002    -1.6552414735452576E-018
  -2.1899999999999999E-002    -2.2739468627497797E-018
  -2.1850000000000001E-002    -2.4464891669022369E-018
  -2.1800000000000000E-002    -2.0542330432558152E-018
  -2.1749999999999999E-002    -1.0959013604382775E-018
  -2.1700000000000001E-002     2.9337676498294967E-019
  -2.1649999999999999E-002     1.8527208837962989E-018
  -2.1600000000000001E-002     3.2375988115990441E-018
  -2.1550000000000000E-002     4.0880703922395746E-018
  -2.1499999999999998E-002     4.1111755715382955E-018
  -2.1450000000000000E-002     3.1606106001555341E-018
  -2.1399999999999999E-002     1.2950325323803967E-018
  -2.1350000000000001E-002    -1.2016440914737205E-018
  -2.1299999999999999E-002    -3.8486885134534685E-018
  -2.1250000000000002E-002    -6.0473109846129193E-018
  -2.1200000000000000E-002    -7.2002819308804432E-018
  -2.1149999999999999E-002    -6.8521159295131109E-018
  -2.1100000000000001E-002    -4.8211240098914132E-018
  -2.1049999999999999E-002    -1.2911124533217583E-018
  -2.1000000000000001E-002     3.1663020899786647E-018
  -2.0950000000000000E-002     7.6572096393135480E-018
  -2.0899999999999998E-002     1.1119925902349326E-017
  -2.0850000000000000E-002     1.2548495402178407E-017
  -2.0799999999999999E-002     1.1244314710920132E-017
  -2.0750000000000001E-002     7.0399200699647655E-018
  -2.0700000000000000E-002     4.3479948099932641E-019
  -2.0649999999999998E-002    -7.4068105979592234E-018
  -2.0600000000000000E-002    -1.4821201027746063E-017
  -2.0549999999999999E-002    -1.9962237177282772E-017
  -2.0500000000000001E-002    -2.1218590770233087E-017
  -2.0449999999999999E-002    -1.7644858346983587E-017
  -2.0400000000000001E-002    -9.3017105871350078E-018
  -2.0350000000000000E-002     2.5946321397583480E-018
  -2.0299999999999999E-002     1.5781609211011263E-017
  -2.0250000000000001E-002     2.7332080610458200E-017
  -2.0199999999999999E-002     3.4256410710679403E-017
  -2.0150000000000001E-002     3.4210036020010535E-017
  -2.0100000000000000E-002     2.6149122321352983E-017
  -2.0049999999999998E-002     1.0767877965206967E-017
  -2.0000000000000000E-002    -9.4177132848658482E-018
  -1.9949999999999999E-002    -3.0406874390623051E-017
  -1.9900000000000001E-002    -4.7446132922715522E-017
  -1.9850000000000000E-002    -5.6034033657665319E-017
  -1.9799999999999998E-002    -5.2997275306005230E-017
  -1.9750000000000000E-002    -3.7397863789515932E-017
  -1.9699999999999999E-002    -1.1042517912117521E-017
  -1.9650000000000001E-002     2.1568670514898995E-017
  -1.9599999999999999E-002     5.3909023337769296E-017
  -1.9550000000000001E-002     7.8630882144634602E-017
  -1.9500000000000000E-002     8.9106380940261869E-017
  -1.9449999999999999E-002     8.1003449210283235E-017
  -1.9400000000000001E-002     5.3555852036221558E-017
  -1.9349999999999999E-002     1.0211594589158609E-017
  -1.9300000000000001E-002    -4.1560782859381694E-017
  -1.9250000000000000E-002    -9.1376278665457577E-017
  -1.9199999999999998E-002    -1.2783021080106834E-016
  -1.9150000000000000E-002    -1.4088438601762256E-016
  -1.9099999999999999E-002    -1.2429039437928433E-016
  -1.9050000000000001E-002    -7.7523839353348060E-017
  -1.9000000000000000E-002    -6.7301479658158426E-018
  -1.8949999999999998E-002     7.5677345277443282E-017
  -1.8900000000000000E-002     1.5288360673572076E-016
  -1.8849999999999999E-002     2.0680907458542221E-016
  -1.8800000000000001E-002     2.2200499263471570E-016
  -1.8749999999999999E-002     1.8953727445615674E-016
  -1.8700000000000001E-002     1.0996674169537202E-016
  -1.8650000000000000E-002    -5.3997880785147813E-018
  -1.8599999999999998E-002    -1.3554104902503767E-016
  -1.8550000000000001E-002    -2.5313928743666723E-016
  -1.8499999999999999E-002    -3.2994125994263005E-016
  -1.8450000000000001E-002    -3.4309235922280338E-016
  -1.8400000000000000E-002    -2.8110238167757399E-016
  -1.8349999999999998E-002    -1.4799683410407905E-016
  -1.8300000000000000E-002     3.5560981153169445E-017
  -1.8249999999999999E-002     2.3483620087134852E-016
  -1.8200000000000001E-002     4.0715011015284012E-016
  -1.8149999999999999E-002     5.1058680171860711E-016
  -1.8100000000000002E-002     5.1357499079677325E-016
  -1.8050000000000000E-002     4.0324034035346861E-016
  -1.7999999999999999E-002     1.9047651014853830E-016
  -1.7950000000000001E-002    -8.9777572410851317E-017
  -1.7899999999999999E-002    -3.8362510536042106E-016
  -1.7850000000000001E-002    -6.2807114087516600E-016
  -1.7800000000000000E-002    -7.6393272442571752E-016
  -1.7749999999999998E-002    -7.4923820777812657E-016
  -1.7700000000000000E-002    -5.7021749990087852E-016
  -1.7649999999999999E-002    -2.4726134284123219E-016
  -1.7600000000000001E-002     1.6591265079717381E-016
  -1.7550000000000000E-002     5.9033945624965521E-016
  -1.7499999999999998E-002     9.3608857664977839E-016
  -1.7450000000000000E-002     1.1203078967301475E-015
  -1.7399999999999999E-002     1.0855976718806252E-015
  -1.7350000000000001E-002     8.1490090322022934E-016
  -1.7299999999999999E-002     3.3946009933288023E-016
  -1.7250000000000001E-002    -2.6252115952220032E-016
  -1.7200000000000000E-002    -8.7721428886503182E-016
  -1.7149999999999999E-002    -1.3752330666230674E-015
  -1.7100000000000001E-002    -1.6372362356756910E-015
  -1.7049999999999999E-002    -1.5803636234658324E-015
  -1.7000000000000001E-002    -1.1800644715057403E-015
  -1.6950000000000000E-002    -4.8216446756411577E-016
  -1.6899999999999998E-002     3.9859537151094853E-016
  -1.6850000000000000E-002     1.2949344490423149E-015
  -1.6799999999999999E-002     2.0166943901539131E-015
  -1.6750000000000001E-002     2.3890838644810169E-015
  -1.6700000000000000E-002     2.2922727431600711E-015
  -1.6649999999999998E-002     1.6938513962963464E-015
  -1.6600000000000000E-002     6.6611458701967330E-016
  -1.6549999999999999E-002    -6.1754163730318973E-016
  -1.6500000000000001E-002    -1.9088727110545501E-015
  -1.6449999999999999E-002    -2.9305768552774796E-015
  -1.6400000000000001E-002    -3.4336833893476771E-015
  -1.6350000000000000E-002    -3.2550617706676392E-015
  -1.6299999999999999E-002    -2.3621857894448011E-015
  -1.6250000000000001E-002    -8.7378943259911490E-016
  -1.6199999999999999E-002     9.5071514082446603E-016
  -1.6150000000000001E-002     2.7538122571218371E-015
  -1.6100000000000000E-002     4.1480793440912096E-015
  -1.6049999999999998E-002     4.7972504285788595E-015
  -1.6000000000000000E-002     4.4934235593358301E-015
  -1.5949999999999999E-002     3.2131405749744881E-015
  -1.5900000000000001E-002     1.1383939168203739E-015
  -1.5850000000000000E-002    -1.3647485129070647E-015
  -1.5799999999999998E-002    -3.8084655003520214E-015
  -1.5750000000000000E-002    -5.6761197076793689E-015
  -1.5699999999999999E-002    -6.5282806658172421E-015
  -1.5650000000000001E-002    -6.1004686050540154E-015
  -1.5599999999999999E-002    -4.3717250539963266E-015
  -1.5550000000000001E-002    -1.5879716458694550E-015
  -1.5500000000000000E-002     1.7675951399383070E-015
  -1.5449999999999998E-002     5.0545780706628188E-015
  -1.5400000000000000E-002     7.5932449334905330E-015
  -1.5349999999999999E-002     8.7992717202681839E-015
  -1.5300000000000001E-002     8.3098406335771403E-015
  -1.5250000000000000E-002     6.0755273451436240E-015
  -1.5199999999999998E-002     2.3971321279940135E-015
  -1.5150000000000000E-002    -2.1043595633697134E-015
  -1.5099999999999999E-002    -6.5846180484184747E-015
  -1.5050000000000001E-002    -1.0126538326364083E-014
  -1.4999999999999999E-002    -1.1919713915375693E-014
  -1.4949999999999998E-002    -1.1435698562641893E-014
  -1.4900000000000000E-002    -8.5632166860489714E-015
  -1.4849999999999999E-002    -3.6714564793575909E-015
  -1.4800000000000001E-002     2.4193470424803506E-015
  -1.4749999999999999E-002     8.5640344201192281E-015
  -1.4700000000000001E-002     1.3499485018059018E-014
  -1.4650000000000000E-002     1.6097424902162307E-014
  -1.4599999999999998E-002     1.5614070232909903E-014
  -1.4550000000000000E-002     1.1882646996593136E-014
  -1.4499999999999999E-002     5.4011590685207175E-015
  -1.4450000000000001E-002    -2.7141277708562125E-015
  -1.4400000000000000E-002    -1.0912381960244864E-014
  -1.4349999999999998E-002    -1.7501556124452374E-014
  -1.4300000000000000E-002    -2.0996757506653460E-014
  -1.4249999999999999E-002    -2.0451707447595291E-014
  -1.4200000000000001E-002    -1.5699185070442616E-014
  -1.4149999999999999E-002    -7.4409623002454412E-015
  -1.4099999999999998E-002     2.8428796990993222E-015
  -1.4050000000000000E-002     1.3157105460463962E-014
  -1.3999999999999999E-002     2.1380102631821847E-014
  -1.3950000000000001E-002     2.5701467821260743E-014
  -1.3899999999999999E-002     2.5017187248327517E-014
  -1.3850000000000001E-002     1.9196688724335667E-014
  -1.3800000000000000E-002     9.1603016147008883E-015
  -1.3749999999999998E-002    -3.2563065880433481E-015
  -1.3700000000000000E-002    -1.5630559780318677E-014
  -1.3649999999999999E-002    -2.5414392774078227E-014
  -1.3600000000000001E-002    -3.0441087292890051E-014
  -1.3550000000000000E-002    -2.9379449633489854E-014
  -1.3499999999999998E-002    -2.2045763320324181E-014
  -1.3450000000000000E-002    -9.5087709047659875E-015
  -1.3399999999999999E-002     6.0404690040029227E-015
  -1.3350000000000001E-002     2.1640519734839494E-014
  -1.3299999999999999E-002     3.4080328969205902E-014
  -1.3249999999999998E-002     4.0503510862229428E-014
  -1.3200000000000000E-002     3.8991303130529992E-014
  -1.3149999999999998E-002     2.9015669463550650E-014
  -1.3100000000000001E-002     1.1667512824468732E-014
  -1.3049999999999999E-002    -1.0403499524492859E-014
  -1.3000000000000001E-002    -3.3354594039601143E-014
  -1.2950000000000000E-002    -5.2782144060426817E-014
  -1.2899999999999998E-002    -6.4524840782009603E-014
  -1.2850000000000000E-002    -6.5495988955313196E-014
  -1.2799999999999999E-002    -5.4379461154880236E-014