  -4.0000000000000001E-002     0.0000000000000000     
  -3.9949999999999999E-002     0.0000000000000000     
  -3.9899999999999998E-002     0.0000000000000000     
  -3.9850000000000003E-002     0.0000000000000000     
  -3.9800000000000002E-002     0.0000000000000000     
  -3.9750000000000001E-002     0.0000000000000000     
  -3.9699999999999999E-002     0.0000000000000000     
  -3.9649999999999998E-002     0.0000000000000000     
  -3.9600000000000003E-002     0.0000000000000000     
  -3.9550000000000002E-002     0.0000000000000000     
  -3.9500000000000000E-002     0.0000000000000000     
  -3.9449999999999999E-002     0.0000000000000000     
  -3.9399999999999998E-002     0.0000000000000000     
  -3.9350000000000003E-002     0.0000000000000000     
  -3.9300000000000002E-002     0.0000000000000000     
  -3.9250000000000000E-002     0.0000000000000000     
  -3.9199999999999999E-002     0.0000000000000000     
  -3.9150000000000004E-002     0.0000000000000000     
  -3.9100000000000003E-002     0.0000000000000000     
  -3.9050000000000001E-002     0.0000000000000000     
  -3.9000000000000000E-002     0.0000000000000000     
  -3.8949999999999999E-002     0.0000000000000000     
  -3.8900000000000004E-002     0.0000000000000000     
  -3.8850000000000003E-002     0.0000000000000000     
  -3.8800000000000001E-002     0.0000000000000000     
  -3.8750000000000000E-002     0.0000000000000000     
  -3.8699999999999998E-002     0.0000000000000000     
  -3.8650000000000004E-002     0.0000000000000000     
  -3.8600000000000002E-002     0.0000000000000000     
  -3.8550000000000001E-002     0.0000000000000000     
  -3.8500000000000000E-002     0.0000000000000000     
  -3.8449999999999998E-002     0.0000000000000000     
  -3.8400000000000004E-002     0.0000000000000000     
  -3.8350000000000002E-002     0.0000000000000000     
  -3.8300000000000001E-002     0.0000000000000000     
  -3.8249999999999999E-002     0.0000000000000000     
  -3.8199999999999998E-002     0.0000000000000000     
  -3.8150000000000003E-002     0.0000000000000000     
  -3.8100000000000002E-002     0.0000000000000000     
  -3.8050000000000000E-002     0.0000000000000000     
  -3.7999999999999999E-002     0.0000000000000000     
  -3.7949999999999998E-002     0.0000000000000000     
  -3.7900000000000003E-002     0.0000000000000000     
  -3.7850000000000002E-002     0.0000000000000000     
  -3.7800000000000000E-002     0.0000000000000000     
  -3.7749999999999999E-002     0.0000000000000000     
  -3.7699999999999997E-002     0.0000000000000000     
  -3.7650000000000003E-002     0.0000000000000000     
  -3.7600000000000001E-002     0.0000000000000000     
  -3.7550000000000000E-002     0.0000000000000000     
  -3.7499999999999999E-002     0.0000000000000000     
  -3.7449999999999997E-002     0.0000000000000000     
  -3.7400000000000003E-002     0.0000000000000000     
  -3.7350000000000001E-002     0.0000000000000000     
  -3.7300000000000000E-002     0.0000000000000000     
  -3.7249999999999998E-002     0.0000000000000000     
  -3.7200000000000004E-002     0.0000000000000000     
  -3.7150000000000002E-002     0.0000000000000000     
  -3.7100000000000001E-002     0.0000000000000000     
  -3.7050000000000000E-002     0.0000000000000000     
  -3.6999999999999998E-002     0.0000000000000000     
  -3.6950000000000004E-002     0.0000000000000000     
  -3.6900000000000002E-002     0.0000000000000000     
  -3.6850000000000001E-002     0.0000000000000000     
  -3.6799999999999999E-002     0.0000000000000000     
  -3.6749999999999998E-002     0.0000000000000000     
  -3.6700000000000003E-002     0.0000000000000000     
  -3.6650000000000002E-002     0.0000000000000000     
  -3.6600000000000001E-002     0.0000000000000000     
  -3.6549999999999999E-002     0.0000000000000000     
  -3.6499999999999998E-002     0.0000000000000000     
  -3.6450000000000003E-002     0.0000000000000000     
  -3.6400000000000002E-002     0.0000000000000000     
  -3.6350000000000000E-002     0.0000000000000000     
  -3.6299999999999999E-002     0.0000000000000000     
  -3.6249999999999998E-002     0.0000000000000000     
  -3.6200000000000003E-002     0.0000000000000000     
  -3.6150000000000002E-002     0.0000000000000000     
  -3.6100000000000000E-002     0.0000000000000000     
  -3.6049999999999999E-002     0.0000000000000000     
  -3.6000000000000004E-002     0.0000000000000000     
  -3.5950000000000003E-002     0.0000000000000000     
  -3.5900000000000001E-002     0.0000000000000000     
  -3.5850000000000000E-002     0.0000000000000000     
  -3.5799999999999998E-002     0.0000000000000000     
  -3.5750000000000004E-002     0.0000000000000000     
  -3.5700000000000003E-002     0.0000000000000000     
  -3.5650000000000001E-002     0.0000000000000000     
  -3.5600000000000000E-002     0.0000000000000000     
  -3.5549999999999998E-002     0.0000000000000000     
  -3.5500000000000004E-002     0.0000000000000000     
  -3.5450000000000002E-002     0.0000000000000000     
  -3.5400000000000001E-002     0.0000000000000000     
  -3.5349999999999999E-002     0.0000000000000000     
  -3.5299999999999998E-002     0.0000000000000000     
  -3.5250000000000004E-002     0.0000000000000000     
  -3.5200000000000002E-002     0.0000000000000000     
  -3.5150000000000001E-002     0.0000000000000000     
  -3.5099999999999999E-002     0.0000000000000000     
  -3.5049999999999998E-002     0.0000000000000000     
  -3.5000000000000003E-002     0.0000000000000000     
  -3.4950000000000002E-002     0.0000000000000000     
  -3.4900000000000000E-002     0.0000000000000000     
  -3.4849999999999999E-002     0.0000000000000000     
  -3.4799999999999998E-002     0.0000000000000000     
  -3.4750000000000003E-002     0.0000000000000000     
  -3.4700000000000002E-002     0.0000000000000000     
  -3.4650000000000000E-002     0.0000000000000000     
  -3.4599999999999999E-002     0.0000000000000000     
  -3.4549999999999997E-002     0.0000000000000000     
  -3.4500000000000003E-002     0.0000000000000000     
  -3.4450000000000001E-002     0.0000000000000000     
  -3.4400000000000000E-002     0.0000000000000000     
  -3.4349999999999999E-002     0.0000000000000000     
  -3.4299999999999997E-002     0.0000000000000000     
  -3.4250000000000003E-002     0.0000000000000000     
  -3.4200000000000001E-002     0.0000000000000000     
  -3.4150000000000000E-002     0.0000000000000000     
  -3.4099999999999998E-002     0.0000000000000000     
  -3.4049999999999997E-002     0.0000000000000000     
  -3.4000000000000002E-002     0.0000000000000000     
  -3.3950000000000001E-002     0.0000000000000000     
  -3.3900000000000000E-002     0.0000000000000000     
  -3.3849999999999998E-002     0.0000000000000000     
  -3.3799999999999997E-002     0.0000000000000000     
  -3.3750000000000002E-002     0.0000000000000000     
  -3.3700000000000001E-002     0.0000000000000000     
  -3.3649999999999999E-002     0.0000000000000000     
  -3.3599999999999998E-002     0.0000000000000000     
  -3.3550000000000003E-002     0.0000000000000000     
  -3.3500000000000002E-002     0.0000000000000000     
  -3.3450000000000001E-002     0.0000000000000000     
  -3.3399999999999999E-002     0.0000000000000000     
  -3.3349999999999998E-002     0.0000000000000000     
  -3.3300000000000003E-002     0.0000000000000000     
  -3.3250000000000002E-002     0.0000000000000000     
  -3.3200000000000000E-002     0.0000000000000000     
  -3.3149999999999999E-002     0.0000000000000000     
  -3.3099999999999997E-002     0.0000000000000000     
  -3.3050000000000003E-002     0.0000000000000000     
  -3.3000000000000002E-002     0.0000000000000000     
  -3.2950000000000000E-002     0.0000000000000000     
  -3.2899999999999999E-002     0.0000000000000000     
  -3.2850000000000004E-002     0.0000000000000000     
  -3.2800000000000003E-002     0.0000000000000000     
  -3.2750000000000001E-002     0.0000000000000000     
  -3.2700000000000000E-002     0.0000000000000000     
  -3.2649999999999998E-002     0.0000000000000000     
  -3.2600000000000004E-002     0.0000000000000000     
  -3.2550000000000003E-002     0.0000000000000000     
  -3.2500000000000001E-002     0.0000000000000000     
  -3.2450000000000000E-002     0.0000000000000000     
  -3.2399999999999998E-002     0.0000000000000000     
  -3.2350000000000004E-002     0.0000000000000000     
  -3.2300000000000002E-002     0.0000000000000000     
  -3.2250000000000001E-002     0.0000000000000000     
  -3.2199999999999999E-002     0.0000000000000000     
  -3.2149999999999998E-002     0.0000000000000000     
  -3.2100000000000004E-002     0.0000000000000000     
  -3.2050000000000002E-002     0.0000000000000000     
  -3.2000000000000001E-002     0.0000000000000000     
  -3.1949999999999999E-002     0.0000000000000000     
  -3.1899999999999998E-002     0.0000000000000000     
  -3.1850000000000003E-002     0.0000000000000000     
  -3.1800000000000002E-002     0.0000000000000000     
  -3.1750000000000000E-002     0.0000000000000000     
  -3.1699999999999999E-002     0.0000000000000000     
  -3.1649999999999998E-002     0.0000000000000000     
  -3.1600000000000003E-002     0.0000000000000000     
  -3.1550000000000002E-002     0.0000000000000000     
  -3.1500000000000000E-002     0.0000000000000000     
  -3.1449999999999999E-002     0.0000000000000000     
  -3.1399999999999997E-002     0.0000000000000000     
  -3.1350000000000003E-002     0.0000000000000000     
  -3.1300000000000001E-002     0.0000000000000000     
  -3.1250000000000000E-002     0.0000000000000000     
  -3.1199999999999999E-002     0.0000000000000000     
  -3.1150000000000001E-002     0.0000000000000000     
  -3.1100000000000003E-002     0.0000000000000000     
  -3.1050000000000001E-002     0.0000000000000000     
  -3.1000000000000000E-002     0.0000000000000000     
  -3.0949999999999998E-002     0.0000000000000000     
  -3.0900000000000000E-002     0.0000000000000000     
  -3.0850000000000002E-002     0.0000000000000000     
  -3.0800000000000001E-002     0.0000000000000000     
  -3.0750000000000000E-002     0.0000000000000000     
  -3.0699999999999998E-002     0.0000000000000000     
  -3.0650000000000000E-002     0.0000000000000000     
  -3.0600000000000002E-002     0.0000000000000000     
  -3.0550000000000001E-002     0.0000000000000000     
  -3.0499999999999999E-002     0.0000000000000000     
  -3.0449999999999998E-002     0.0000000000000000     
  -3.0400000000000000E-002     0.0000000000000000     
  -3.0350000000000002E-002     0.0000000000000000     
  -3.0300000000000001E-002     0.0000000000000000     
  -3.0249999999999999E-002     0.0000000000000000     
  -3.0200000000000001E-002     0.0000000000000000     
  -3.0150000000000000E-002     0.0000000000000000     
  -3.0100000000000002E-002     0.0000000000000000     
  -3.0050000000000000E-002     0.0000000000000000     
  -2.9999999999999999E-002     0.0000000000000000     
  -2.9950000000000001E-002     0.0000000000000000     
  -2.9899999999999999E-002     0.0000000000000000     
  -2.9850000000000002E-002     0.0000000000000000     
  -2.9800000000000000E-002     0.0000000000000000     
  -2.9749999999999999E-002     0.0000000000000000     
  -2.9700000000000001E-002     0.0000000000000000     
  -2.9650000000000003E-002     0.0000000000000000     
  -2.9600000000000001E-002     0.0000000000000000     
  -2.9550000000000000E-002     0.0000000000000000     
  -2.9499999999999998E-002     0.0000000000000000     
  -2.9450000000000000E-002     0.0000000000000000     
  -2.9400000000000003E-002     0.0000000000000000     
  -2.9350000000000001E-002     0.0000000000000000     
  -2.9300000000000000E-002     0.0000000000000000     
  -2.9249999999999998E-002     0.0000000000000000     
  -2.9200000000000000E-002     0.0000000000000000     
  -2.9150000000000002E-002     0.0000000000000000     
  -2.9100000000000001E-002     0.0000000000000000     
  -2.9049999999999999E-002     0.0000000000000000     
  -2.8999999999999998E-002     0.0000000000000000     
  -2.8950000000000000E-002     0.0000000000000000     
  -2.8900000000000002E-002     0.0000000000000000     
  -2.8850000000000001E-002     0.0000000000000000     
  -2.8799999999999999E-002     0.0000000000000000     
  -2.8749999999999998E-002     0.0000000000000000     
  -2.8700000000000000E-002     0.0000000000000000     
  -2.8650000000000002E-002     0.0000000000000000     
  -2.8600000000000000E-002     0.0000000000000000     
  -2.8549999999999999E-002     0.0000000000000000     
  -2.8500000000000001E-002     0.0000000000000000     
  -2.8450000000000000E-002     0.0000000000000000     
  -2.8400000000000002E-002     0.0000000000000000     
  -2.8350000000000000E-002     0.0000000000000000     
  -2.8299999999999999E-002     0.0000000000000000     
  -2.8250000000000001E-002     0.0000000000000000     
  -2.8200000000000003E-002     0.0000000000000000     
  -2.8150000000000001E-002     0.0000000000000000     
  -2.8100000000000000E-002     0.0000000000000000     
  -2.8049999999999999E-002     0.0000000000000000     
  -2.8000000000000001E-002    -9.6620549228009462E-040
  -2.7950000000000003E-002    -1.9218765235792050E-039
  -2.7900000000000001E-002     2.0382675907900957E-039
  -2.7850000000000000E-002     9.6679617309739561E-039
  -2.7799999999999998E-002     1.7267651061005547E-038
  -2.7750000000000000E-002     1.6010137340804242E-038
  -2.7700000000000002E-002    -1.0974774188083487E-039
  -2.7650000000000001E-002    -5.4559233630760499E-038
  -2.7600000000000000E-002    -1.2669875094731773E-037
  -2.7549999999999998E-002    -1.6080359372275919E-037
  -2.7500000000000000E-002    -9.3185158545655660E-038
  -2.7450000000000002E-002     9.7762689026409904E-038
  -2.7400000000000001E-002     3.5239762999548654E-037
  -2.7349999999999999E-002     5.5676065776860859E-037
  -2.7299999999999998E-002     5.6866758546410126E-037
  -2.7250000000000000E-002     2.7951123225811511E-037
  -2.7200000000000002E-002    -3.0607025731821421E-037
  -2.7150000000000001E-002    -1.0265979882010504E-036
  -2.7099999999999999E-002    -1.5839714409441602E-036
  -2.7049999999999998E-002    -1.6535153798358775E-036
  -2.7000000000000000E-002    -1.0346640202357034E-036
  -2.6950000000000002E-002     2.2491461217960747E-037
  -2.6900000000000000E-002     1.7853834571268879E-036
  -2.6849999999999999E-002     3.0939638556769508E-036
  -2.6800000000000001E-002     3.5727261488958532E-036
  -2.6749999999999999E-002     2.8788853355712933E-036
  -2.6700000000000002E-002     1.1181980051318954E-036
  -2.6650000000000000E-002    -1.1693529083683201E-036
  -2.6599999999999999E-002    -3.1755390437971297E-036
  -2.6550000000000001E-002    -4.2945251050259166E-036
  -2.6500000000000003E-002    -4.5282033089768047E-036
  -2.6450000000000001E-002    -4.5728739908979697E-036
  -2.6400000000000000E-002    -5.3454020062292829E-036
  -2.6349999999999998E-002    -7.0263878375092098E-036
  -2.6300000000000000E-002    -8.0995684292918461E-036
  -2.6250000000000002E-002    -5.1717561469105568E-036
  -2.6200000000000001E-002     5.7320916410273204E-036
  -2.6150000000000000E-002     2.6341789834123010E-035
  -2.6099999999999998E-002     5.2734120345259148E-035
  -2.6050000000000000E-002     7.3318784961641759E-035
  -2.6000000000000002E-002     7.0471329119593098E-035
  -2.5950000000000001E-002     2.7144555596949128E-035
  -2.5899999999999999E-002    -6.2482261871330143E-035
  -2.5849999999999998E-002    -1.8219878219892905E-034
  -2.5800000000000000E-002    -2.8894944132531994E-034
  -2.5750000000000002E-002    -3.2009796204828325E-034
  -2.5700000000000001E-002    -2.1535513880043069E-034
  -2.5649999999999999E-002     5.0732677425830329E-035
  -2.5599999999999998E-002     4.3755178220729310E-034
  -2.5550000000000000E-002     8.2528342808681596E-034
  -2.5500000000000002E-002     1.0350867472523464E-033
  -2.5450000000000000E-002     8.8751865576973708E-034
  -2.5399999999999999E-002     2.8682275226808171E-034
  -2.5349999999999998E-002    -6.9936503692095613E-034
  -2.5300000000000000E-002    -1.8051570091675240E-033
  -2.5250000000000002E-002    -2.6099696197011717E-033
  -2.5200000000000000E-002    -2.6681674704673051E-033
  -2.5149999999999999E-002    -1.6937509356045277E-033
  -2.5100000000000001E-002     2.6728141575075639E-034
  -2.5049999999999999E-002     2.7590144761413767E-033
  -2.5000000000000001E-002     4.9932273752685578E-033
  -2.4950000000000000E-002     6.0866915294052811E-033
  -2.4899999999999999E-002     5.3881605020794739E-033
  -2.4850000000000001E-002     2.7670688062432994E-033
  -2.4800000000000003E-002    -1.2712912315750872E-033
  -2.4750000000000001E-002    -5.7186090112875327E-033
  -2.4700000000000000E-002    -9.4056559120170038E-033
  -2.4649999999999998E-002    -1.1398843044817632E-032
  -2.4600000000000000E-002    -1.1244263333676273E-032
  -2.4550000000000002E-002    -8.9142999497557156E-033
  -2.4500000000000001E-002    -4.4858822399150166E-033
  -2.4450000000000000E-002     2.2073164710398874E-033
  -2.4399999999999998E-002     1.1580791193429529E-032
  -2.4350000000000000E-002     2.3681172552239345E-032
  -2.4299999999999999E-002     3.7003517326760526E-032
  -2.4250000000000001E-002     4.7300605329743698E-032
  -2.4199999999999999E-002     4.7347874740971344E-032
  -2.4150000000000001E-002     2.8632433294434582E-032
  -2.4100000000000000E-002    -1.4684074881110487E-032
  -2.4049999999999998E-002    -8.0378453041597172E-032
  -2.4000000000000000E-002    -1.5358119980870564E-031
  -2.3949999999999999E-002    -2.0607328865865327E-031
  -2.3900000000000001E-002    -2.0213057188289829E-031
  -2.3850000000000000E-002    -1.1151247951024531E-031
  -2.3800000000000002E-002     7.3213192878162238E-032
  -2.3750000000000000E-002     3.2138800016810140E-031
  -2.3699999999999999E-002     5.5938136635211525E-031
  -2.3650000000000001E-002     6.8318389791585880E-031
  -2.3599999999999999E-002     5.9029212665508724E-031
  -2.3550000000000001E-002     2.2445500665460011E-031
  -2.3500000000000000E-002    -3.8157449798073764E-031
  -2.3449999999999999E-002    -1.0848312000455083E-030
  -2.3400000000000001E-002    -1.6494749993700777E-030
  -2.3349999999999999E-002    -1.8086404114027991E-030
  -2.3300000000000001E-002    -1.3595174654579832E-030
  -2.3250000000000000E-002    -2.6280819020714194E-031
  -2.3199999999999998E-002     1.2924743367780200E-030
  -2.3150000000000000E-002     2.8941641007728414E-030
  -2.3099999999999999E-002     3.9977627621040664E-030
  -2.3050000000000001E-002     4.0879262717780552E-030
  -2.3000000000000000E-002     2.8646157104873754E-030
  -2.2950000000000002E-002     3.8990221789910341E-031
  -2.2900000000000000E-002    -2.8635208979567627E-030
  -2.2849999999999999E-002    -6.0914897681457471E-030
  -2.2800000000000001E-002    -8.3500359068897634E-030
  -2.2749999999999999E-002    -8.8029328768531374E-030
  -2.2700000000000001E-002    -6.9489813495493759E-030
  -2.2650000000000000E-002    -2.7657667092281584E-030
  -2.2599999999999999E-002     3.2534640462910287E-030
  -2.2550000000000001E-002     1.0147263447900412E-029
  -2.2499999999999999E-002     1.6571397959811297E-029
  -2.2450000000000001E-002     2.0893800225277371E-029
  -2.2400000000000000E-002     2.1326714675124572E-029
  -2.2349999999999998E-002     1.6184919955953240E-029
  -2.2300000000000000E-002     4.3731436885188356E-030
  -2.2249999999999999E-002    -1.3872858846171832E-029
  -2.2200000000000001E-002    -3.6144965768785580E-029
  -2.2150000000000000E-002    -5.7295980016993777E-029
  -2.2100000000000002E-002    -6.9672243533308308E-029
  -2.2050000000000000E-002    -6.4612158190366834E-029
  -2.1999999999999999E-002    -3.5322658605450528E-029
  -2.1950000000000001E-002     1.9377699636305731E-029
  -2.1899999999999999E-002     9.1666640009181132E-029
  -2.1850000000000001E-002     1.6336903428200555E-028
  -2.1800000000000000E-002     2.0824444555322096E-028
  -2.1749999999999999E-002     1.9862461238082869E-028
  -2.1700000000000001E-002     1.1553009824174446E-028
  -2.1649999999999999E-002    -4.0458288459465022E-029
  -2.1600000000000001E-002    -2.4169660126859076E-028
  -2.1550000000000000E-002    -4.3363010095433502E-028
  -2.1499999999999998E-002    -5.4531210751827634E-028
  -2.1450000000000000E-002    -5.0977191136424370E-028
  -2.1399999999999999E-002    -2.8965374970114414E-028
  -2.1350000000000001E-002     9.9919018506746703E-029
  -2.1299999999999999E-002     5.8060366487400168E-028
  -2.1250000000000002E-002     1.0195873217131226E-027
  -2.1200000000000000E-002     1.2598754290062529E-027
  -2.1149999999999999E-002     1.1667940481387713E-027
  -2.1100000000000001E-002     6.7832719701420912E-028
  -2.1049999999999999E-002    -1.5707017439894795E-028
  -2.1000000000000001E-002    -1.1703901294378362E-027
  -2.0950000000000000E-002    -2.0982156080464675E-027
  -2.0899999999999998E-002    -2.6429522195272601E-027
  -2.0850000000000000E-002    -2.5538013943617554E-027
  -2.0799999999999999E-002    -1.7072371766630661E-027
  -2.0750000000000001E-002    -1.6410958547353498E-028
  -2.0700000000000000E-002     1.8141946067590060E-027
  -2.0649999999999998E-002     3.7977518039021373E-027
  -2.0600000000000000E-002     5.2638580731399860E-027
  -2.0549999999999999E-002     5.7031493642215255E-027
  -2.0500000000000001E-002     4.7384649519602241E-027
  -2.0449999999999999E-002     2.2386640010180805E-027
  -2.0400000000000001E-002    -1.5895921741200637E-027
  -2.0350000000000000E-002    -6.1507170204058175E-027
  -2.0299999999999999E-002    -1.0473228664636539E-026
  -2.0250000000000001E-002    -1.3314837733598433E-026
  -2.0199999999999999E-002    -1.3383245436056848E-026
  -2.0150000000000001E-002    -9.6746135834697028E-027
  -2.0100000000000000E-002    -1.8884735958172024E-027
  -2.0049999999999998E-002     9.1798813112684784E-027
  -2.0000000000000000E-002     2.1420649392511865E-026
  -1.9949999999999999E-002     3.1532555664574981E-026
  -1.9900000000000001E-002     3.5609325846561008E-026
  -1.9850000000000000E-002     3.0189034069758487E-026
  -1.9799999999999998E-002     1.3584828722908421E-026
  -1.9750000000000000E-002    -1.2872301103627930E-026
  -1.9699999999999999E-002    -4.4166837238877241E-026
  -1.9650000000000001E-002    -7.1968988878626375E-026
  -1.9599999999999999E-002    -8.6285535757399647E-026
  -1.9550000000000001E-002    -7.8246263948875498E-026
  -1.9500000000000000E-002    -4.3416391278851112E-026
  -1.9449999999999999E-002     1.5360128102975697E-026
  -1.9400000000000001E-002     8.6715722855147580E-026
  -1.9349999999999999E-002     1.5200276572479771E-025
  -1.9300000000000001E-002     1.8928945451351996E-025
  -1.9250000000000000E-002     1.7948973860965838E-025
  -1.9199999999999998E-002     1.1312879783501920E-025
  -1.9150000000000000E-002    -4.3176605717015461E-027
  -1.9099999999999999E-002    -1.5055224940706146E-025
  -1.9050000000000001E-002    -2.8938492471330333E-025
  -1.9000000000000000E-002    -3.7851234674719753E-025
  -1.8949999999999998E-002    -3.8068368013543068E-025
  -1.8900000000000000E-002    -2.7550748917643304E-025
  -1.8849999999999999E-002    -6.8554521440405796E-026
  -1.8800000000000001E-002     2.0524922400923553E-025
  -1.8749999999999999E-002     4.8568800888572817E-025
  -1.8700000000000001E-002     6.9867994125054731E-025
  -1.8650000000000000E-002     7.7303376713523814E-025
  -1.8599999999999998E-002     6.5903962490988696E-025
  -1.8550000000000001E-002     3.4473959133118399E-025
  -1.8499999999999999E-002    -1.3402987797444918E-025
  -1.8450000000000001E-002    -6.9275092700641037E-025
  -1.8400000000000000E-002    -1.2080090671201104E-024
  -1.8349999999999998E-002    -1.5378682500270835E-024
  -1.8300000000000000E-002    -1.5510570228355173E-024
  -1.8249999999999999E-002    -1.1612882046803085E-024
  -1.8200000000000001E-002    -3.6090911062211079E-025
  -1.8149999999999999E-002     7.5406174130697674E-025
  -1.8100000000000002E-002     1.9768496669082644E-024
  -1.8050000000000000E-002     3.0096130915097568E-024
  -1.7999999999999999E-002     3.5150533267561614E-024
  -1.7950000000000001E-002     3.1976398970315323E-024
  -1.7899999999999999E-002     1.9016702835755180E-024
  -1.7850000000000001E-002    -2.9761470496114077E-025
  -1.7800000000000000E-002    -3.0411044880038058E-024
  -1.7749999999999998E-002    -5.7018257340397008E-024
  -1.7700000000000000E-002    -7.4889548100148465E-024
  -1.7649999999999999E-002    -7.6361287743816008E-024
  -1.7600000000000001E-002    -5.6407391704781907E-024
  -1.7550000000000000E-002    -1.4930206159649690E-024
  -1.7499999999999998E-002     4.1817625452022065E-024
  -1.7450000000000000E-002     1.0138569428811781E-023
  -1.7399999999999999E-002     1.4723752171534129E-023
  -1.7350000000000001E-002     1.6266932742507826E-023
  -1.7299999999999999E-002     1.3575954626515255E-023
  -1.7250000000000001E-002     6.4054446545375000E-024
  -1.7200000000000000E-002    -4.2517316210664846E-024
  -1.7149999999999999E-002    -1.6178009044059642E-023
  -1.7100000000000001E-002    -2.6308971406162461E-023
  -1.7049999999999999E-002    -3.1434744998846006E-023
  -1.7000000000000001E-002    -2.9079153262052173E-023
  -1.6950000000000000E-002    -1.8333301445535401E-023
  -1.6899999999999998E-002    -3.9862603402535544E-025
  -1.6850000000000000E-002     2.1358209278267216E-023
  -1.6799999999999999E-002     4.1925773949647347E-023
  -1.6750000000000001E-002     5.5684635982907198E-023
  -1.6700000000000000E-002     5.7757775695090938E-023
  -1.6649999999999998E-002     4.5371238688757904E-023
  -1.6600000000000000E-002     1.8891124740856952E-023
  -1.6549999999999999E-002    -1.7747878588173235E-023
  -1.6500000000000001E-002    -5.7392655899694161E-023
  -1.6449999999999999E-002    -9.0817016186631654E-023
  -1.6400000000000001E-002    -1.0851878974006092E-022
  -1.6350000000000000E-002    -1.0288503138236747E-022
  -1.6299999999999999E-002    -7.0337811877899790E-023
  -1.6250000000000001E-002    -1.3014789401687168E-023
  -1.6199999999999999E-002     6.0466339727806036E-023
  -1.6150000000000001E-002     1.3554489266677234E-022
  -1.6100000000000000E-002     1.9378395272093226E-022
  -1.6049999999999998E-002     2.1642545735234908E-022
  -1.6000000000000000E-002     1.8901793388318489E-022
  -1.5949999999999999E-002     1.0627399280528003E-022
  -1.5900000000000001E-002    -2.4056188644616109E-023
  -1.5850000000000000E-002    -1.7967092634920959E-022
  -1.5799999999999998E-002    -3.2573982643557014E-022
  -1.5750000000000000E-002    -4.2099504306013991E-022
  -1.5699999999999999E-002    -4.2737156859123810E-022
  -1.5650000000000001E-002    -3.2142835599675733E-022
  -1.5599999999999999E-002    -1.0469373416322908E-022
  -1.5550000000000001E-002     1.9043056389686892E-022
  -1.5500000000000000E-002     5.0215116901280192E-022
  -1.5449999999999998E-002     7.4961360998716063E-022
  -1.5400000000000000E-002     8.5120701588509641E-022
  -1.5349999999999999E-002     7.4732142455348879E-022
  -1.5300000000000001E-002     4.2187004127844712E-022
  -1.5250000000000000E-002    -8.3988852233408191E-023
  -1.5199999999999998E-002    -6.7153015881156317E-022
  -1.5150000000000000E-002    -1.2002712292638149E-021
  -1.5099999999999999E-002    -1.5184149433012662E-021
  -1.5050000000000001E-002    -1.5019191085000059E-021
  -1.4999999999999999E-002    -1.0927325697321605E-021
  -1.4949999999999998E-002    -3.2552379175406790E-022
  -1.4900000000000000E-002     6.6608448883825266E-022
  -1.4849999999999999E-002     1.6683322800757142E-021
  -1.4800000000000001E-002     2.4295811872756225E-021
  -1.4749999999999999E-002     2.7180692949859495E-021
  -1.4700000000000001E-002     2.3824457316570281E-021
  -1.4650000000000000E-002     1.4005060597965374E-021
  -1.4599999999999998E-002    -9.6821295269502790E-023
  -1.4550000000000000E-002    -1.8344222350218845E-021
  -1.4499999999999999E-002    -3.4362817150636674E-021
  -1.4450000000000001E-002    -4.4972284796544719E-021
  -1.4400000000000000E-002    -4.6709718299631984E-021
  -1.4349999999999998E-002    -3.7580025237114918E-021
  -1.4300000000000000E-002    -1.7753019103704315E-021
  -1.4249999999999999E-002     1.0091154719707132E-021
  -1.4200000000000001E-002     4.0899536978739027E-021
  -1.4149999999999999E-002     6.7932220398715814E-021
  -1.4099999999999998E-002     8.3969225124164483E-021
  -1.4050000000000000E-002     8.2896111971484460E-021
  -1.3999999999999999E-002     6.1402337772717855E-021
  -1.3950000000000001E-002     2.0420480443741889E-021
  -1.3899999999999999E-002    -3.4116718946154610E-021
  -1.3850000000000001E-002    -9.1581008064538584E-021
  -1.3800000000000000E-002    -1.3822928982349797E-020
  -1.3749999999999998E-002    -1.5999090267426247E-020
  -1.3700000000000000E-002    -1.4603469455644684E-020
  -1.3649999999999999E-002    -9.2345786414129509E-021
  -1.3600000000000001E-002    -4.3273670525921032E-022
  -1.3550000000000000E-002     1.0253724484868711E-020
  -1.3499999999999998E-002     2.0461015199080104E-020
  -1.3450000000000000E-002     2.7466693205557312E-020
  -1.3399999999999999E-002     2.8841010381108112E-020
  -1.3350000000000001E-002     2.3151673762948777E-020
  -1.3299999999999999E-002     1.0536247616666182E-020
  -1.3249999999999998E-002    -7.0422200627628112E-021
  -1.3200000000000000E-002    -2.5984825978347477E-020
  -1.3149999999999998E-002    -4.1717028623674868E-020
  -1.3100000000000001E-002    -4.9717160205588517E-020
  -1.3049999999999999E-002    -4.6693347078176465E-020
  -1.3000000000000001E-002    -3.1616601253172851E-020
  -1.2950000000000000E-002    -6.3181613643955880E-021
  -1.2899999999999998E-002     2.4560643084447575E-020
  -1.2850000000000000E-002     5.4331649516161569E-020
  -1.2799999999999999E-002     7.5624944564009870E-020