  -4.0000000000000001E-002     0.0000000000000000     
  -3.9949999999999999E-002     0.0000000000000000     
  -3.9899999999999998E-002     0.0000000000000000     
  -3.9850000000000003E-002     0.0000000000000000     
  -3.9800000000000002E-002     0.0000000000000000     
  -3.9750000000000001E-002     0.0000000000000000     
  -3.9699999999999999E-002     0.0000000000000000     
  -3.9649999999999998E-002     0.0000000000000000     
  -3.9600000000000003E-002     0.0000000000000000     
  -3.9550000000000002E-002     0.0000000000000000     
  -3.9500000000000000E-002     0.0000000000000000     
  -3.9449999999999999E-002     0.0000000000000000     
  -3.9399999999999998E-002     0.0000000000000000     
  -3.9350000000000003E-002     0.0000000000000000     
  -3.9300000000000002E-002     0.0000000000000000     
  -3.9250000000000000E-002     0.0000000000000000     
  -3.9199999999999999E-002     0.0000000000000000     
  -3.9150000000000004E-002     0.0000000000000000     
  -3.9100000000000003E-002     0.0000000000000000     
  -3.9050000000000001E-002     0.0000000000000000     
  -3.9000000000000000E-002     0.0000000000000000     
  -3.8949999999999999E-002     0.0000000000000000     
  -3.8900000000000004E-002     0.0000000000000000     
  -3.8850000000000003E-002     0.0000000000000000     
  -3.8800000000000001E-002     0.0000000000000000     
  -3.8750000000000000E-002     0.0000000000000000     
  -3.8699999999999998E-002     0.0000000000000000     
  -3.8650000000000004E-002     0.0000000000000000     
  -3.8600000000000002E-002     0.0000000000000000     
  -3.8550000000000001E-002     0.0000000000000000     
  -3.8500000000000000E-002     0.0000000000000000     
  -3.8449999999999998E-002     0.0000000000000000     
  -3.8400000000000004E-002     0.0000000000000000     
  -3.8350000000000002E-002     0.0000000000000000     
  -3.8300000000000001E-002     0.0000000000000000     
  -3.8249999999999999E-002     0.0000000000000000     
  -3.8199999999999998E-002     0.0000000000000000     
  -3.8150000000000003E-002     0.0000000000000000     
  -3.8100000000000002E-002     0.0000000000000000     
  -3.8050000000000000E-002     0.0000000000000000     
  -3.7999999999999999E-002     0.0000000000000000     
  -3.7949999999999998E-002     0.0000000000000000     
  -3.7900000000000003E-002     0.0000000000000000     
  -3.7850000000000002E-002     2.0387863246167579E-039
  -3.7800000000000000E-002     4.8703031808620616E-039
  -3.7749999999999999E-002     2.7388207898164986E-039
  -3.7699999999999997E-002    -1.0783213334967570E-038
  -3.7650000000000003E-002    -5.3886819500182989E-038
  -3.7600000000000001E-002    -1.5745030502959348E-037
  -3.7550000000000000E-002    -2.6456103343460360E-037
  -3.7499999999999999E-002    -2.3409961433222807E-037
  -3.7449999999999997E-002     2.4279969580067411E-037
  -3.7400000000000003E-002     1.6075733922693551E-036
  -3.7350000000000001E-002     4.1463793772904591E-036
  -3.7300000000000000E-002     7.3106519643924539E-036
  -3.7249999999999998E-002     8.6535673810668830E-036
  -3.7200000000000004E-002     2.8710808071565859E-036
  -3.7150000000000002E-002    -1.7728464993228438E-035
  -3.7100000000000001E-002    -5.9309225059034392E-035
  -3.7050000000000000E-002    -1.1741084526018141E-034
  -3.6999999999999998E-002    -1.6345559232354939E-034
  -3.6950000000000004E-002    -1.3322629917801101E-034
  -3.6900000000000002E-002     6.8824027853821045E-035
  -3.6850000000000001E-002     5.3055022778815942E-034
  -3.6799999999999999E-002     1.2447303612286488E-033
  -3.6749999999999998E-002     1.9833726198908566E-033
  -3.6700000000000003E-002     2.1881194718804272E-033
  -3.6650000000000002E-002     9.8386771118918549E-034
  -3.6600000000000001E-002    -2.5483618521919409E-033
  -3.6549999999999999E-002    -8.7455875901944033E-033
  -3.6499999999999998E-002    -1.6446437973318875E-032
  -3.6450000000000003E-002    -2.2118900290504665E-032
  -3.6400000000000002E-002    -1.9679417708664067E-032
  -3.6350000000000000E-002    -1.8274114763264861E-033
  -3.6299999999999999E-002     3.6486085041150705E-032
  -3.6249999999999998E-002     9.2645129026850808E-032
  -3.6200000000000003E-002     1.5063120214707293E-031
  -3.6150000000000002E-002     1.7825966868496341E-031
  -3.6100000000000000E-002     1.3172737571397287E-031
  -3.6049999999999999E-002    -2.9048270515249035E-032
  -3.6000000000000004E-002    -3.1464792557349906E-031
  -3.5950000000000003E-002    -6.7703039417955218E-031
  -3.5900000000000001E-002    -9.9170230099173736E-031
  -3.5850000000000000E-002    -1.0695750080283074E-030
  -3.5799999999999998E-002    -7.1143735978545080E-031
  -3.5750000000000004E-002     1.9977009178702421E-031
  -3.5700000000000003E-002     1.5998554375287455E-030
  -3.5650000000000001E-002     3.1898418576791467E-030
  -3.5600000000000000E-002     4.4779264583175886E-030
  -3.5549999999999998E-002     4.9266024564534537E-030
  -3.5500000000000004E-002     4.1438350748571816E-030
  -3.5450000000000002E-002     1.9945585124178997E-030
  -3.5400000000000001E-002    -1.4845124731413297E-030
  -3.5349999999999999E-002    -6.3603532786523292E-030
  -3.5299999999999998E-002    -1.3042662283065541E-029
  -3.5250000000000004E-002    -2.2066946111377235E-029
  -3.5200000000000002E-002    -3.3041803729175353E-029
  -3.5150000000000001E-002    -4.2825297272300154E-029
  -3.5099999999999999E-002    -4.3812553480586975E-029
  -3.5049999999999998E-002    -2.4034926704957770E-029
  -3.5000000000000003E-002     2.9075652423562570E-029
  -3.4950000000000002E-002     1.2056394607575889E-028
  -3.4900000000000000E-002     2.3736971411990056E-028
  -3.4849999999999999E-002     3.4035455166946435E-028
  -3.4799999999999998E-002     3.6591941728007845E-028
  -3.4750000000000003E-002     2.4278427314764121E-028
  -3.4700000000000002E-002    -7.6239616798509887E-029
  -3.4650000000000000E-002    -5.7637634287045664E-028
  -3.4599999999999999E-002    -1.1535395894473790E-027
  -3.4549999999999997E-002    -1.6157430631766264E-027
  -3.4500000000000003E-002    -1.7235683306965912E-027
  -3.4450000000000001E-002    -1.2639458245763698E-027
  -3.4400000000000000E-002    -1.3452904560720392E-028
  -3.4349999999999999E-002     1.5918386994062890E-027
  -3.4299999999999997E-002     3.6447210763941279E-027
  -3.4250000000000003E-002     5.5762379306670169E-027
  -3.4200000000000001E-002     6.8036963874309568E-027
  -3.4150000000000000E-002     6.6547372310327343E-027
  -3.4099999999999998E-002     4.4264312990150489E-027
  -3.4049999999999997E-002    -4.8068616082708649E-028
  -3.4000000000000002E-002    -8.2658883982958034E-027
  -3.3950000000000001E-002    -1.8229797187100536E-026
  -3.3900000000000000E-002    -2.8187968452375771E-026
  -3.3849999999999998E-002    -3.4131117899857852E-026
  -3.3799999999999997E-002    -3.0636580854941595E-026
  -3.3750000000000002E-002    -1.2483857772219634E-026
  -3.3700000000000001E-002     2.2482324996675209E-026
  -3.3649999999999999E-002     6.9951355370561866E-026
  -3.3599999999999998E-002     1.1676607483426102E-025
  -3.3550000000000003E-002     1.4159678825450066E-025
  -3.3500000000000002E-002     1.2029319174928067E-025
  -3.3450000000000001E-002     3.5953811912525602E-026
  -3.3399999999999999E-002    -1.0876225219573950E-025
  -3.3349999999999998E-002    -2.8210665669758060E-025
  -3.3300000000000003E-002    -4.2273679954398027E-025
  -3.3250000000000002E-002    -4.5305408833363849E-025
  -3.3200000000000000E-002    -3.0665277566030305E-025
  -3.3149999999999999E-002     3.6604126635386570E-026
  -3.3099999999999997E-002     5.2084273335285472E-025
  -3.3050000000000003E-002     1.0056127901315716E-024
  -3.3000000000000002E-002     1.2908222811708938E-024
  -3.2950000000000000E-002     1.1769343948169857E-024
  -3.2899999999999999E-002     5.4716413855045101E-025
  -3.2850000000000004E-002    -5.5549540167499098E-025
  -3.2800000000000003E-002    -1.8896633766743090E-024
  -3.2750000000000001E-002    -3.0419775243491541E-024
  -3.2700000000000000E-002    -3.5256028372851372E-024
  -3.2649999999999998E-002    -2.9313830950091704E-024
  -3.2600000000000004E-002    -1.0887966324266765E-024
  -3.2550000000000003E-002     1.8158711211742837E-024
  -3.2500000000000001E-002     5.2074720186341296E-024
  -3.2450000000000000E-002     8.1943270829679902E-024
  -3.2399999999999998E-002     9.7335207963821928E-024
  -3.2350000000000004E-002     8.8571615947513343E-024
  -3.2300000000000002E-002     4.9242268809148982E-024
  -3.2250000000000001E-002    -2.1279125372411819E-024
  -3.2199999999999999E-002    -1.1552119751121766E-023
  -3.2149999999999998E-002    -2.1617125086793211E-023
  -3.2100000000000004E-002    -2.9574050658772154E-023
  -3.2050000000000002E-002    -3.1905148804154093E-023
  -3.2000000000000001E-002    -2.5015415605920689E-023
  -3.1949999999999999E-002    -6.4490615711049045E-024
  -3.1899999999999998E-002     2.3499760010460745E-023
  -3.1850000000000003E-002     6.0230594779587610E-023
  -3.1800000000000002E-002     9.4091621570116973E-023
  -3.1750000000000000E-002     1.1131747443891961E-022
  -3.1699999999999999E-002     9.7257166239232387E-023
  -3.1649999999999998E-002     4.1772666101898613E-023
  -3.1600000000000003E-002    -5.4386002723665623E-023
  -3.1550000000000002E-002    -1.7449611523893880E-022
  -3.1500000000000000E-002    -2.8488766674782386E-022
  -3.1449999999999999E-002    -3.4042964831660641E-022
  -3.1399999999999997E-002    -2.9710062650440228E-022
  -3.1350000000000003E-002    -1.2952359892809839E-022
  -3.1300000000000001E-002     1.5160201770514620E-022
  -3.1250000000000000E-002     4.8919764551713117E-022
  -3.1199999999999999E-002     7.8342088155057742E-022
  -3.1150000000000001E-002     9.1288783333859204E-022
  -3.1100000000000003E-002     7.7154559783100800E-022
  -3.1050000000000001E-002     3.1253222391834536E-022
  -3.1000000000000000E-002    -4.1505190923046420E-022
  -3.0949999999999998E-002    -1.2521609031564410E-021
  -3.0900000000000000E-002    -1.9504724092592774E-021
  -3.0850000000000002E-002    -2.2303197761563468E-021
  -3.0800000000000001E-002    -1.8659630987558522E-021
  -3.0750000000000000E-002    -7.7627429641270927E-022
  -3.0699999999999998E-002     9.0814845291205883E-022
  -3.0650000000000000E-002     2.8291005386825802E-021
  -3.0600000000000002E-002     4.4530563225037067E-021
  -3.0550000000000001E-002     5.1904435299246067E-021
  -3.0499999999999999E-002     4.5600054968102995E-021
  -3.0449999999999998E-002     2.3591063834009793E-021
  -3.0400000000000000E-002    -1.2074968149302600E-021
  -3.0350000000000002E-002    -5.4842456567796291E-021
  -3.0300000000000001E-002    -9.4352048295617908E-021
  -3.0249999999999999E-002    -1.1832899606372207E-020
  -3.0200000000000001E-002    -1.1542733956208254E-020
  -3.0150000000000000E-002    -7.8541617953733330E-021
  -3.0100000000000002E-002    -7.8947822556603166E-022
  -3.0050000000000000E-002     8.6903826482030757E-021
  -2.9999999999999999E-002     1.8663002563775032E-020
  -2.9950000000000001E-002     2.6467681109630272E-020
  -2.9899999999999999E-002     2.9200198864095002E-020
  -2.9850000000000002E-002     2.4444052343557579E-020
  -2.9800000000000000E-002     1.1123132522619932E-020
  -2.9749999999999999E-002    -9.7234442691006325E-021
  -2.9700000000000001E-002    -3.4505901834313926E-020
  -2.9650000000000003E-002    -5.7254805454290182E-020
  -2.9600000000000001E-002    -7.0582765005770089E-020
  -2.9550000000000000E-002    -6.7437389793911148E-020
  -2.9499999999999998E-002    -4.3382739660701744E-020
  -2.9450000000000000E-002     1.1342884883435147E-021
  -2.9400000000000003E-002     5.9277302238317760E-020
  -2.9350000000000001E-002     1.1783505681904321E-019
  -2.9300000000000000E-002     1.5927523735997212E-019
  -2.9249999999999998E-002     1.6584483657575400E-019
  -2.9200000000000000E-002     1.2503989839288941E-019
  -2.9150000000000002E-002     3.5093561678671550E-020
  -2.9100000000000001E-002    -9.1290189685406992E-020
  -2.9049999999999999E-002    -2.2667584932165323E-019
  -2.8999999999999998E-002    -3.3317966575714917E-019
  -2.8950000000000000E-002    -3.7118630053778973E-019
  -2.8900000000000002E-002    -3.1092904974178988E-019
  -2.8850000000000001E-002    -1.4405047892856896E-019
  -2.8799999999999999E-002     1.0844218825508679E-019
  -2.8749999999999998E-002     3.9513045100299412E-019
  -2.8700000000000000E-002     6.4196671174481911E-019
  -2.8650000000000002E-002     7.6852991305109504E-019
  -2.8600000000000000E-002     7.0977355761146862E-019
  -2.8549999999999999E-002     4.3805891702844959E-019
  -2.8500000000000001E-002    -2.0818039286210230E-020
  -2.8450000000000000E-002    -5.8333078637382689E-019
  -2.8400000000000002E-002    -1.1190816362025690E-018
  -2.8350000000000000E-002    -1.4766187223179223E-018
  -2.8299999999999999E-002    -1.5199108419642138E-018
  -2.8250000000000001E-002    -1.1676588303317988E-018
  -2.8200000000000003E-002    -4.2567049173593796E-019
  -2.8150000000000001E-002     5.9719356852866373E-019
  -2.8100000000000000E-002     1.6963403510468134E-018
  -2.8049999999999999E-002     2.6042460105641208E-018
  -2.8000000000000001E-002     3.0452155277383793E-018
  -2.7950000000000003E-002     2.8028699344584030E-018
  -2.7900000000000001E-002     1.7866290194690670E-018
  -2.7850000000000000E-002     8.1184813068362533E-020
  -2.7799999999999998E-002    -2.0362632010851877E-018
  -2.7750000000000000E-002    -4.1220652567091382E-018
  -2.7700000000000002E-002    -5.6389855754996678E-018
  -2.7650000000000001E-002    -6.0692335492294085E-018
  -2.7600000000000000E-002    -5.0497108464807894E-018
  -2.7549999999999998E-002    -2.5013336687315681E-018
  -2.7500000000000000E-002     1.2818874370682870E-018
  -2.7450000000000002E-002     5.6174933260898962E-018
  -2.7400000000000001E-002     9.5164779088503180E-018
  -2.7349999999999999E-002     1.1866571044499413E-017
  -2.7299999999999998E-002     1.1694633320982850E-017
  -2.7250000000000000E-002     8.4578879494234187E-018
  -2.7200000000000002E-002     2.2920130869108101E-018
  -2.7150000000000001E-002    -5.8630592449452993E-018
  -2.7099999999999999E-002    -1.4324987111875387E-017
  -2.7049999999999998E-002    -2.0947345518629660E-017
  -2.7000000000000000E-002    -2.3589046794924986E-017
  -2.6950000000000002E-002    -2.0689216659771994E-017
  -2.6900000000000000E-002    -1.1812170784261697E-017
  -2.6849999999999999E-002     1.9947287230492714E-018
  -2.6800000000000001E-002     1.8168827218076387E-017
  -2.6749999999999999E-002     3.3001684122648646E-017
  -2.6700000000000002E-002     4.2389818135342434E-017
  -2.6650000000000000E-002     4.2836758391252390E-017
  -2.6599999999999999E-002     3.2483395793153016E-017
  -2.6550000000000001E-002     1.1896163412306649E-017
  -2.6500000000000003E-002    -1.5638056500526605E-017
  -2.6450000000000001E-002    -4.4470912066444333E-017
  -2.6400000000000000E-002    -6.7618521711503817E-017
  -2.6349999999999998E-002    -7.8295329990364656E-017
  -2.6300000000000000E-002    -7.1643332416963708E-017
  -2.6250000000000002E-002    -4.6250844338036537E-017
  -2.6200000000000001E-002    -5.0538311063048729E-018
  -2.6150000000000000E-002     4.4687665875160187E-017
  -2.6099999999999998E-002     9.2459511748752813E-017
  -2.6050000000000000E-002     1.2649702605848442E-016
  -2.6000000000000002E-002     1.3637659669671382E-016
  -2.5950000000000001E-002     1.1567335069911871E-016
  -2.5899999999999999E-002     6.4084615497111108E-017
  -2.5849999999999998E-002    -1.1535773311732949E-017
  -2.5800000000000000E-002    -9.7617960696371272E-017
  -2.5750000000000002E-002    -1.7590774600330063E-016
  -2.5700000000000001E-002    -2.2687795594344759E-016
  -2.5649999999999999E-002    -2.3398138175107942E-016
  -2.5599999999999998E-002    -1.8794021924055235E-016
  -2.5550000000000000E-002    -9.0126204595859547E-017
  -2.5500000000000002E-002     4.5883529141404406E-017
  -2.5450000000000000E-002     1.9525749896119537E-016
  -2.5399999999999999E-002     3.2562080593697650E-016
  -2.5349999999999998E-002     4.0320333508368918E-016
  -2.5300000000000000E-002     4.0047202935363026E-016
  -2.5250000000000002E-002     3.0374877888639975E-016
  -2.5200000000000000E-002     1.1900110555141285E-016
  -2.5149999999999999E-002    -1.2594476115433953E-016
  -2.5100000000000001E-002    -3.8401311495772626E-016
  -2.5049999999999999E-002    -5.9662126527360880E-016
  -2.5000000000000001E-002    -7.0565247324622365E-016
  -2.4950000000000000E-002    -6.6751432631970403E-016
  -2.4899999999999999E-002    -4.6619621574908344E-016
  -2.4850000000000001E-002    -1.2190325267688635E-016
  -2.4800000000000003E-002     3.0766449925550673E-016
  -2.4750000000000001E-002     7.3497907282112154E-016
  -2.4700000000000000E-002     1.0588994751049891E-015
  -2.4649999999999998E-002     1.1868116651674304E-015
  -2.4600000000000000E-002     1.0581584847914336E-015
  -2.4550000000000002E-002     6.6378110863705258E-016
  -2.4500000000000001E-002     5.5719829180866634E-017
  -2.4450000000000000E-002    -6.5626576782315123E-016
  -2.4399999999999998E-002    -1.3224284267316490E-015
  -2.4350000000000000E-002    -1.7826299264258641E-015
  -2.4299999999999999E-002    -1.9022473937496758E-015
  -2.4250000000000001E-002    -1.6066776332202025E-015
  -2.4199999999999999E-002    -9.0619252532415574E-016
  -2.4150000000000001E-002     9.5713789417273418E-017
  -2.4100000000000000E-002     1.2142162131384848E-015
  -2.4049999999999998E-002     2.2147648929907808E-015
  -2.4000000000000000E-002     2.8593854319257153E-015
  -2.3949999999999999E-002     2.9589270223005029E-015
  -2.3900000000000001E-002     2.4204284652227527E-015
  -2.3850000000000000E-002     1.2788521799962563E-015
  -2.3800000000000002E-002    -2.9519771053608873E-016
  -2.3750000000000000E-002    -2.0159042412618299E-015
  -2.3699999999999999E-002    -3.5295038751425081E-015
  -2.3650000000000001E-002    -4.4814838757162594E-015
  -2.3599999999999999E-002    -4.5920396583775802E-015
  -2.3550000000000001E-002    -3.7251763968819770E-015
  -2.3500000000000000E-002    -1.9364045621977314E-015
  -2.3449999999999999E-002     5.1360434928550058E-016
  -2.3400000000000001E-002     3.1868269024678917E-015
  -2.3349999999999999E-002     5.5371547485783799E-015
  -2.3300000000000001E-002     7.0125262872775474E-015
  -2.3250000000000000E-002     7.1731244825870836E-015
  -2.3199999999999998E-002     5.8026698804436515E-015
  -2.3150000000000000E-002     2.9876162633531638E-015
  -2.3099999999999999E-002    -8.5816729872759654E-016
  -2.3050000000000001E-002    -5.0372380781564622E-015
  -2.3000000000000000E-002    -8.6819051465959674E-015
  -2.2950000000000002E-002    -1.0922308671483817E-014
  -2.2900000000000000E-002    -1.1079537964847768E-014
  -2.2849999999999999E-002    -8.8435022946834078E-015
  -2.2800000000000001E-002    -4.3925318470166678E-015
  -2.2749999999999999E-002     1.5812148507068559E-015
  -2.2700000000000001E-002     7.9595275595850764E-015
  -2.2650000000000000E-002     1.3394167595862590E-014
  -2.2599999999999999E-002     1.6579968452530614E-014
  -2.2550000000000001E-002     1.6551740213935946E-014
  -2.2499999999999999E-002     1.2939470631857133E-014
  -2.2450000000000001E-002     6.1184902652479324E-015
  -2.2400000000000000E-002    -2.7913266322199139E-015
  -2.2349999999999998E-002    -1.2092958126032690E-014
  -2.2300000000000000E-002    -1.9825073764813954E-014
  -2.2249999999999999E-002    -2.4163813279182093E-014
  -2.2200000000000001E-002    -2.3832144812820933E-014
  -2.2150000000000000E-002    -1.8426983716507104E-014
  -2.2100000000000002E-002    -8.5859121147076288E-015
  -2.2050000000000000E-002     4.0550422126210678E-015
  -2.1999999999999999E-002     1.7119034177572524E-014
  -2.1950000000000001E-002     2.7922357425226599E-014
  -2.1899999999999999E-002     3.4006287508622932E-014
  -2.1850000000000001E-002     3.3663784772706150E-014
  -2.1800000000000000E-002     2.6353440887737635E-014
  -2.1749999999999999E-002     1.2909714808132341E-014
  -2.1700000000000001E-002    -4.5064654411736137E-015
  -2.1649999999999999E-002    -2.2725717927920601E-014
  -2.1600000000000001E-002    -3.8115167620009411E-014
  -2.1550000000000000E-002    -4.7262960849107332E-014
  -2.1499999999999998E-002    -4.7682265483947814E-014
  -2.1450000000000000E-002    -3.8400807556428119E-014
  -2.1399999999999999E-002    -2.0310624273264288E-014
  -2.1350000000000001E-002     3.8150021577229627E-015
  -2.1299999999999999E-002     2.9677993297941349E-014
  -2.1250000000000002E-002     5.2158650319971934E-014
  -2.1200000000000000E-002     6.6267458080808281E-014
  -2.1149999999999999E-002     6.8184199350513254E-014
  -2.1100000000000001E-002     5.6182377734047860E-014
  -2.1049999999999999E-002     3.1231827983429714E-014
  -2.1000000000000001E-002    -2.8897288828979459E-015
  -2.0950000000000000E-002    -4.0064653992005434E-014
  -2.0899999999999998E-002    -7.2857514773447709E-014
  -2.0850000000000000E-002    -9.3940794859477207E-014
  -2.0799999999999999E-002    -9.7663249709315049E-014
  -2.0750000000000001E-002    -8.1433908077426045E-014
  -2.0700000000000000E-002    -4.6595669848141557E-014
  -2.0649999999999998E-002     1.4608670740823719E-015
  -2.0600000000000000E-002     5.4048470003563523E-014
  -2.0549999999999999E-002     1.0071898397321769E-013
  -2.0500000000000001E-002     1.3131793428829551E-013
  -2.0449999999999999E-002     1.3815039944775733E-013
  -2.0400000000000001E-002     1.1779223064082838E-013
  -2.0350000000000000E-002     7.2125201745840436E-014
  -2.0299999999999999E-002     8.3190255481148463E-015
  -2.0250000000000001E-002    -6.2299552197255290E-014
  -2.0199999999999999E-002    -1.2630947820600402E-013
  -2.0150000000000001E-002    -1.7079795407156048E-013
  -2.0100000000000000E-002    -1.8598061222067259E-013
  -2.0049999999999998E-002    -1.6729774615347168E-013
  -2.0000000000000000E-002    -1.1654123772114332E-013
  -1.9949999999999999E-002    -4.1758528542285128E-014
  -1.9900000000000001E-002     4.4076831708092601E-014
  -1.9850000000000000E-002     1.2539507322238133E-013
  -1.9799999999999998E-002     1.8693266093108946E-013
  -1.9750000000000000E-002     2.1666902905852474E-013
  -1.9699999999999999E-002     2.0824841379752366E-013
  -1.9650000000000001E-002     1.6242388441203860E-013
  -1.9599999999999999E-002     8.7223269429067900E-014
  -1.9550000000000001E-002    -3.2513688060165396E-015
  -1.9500000000000000E-002    -9.1249021429590989E-014
  -1.9449999999999999E-002    -1.5866136764789794E-013
  -1.9400000000000001E-002    -1.9064476747102858E-013
  -1.9349999999999999E-002    -1.7892854780708578E-013
  -1.9300000000000001E-002    -1.2414686918403146E-013
  -1.9250000000000000E-002    -3.6627755183272177E-014
  -1.9199999999999998E-002     6.4713135956959724E-014
  -1.9150000000000000E-002     1.5540532152720960E-013
  -1.9099999999999999E-002     2.1002625242235331E-013
  -1.9050000000000001E-002     2.0763518588540076E-013
  -1.9000000000000000E-002     1.3700439898928519E-013
  -1.8949999999999998E-002     4.9996336094863179E-016
  -1.8900000000000000E-002    -1.8440928476654856E-013
  -1.8849999999999999E-002    -3.8665555052990869E-013
  -1.8800000000000001E-002    -5.6614296786656499E-013
  -1.8749999999999999E-002    -6.8076281214290347E-013
  -1.8700000000000001E-002    -6.9461685711630804E-013
  -1.8650000000000000E-002    -5.8582275114570886E-013
  -1.8599999999999998E-002    -3.5222955959917357E-013
  -1.8550000000000001E-002    -1.3715155512750335E-014
  -1.8499999999999999E-002     3.8959158343431951E-013
  -1.8450000000000001E-002     8.0296066461412261E-013
  -1.8400000000000000E-002     1.1655408590686363E-012
  -1.8349999999999998E-002     1.4200122588915209E-012
  -1.8300000000000000E-002     1.5215242033366535E-012
  -1.8249999999999999E-002     1.4442247439562125E-012
  -1.8200000000000001E-002     1.1842785684654423E-012
  -1.8149999999999999E-002     7.5907339426267755E-013
  -1.8100000000000002E-002     2.0314983856939368E-013
  -1.8050000000000000E-002    -4.3795887898052159E-013
  -1.7999999999999999E-002    -1.1144521029252277E-012
  -1.7950000000000001E-002    -1.7780521645702862E-012
  -1.7899999999999999E-002    -2.3856925742566788E-012
  -1.7850000000000001E-002    -2.9004650608749318E-012
  -1.7800000000000000E-002    -3.2897833240036529E-012
  -1.7749999999999998E-002    -3.5212303952450328E-012
  -1.7700000000000000E-002    -3.5569600655197180E-012
  -1.7649999999999999E-002    -3.3477687203880663E-012
  -1.7600000000000001E-002    -2.8280670014908904E-012
  -1.7550000000000000E-002    -1.9129847371913095E-012
  -1.7499999999999998E-002    -4.9871398352519549E-013
  -1.7450000000000000E-002     1.5330902359668385E-012
  -1.7399999999999999E-002     4.3065646054254728E-012
  -1.7350000000000001E-002     7.9389634412164065E-012
  -1.7299999999999999E-002     1.2525375510930740E-011
  -1.7250000000000001E-002     1.8123027952279331E-011
  -1.7200000000000000E-002     2.4737989611197563E-011
  -1.7149999999999999E-002     3.2317224448660281E-011
  -1.7100000000000001E-002     4.0748443724303075E-011
  -1.7049999999999999E-002     4.9868798385991214E-011
  -1.7000000000000001E-002     5.9481902515491743E-011
  -1.6950000000000000E-002     6.9380695106806172E-011
  -1.6899999999999998E-002     7.9372200810042215E-011
  -1.6850000000000000E-002     8.9299492405688788E-011
  -1.6799999999999999E-002     9.9056690687669733E-011
  -1.6750000000000001E-002     1.0859409951446886E-010
  -1.6700000000000000E-002     1.1791308728783354E-010
  -1.6649999999999998E-002     1.2705229008981797E-010
  -1.6600000000000000E-002     1.3606888558404728E-010
  -1.6549999999999999E-002     1.4501965944035616E-010
  -1.6500000000000001E-002     1.5394622108942162E-010
  -1.6449999999999999E-002     1.6286724888317564E-010
  -1.6400000000000001E-002     1.7177899484728702E-010
  -1.6350000000000000E-002     1.8066261053073365E-010
  -1.6299999999999999E-002     1.8949584893420300E-010
  -1.6250000000000001E-002     1.9826559756605561E-010
  -1.6199999999999999E-002     2.0697806906415156E-010
  -1.6150000000000001E-002     2.1566472359229071E-010
  -1.6100000000000000E-002     2.2438279517309483E-010
  -1.6049999999999998E-002     2.3321087800942528E-010
  -1.6000000000000000E-002     2.4224037427774166E-010
  -1.5949999999999999E-002     2.5156465224550941E-010
  -1.5900000000000001E-002     2.6126679290589143E-010
  -1.5850000000000000E-002     2.7140768423142112E-010
  -1.5799999999999998E-002     2.8201583966736622E-010
  -1.5750000000000000E-002     2.9308042934163603E-010
  -1.5699999999999999E-002     3.0454927966402694E-010
  -1.5650000000000001E-002     3.1633391069261278E-010
  -1.5599999999999999E-002     3.2832280810187239E-010
  -1.5550000000000001E-002     3.4040180051222714E-010
  -1.5500000000000000E-002     3.5247894968016553E-010
  -1.5449999999999998E-002     3.6450896525222464E-010
  -1.5400000000000000E-002     3.7651125730080704E-010
  -1.5349999999999999E-002     3.8857583538412388E-010
  -1.5300000000000001E-002     4.0085368505286717E-010
  -1.5250000000000000E-002     4.1353212324496508E-010
  -1.5199999999999998E-002     4.2679873520007810E-010
  -1.5150000000000000E-002     4.4080191027354201E-010
  -1.5099999999999999E-002     4.5561737325677519E-010
  -1.5050000000000001E-002     4.7122914723903073E-010
  -1.4999999999999999E-002     4.8753077027547833E-010
  -1.4949999999999998E-002     5.0434653533736199E-010
  -1.4900000000000000E-002     5.2146931710556303E-010
  -1.4849999999999999E-002     5.3870496808252743E-010
  -1.4800000000000001E-002     5.5591436275643100E-010
  -1.4749999999999999E-002     5.7304265909808670E-010
  -1.4700000000000001E-002     5.9013183357503190E-010
  -1.4650000000000000E-002     6.0731379789163906E-010
  -1.4599999999999998E-002     6.2478797285204981E-010
  -1.4550000000000000E-002     6.4278863390636965E-010
  -1.4499999999999999E-002     6.6154884695541504E-010
  -1.4450000000000001E-002     6.8126839513422479E-010
  -1.4400000000000000E-002     7.0208856195482465E-010
  -1.4349999999999998E-002     7.2407688135207066E-010
  -1.4300000000000000E-002     7.4722189820372520E-010
  -1.4249999999999999E-002     7.7143803611400136E-010
  -1.4200000000000001E-002     7.9657980492099020E-010
  -1.4149999999999999E-002     8.2246521532392252E-010
  -1.4099999999999998E-002     8.4890510452383527E-010
  -1.4050000000000000E-002     8.7573638455108975E-010
  -1.3999999999999999E-002     9.0285325392722095E-010
  -1.3950000000000001E-002     9.3023153763312942E-010
  -1.3899999999999999E-002     9.5793755425892669E-010
  -1.3850000000000001E-002     9.8611954790752666E-010
  -1.3800000000000000E-002     1.0149814485900297E-009
  -1.3749999999999998E-002     1.0447419240581104E-009
  -1.3700000000000000E-002     1.0755892779166878E-009
  -1.3649999999999999E-002     1.1076425589465269E-009
  -1.3600000000000001E-002     1.1409283137145789E-009
  -1.3550000000000000E-002     1.1753806265347506E-009
  -1.3499999999999998E-002     1.2108671347896640E-009
  -1.3450000000000000E-002     1.2472319480459248E-009
  -1.3399999999999999E-002     1.2843475334049395E-009
  -1.3350000000000001E-002     1.3221615675492732E-009
  -1.3299999999999999E-002     1.3607258741232020E-009
  -1.3249999999999998E-002     1.4002013069404018E-009
  -1.3200000000000000E-002     1.4408349038105593E-009
  -1.3149999999999998E-002     1.4829169423238633E-009
  -1.3100000000000001E-002     1.5267240377033418E-009
  -1.3049999999999999E-002     1.5724627834452641E-009
  -1.3000000000000001E-002     1.6202242917299915E-009
  -1.2950000000000000E-002     1.6699621967611253E-009
  -1.2899999999999998E-002     1.7214948984451518E-009
  -1.2850000000000000E-002     1.7745372928950834E-009
  -1.2799999999999999E-002     1.8287515190206166E-009