  -4.0000000000000001E-002     0.0000000000000000     
  -3.9949999999999999E-002     0.0000000000000000     
  -3.9899999999999998E-002     0.0000000000000000     
  -3.9850000000000003E-002     0.0000000000000000     
  -3.9800000000000002E-002     0.0000000000000000     
  -3.9750000000000001E-002     0.0000000000000000     
  -3.9699999999999999E-002     0.0000000000000000     
  -3.9649999999999998E-002     0.0000000000000000     
  -3.9600000000000003E-002     0.0000000000000000     
  -3.9550000000000002E-002     0.0000000000000000     
  -3.9500000000000000E-002     0.0000000000000000     
  -3.9449999999999999E-002     0.0000000000000000     
  -3.9399999999999998E-002     0.0000000000000000     
  -3.9350000000000003E-002     0.0000000000000000     
  -3.9300000000000002E-002     0.0000000000000000     
  -3.9250000000000000E-002     0.0000000000000000     
  -3.9199999999999999E-002     0.0000000000000000     
  -3.9150000000000004E-002     0.0000000000000000     
  -3.9100000000000003E-002     0.0000000000000000     
  -3.9050000000000001E-002     0.0000000000000000     
  -3.9000000000000000E-002     0.0000000000000000     
  -3.8949999999999999E-002     0.0000000000000000     
  -3.8900000000000004E-002     0.0000000000000000     
  -3.8850000000000003E-002     0.0000000000000000     
  -3.8800000000000001E-002     0.0000000000000000     
  -3.8750000000000000E-002     0.0000000000000000     
  -3.8699999999999998E-002     0.0000000000000000     
  -3.8650000000000004E-002     0.0000000000000000     
  -3.8600000000000002E-002     0.0000000000000000     
  -3.8550000000000001E-002     0.0000000000000000     
  -3.8500000000000000E-002     0.0000000000000000     
  -3.8449999999999998E-002     0.0000000000000000     
  -3.8400000000000004E-002     0.0000000000000000     
  -3.8350000000000002E-002     0.0000000000000000     
  -3.8300000000000001E-002     0.0000000000000000     
  -3.8249999999999999E-002     0.0000000000000000     
  -3.8199999999999998E-002     0.0000000000000000     
  -3.8150000000000003E-002     0.0000000000000000     
  -3.8100000000000002E-002     0.0000000000000000     
  -3.8050000000000000E-002     0.0000000000000000     
  -3.7999999999999999E-002     0.0000000000000000     
  -3.7949999999999998E-002     0.0000000000000000     
  -3.7900000000000003E-002     0.0000000000000000     
  -3.7850000000000002E-002     0.0000000000000000     
  -3.7800000000000000E-002     0.0000000000000000     
  -3.7749999999999999E-002     0.0000000000000000     
  -3.7699999999999997E-002     0.0000000000000000     
  -3.7650000000000003E-002     0.0000000000000000     
  -3.7600000000000001E-002     0.0000000000000000     
  -3.7550000000000000E-002     0.0000000000000000     
  -3.7499999999999999E-002     0.0000000000000000     
  -3.7449999999999997E-002     0.0000000000000000     
  -3.7400000000000003E-002     0.0000000000000000     
  -3.7350000000000001E-002     0.0000000000000000     
  -3.7300000000000000E-002     0.0000000000000000     
  -3.7249999999999998E-002     0.0000000000000000     
  -3.7200000000000004E-002     0.0000000000000000     
  -3.7150000000000002E-002     0.0000000000000000     
  -3.7100000000000001E-002     0.0000000000000000     
  -3.7050000000000000E-002     0.0000000000000000     
  -3.6999999999999998E-002     0.0000000000000000     
  -3.6950000000000004E-002     0.0000000000000000     
  -3.6900000000000002E-002     0.0000000000000000     
  -3.6850000000000001E-002     0.0000000000000000     
  -3.6799999999999999E-002     0.0000000000000000     
  -3.6749999999999998E-002     0.0000000000000000     
  -3.6700000000000003E-002     0.0000000000000000     
  -3.6650000000000002E-002     0.0000000000000000     
  -3.6600000000000001E-002     0.0000000000000000     
  -3.6549999999999999E-002     0.0000000000000000     
  -3.6499999999999998E-002     0.0000000000000000     
  -3.6450000000000003E-002     0.0000000000000000     
  -3.6400000000000002E-002     0.0000000000000000     
  -3.6350000000000000E-002     0.0000000000000000     
  -3.6299999999999999E-002     0.0000000000000000     
  -3.6249999999999998E-002     0.0000000000000000     
  -3.6200000000000003E-002     0.0000000000000000     
  -3.6150000000000002E-002     0.0000000000000000     
  -3.6100000000000000E-002     0.0000000000000000     
  -3.6049999999999999E-002     0.0000000000000000     
  -3.6000000000000004E-002     0.0000000000000000     
  -3.5950000000000003E-002     0.0000000000000000     
  -3.5900000000000001E-002     0.0000000000000000     
  -3.5850000000000000E-002     0.0000000000000000     
  -3.5799999999999998E-002     0.0000000000000000     
  -3.5750000000000004E-002     0.0000000000000000     
  -3.5700000000000003E-002     0.0000000000000000     
  -3.5650000000000001E-002     0.0000000000000000     
  -3.5600000000000000E-002     0.0000000000000000     
  -3.5549999999999998E-002     0.0000000000000000     
  -3.5500000000000004E-002     0.0000000000000000     
  -3.5450000000000002E-002     0.0000000000000000     
  -3.5400000000000001E-002     0.0000000000000000     
  -3.5349999999999999E-002     0.0000000000000000     
  -3.5299999999999998E-002     0.0000000000000000     
  -3.5250000000000004E-002     0.0000000000000000     
  -3.5200000000000002E-002     0.0000000000000000     
  -3.5150000000000001E-002     0.0000000000000000     
  -3.5099999999999999E-002     0.0000000000000000     
  -3.5049999999999998E-002     0.0000000000000000     
  -3.5000000000000003E-002     0.0000000000000000     
  -3.4950000000000002E-002     0.0000000000000000     
  -3.4900000000000000E-002     0.0000000000000000     
  -3.4849999999999999E-002     0.0000000000000000     
  -3.4799999999999998E-002     0.0000000000000000     
  -3.4750000000000003E-002     0.0000000000000000     
  -3.4700000000000002E-002     0.0000000000000000     
  -3.4650000000000000E-002     0.0000000000000000     
  -3.4599999999999999E-002     0.0000000000000000     
  -3.4549999999999997E-002     0.0000000000000000     
  -3.4500000000000003E-002     0.0000000000000000     
  -3.4450000000000001E-002     0.0000000000000000     
  -3.4400000000000000E-002     0.0000000000000000     
  -3.4349999999999999E-002     0.0000000000000000     
  -3.4299999999999997E-002     0.0000000000000000     
  -3.4250000000000003E-002     0.0000000000000000     
  -3.4200000000000001E-002     0.0000000000000000     
  -3.4150000000000000E-002     0.0000000000000000     
  -3.4099999999999998E-002     0.0000000000000000     
  -3.4049999999999997E-002     0.0000000000000000     
  -3.4000000000000002E-002     0.0000000000000000     
  -3.3950000000000001E-002     0.0000000000000000     
  -3.3900000000000000E-002     0.0000000000000000     
  -3.3849999999999998E-002     0.0000000000000000     
  -3.3799999999999997E-002     0.0000000000000000     
  -3.3750000000000002E-002     0.0000000000000000     
  -3.3700000000000001E-002     0.0000000000000000     
  -3.3649999999999999E-002     0.0000000000000000     
  -3.3599999999999998E-002     0.0000000000000000     
  -3.3550000000000003E-002     0.0000000000000000     
  -3.3500000000000002E-002     0.0000000000000000     
  -3.3450000000000001E-002     0.0000000000000000     
  -3.3399999999999999E-002     0.0000000000000000     
  -3.3349999999999998E-002     0.0000000000000000     
  -3.3300000000000003E-002     0.0000000000000000     
  -3.3250000000000002E-002     0.0000000000000000     
  -3.3200000000000000E-002     0.0000000000000000     
  -3.3149999999999999E-002     0.0000000000000000     
  -3.3099999999999997E-002     0.0000000000000000     
  -3.3050000000000003E-002     0.0000000000000000     
  -3.3000000000000002E-002     0.0000000000000000     
  -3.2950000000000000E-002     0.0000000000000000     
  -3.2899999999999999E-002     0.0000000000000000     
  -3.2850000000000004E-002     0.0000000000000000     
  -3.2800000000000003E-002     0.0000000000000000     
  -3.2750000000000001E-002     0.0000000000000000     
  -3.2700000000000000E-002     0.0000000000000000     
  -3.2649999999999998E-002     0.0000000000000000     
  -3.2600000000000004E-002     0.0000000000000000     
  -3.2550000000000003E-002     0.0000000000000000     
  -3.2500000000000001E-002     0.0000000000000000     
  -3.2450000000000000E-002     0.0000000000000000     
  -3.2399999999999998E-002     0.0000000000000000     
  -3.2350000000000004E-002     0.0000000000000000     
  -3.2300000000000002E-002     0.0000000000000000     
  -3.2250000000000001E-002     0.0000000000000000     
  -3.2199999999999999E-002     0.0000000000000000     
  -3.2149999999999998E-002     0.0000000000000000     
  -3.2100000000000004E-002     0.0000000000000000     
  -3.2050000000000002E-002     0.0000000000000000     
  -3.2000000000000001E-002     0.0000000000000000     
  -3.1949999999999999E-002     0.0000000000000000     
  -3.1899999999999998E-002     0.0000000000000000     
  -3.1850000000000003E-002     0.0000000000000000     
  -3.1800000000000002E-002     0.0000000000000000     
  -3.1750000000000000E-002     0.0000000000000000     
  -3.1699999999999999E-002     0.0000000000000000     
  -3.1649999999999998E-002     0.0000000000000000     
  -3.1600000000000003E-002     0.0000000000000000     
  -3.1550000000000002E-002     0.0000000000000000     
  -3.1500000000000000E-002     0.0000000000000000     
  -3.1449999999999999E-002     0.0000000000000000     
  -3.1399999999999997E-002     0.0000000000000000     
  -3.1350000000000003E-002     0.0000000000000000     
  -3.1300000000000001E-002     0.0000000000000000     
  -3.1250000000000000E-002     0.0000000000000000     
  -3.1199999999999999E-002     0.0000000000000000     
  -3.1150000000000001E-002     0.0000000000000000     
  -3.1100000000000003E-002     0.0000000000000000     
  -3.1050000000000001E-002     0.0000000000000000     
  -3.1000000000000000E-002     0.0000000000000000     
  -3.0949999999999998E-002     0.0000000000000000     
  -3.0900000000000000E-002     0.0000000000000000     
  -3.0850000000000002E-002     0.0000000000000000     
  -3.0800000000000001E-002     0.0000000000000000     
  -3.0750000000000000E-002     0.0000000000000000     
  -3.0699999999999998E-002     0.0000000000000000     
  -3.0650000000000000E-002     0.0000000000000000     
  -3.0600000000000002E-002     0.0000000000000000     
  -3.0550000000000001E-002     0.0000000000000000     
  -3.0499999999999999E-002     0.0000000000000000     
  -3.0449999999999998E-002     0.0000000000000000     
  -3.0400000000000000E-002     0.0000000000000000     
  -3.0350000000000002E-002     0.0000000000000000     
  -3.0300000000000001E-002     0.0000000000000000     
  -3.0249999999999999E-002     0.0000000000000000     
  -3.0200000000000001E-002     0.0000000000000000     
  -3.0150000000000000E-002     0.0000000000000000     
  -3.0100000000000002E-002     0.0000000000000000     
  -3.0050000000000000E-002     0.0000000000000000     
  -2.9999999999999999E-002     0.0000000000000000     
  -2.9950000000000001E-002     0.0000000000000000     
  -2.9899999999999999E-002     0.0000000000000000     
  -2.9850000000000002E-002     0.0000000000000000     
  -2.9800000000000000E-002     0.0000000000000000     
  -2.9749999999999999E-002     0.0000000000000000     
  -2.9700000000000001E-002     0.0000000000000000     
  -2.9650000000000003E-002     0.0000000000000000     
  -2.9600000000000001E-002     0.0000000000000000     
  -2.9550000000000000E-002     0.0000000000000000     
  -2.9499999999999998E-002     0.0000000000000000     
  -2.9450000000000000E-002     0.0000000000000000     
  -2.9400000000000003E-002     0.0000000000000000     
  -2.9350000000000001E-002     0.0000000000000000     
  -2.9300000000000000E-002     0.0000000000000000     
  -2.9249999999999998E-002     0.0000000000000000     
  -2.9200000000000000E-002     0.0000000000000000     
  -2.9150000000000002E-002     0.0000000000000000     
  -2.9100000000000001E-002     0.0000000000000000     
  -2.9049999999999999E-002     0.0000000000000000     
  -2.8999999999999998E-002     0.0000000000000000     
  -2.8950000000000000E-002     0.0000000000000000     
  -2.8900000000000002E-002     0.0000000000000000     
  -2.8850000000000001E-002     0.0000000000000000     
  -2.8799999999999999E-002     0.0000000000000000     
  -2.8749999999999998E-002     0.0000000000000000     
  -2.8700000000000000E-002     0.0000000000000000     
  -2.8650000000000002E-002     0.0000000000000000     
  -2.8600000000000000E-002     0.0000000000000000     
  -2.8549999999999999E-002     0.0000000000000000     
  -2.8500000000000001E-002     0.0000000000000000     
  -2.8450000000000000E-002     0.0000000000000000     
  -2.8400000000000002E-002     0.0000000000000000     
  -2.8350000000000000E-002     0.0000000000000000     
  -2.8299999999999999E-002     0.0000000000000000     
  -2.8250000000000001E-002     0.0000000000000000     
  -2.8200000000000003E-002     0.0000000000000000     
  -2.8150000000000001E-002     0.0000000000000000     
  -2.8100000000000000E-002     0.0000000000000000     
  -2.8049999999999999E-002     0.0000000000000000     
  -2.8000000000000001E-002     0.0000000000000000     
  -2.7950000000000003E-002     0.0000000000000000     
  -2.7900000000000001E-002     0.0000000000000000     
  -2.7850000000000000E-002     0.0000000000000000     
  -2.7799999999999998E-002     0.0000000000000000     
  -2.7750000000000000E-002     0.0000000000000000     
  -2.7700000000000002E-002     0.0000000000000000     
  -2.7650000000000001E-002     0.0000000000000000     
  -2.7600000000000000E-002     0.0000000000000000     
  -2.7549999999999998E-002     0.0000000000000000     
  -2.7500000000000000E-002     0.0000000000000000     
  -2.7450000000000002E-002     0.0000000000000000     
  -2.7400000000000001E-002     0.0000000000000000     
  -2.7349999999999999E-002     0.0000000000000000     
  -2.7299999999999998E-002     0.0000000000000000     
  -2.7250000000000000E-002     0.0000000000000000     
  -2.7200000000000002E-002     0.0000000000000000     
  -2.7150000000000001E-002     0.0000000000000000     
  -2.7099999999999999E-002     0.0000000000000000     
  -2.7049999999999998E-002     0.0000000000000000     
  -2.7000000000000000E-002     0.0000000000000000     
  -2.6950000000000002E-002     0.0000000000000000     
  -2.6900000000000000E-002     0.0000000000000000     
  -2.6849999999999999E-002     0.0000000000000000     
  -2.6800000000000001E-002     0.0000000000000000     
  -2.6749999999999999E-002     0.0000000000000000     
  -2.6700000000000002E-002     0.0000000000000000     
  -2.6650000000000000E-002     0.0000000000000000     
  -2.6599999999999999E-002     0.0000000000000000     
  -2.6550000000000001E-002     0.0000000000000000     
  -2.6500000000000003E-002     0.0000000000000000     
  -2.6450000000000001E-002     0.0000000000000000     
  -2.6400000000000000E-002     0.0000000000000000     
  -2.6349999999999998E-002     0.0000000000000000     
  -2.6300000000000000E-002     0.0000000000000000     
  -2.6250000000000002E-002     0.0000000000000000     
  -2.6200000000000001E-002     0.0000000000000000     
  -2.6150000000000000E-002     0.0000000000000000     
  -2.6099999999999998E-002     0.0000000000000000     
  -2.6050000000000000E-002     0.0000000000000000     
  -2.6000000000000002E-002     0.0000000000000000     
  -2.5950000000000001E-002     0.0000000000000000     
  -2.5899999999999999E-002     0.0000000000000000     
  -2.5849999999999998E-002     0.0000000000000000     
  -2.5800000000000000E-002     0.0000000000000000     
  -2.5750000000000002E-002     0.0000000000000000     
  -2.5700000000000001E-002     0.0000000000000000     
  -2.5649999999999999E-002     0.0000000000000000     
  -2.5599999999999998E-002     0.0000000000000000     
  -2.5550000000000000E-002     0.0000000000000000     
  -2.5500000000000002E-002     0.0000000000000000     
  -2.5450000000000000E-002     0.0000000000000000     
  -2.5399999999999999E-002     0.0000000000000000     
  -2.5349999999999998E-002     0.0000000000000000     
  -2.5300000000000000E-002     0.0000000000000000     
  -2.5250000000000002E-002     0.0000000000000000     
  -2.5200000000000000E-002     0.0000000000000000     
  -2.5149999999999999E-002     0.0000000000000000     
  -2.5100000000000001E-002     0.0000000000000000     
  -2.5049999999999999E-002     0.0000000000000000     
  -2.5000000000000001E-002     0.0000000000000000     
  -2.4950000000000000E-002     0.0000000000000000     
  -2.4899999999999999E-002     0.0000000000000000     
  -2.4850000000000001E-002     0.0000000000000000     
  -2.4800000000000003E-002     0.0000000000000000     
  -2.4750000000000001E-002     0.0000000000000000     
  -2.4700000000000000E-002     0.0000000000000000     
  -2.4649999999999998E-002     0.0000000000000000     
  -2.4600000000000000E-002     0.0000000000000000     
  -2.4550000000000002E-002     0.0000000000000000     
  -2.4500000000000001E-002     0.0000000000000000     
  -2.4450000000000000E-002     0.0000000000000000     
  -2.4399999999999998E-002     0.0000000000000000     
  -2.4350000000000000E-002     0.0000000000000000     
  -2.4299999999999999E-002     0.0000000000000000     
  -2.4250000000000001E-002     0.0000000000000000     
  -2.4199999999999999E-002     0.0000000000000000     
  -2.4150000000000001E-002     0.0000000000000000     
  -2.4100000000000000E-002     0.0000000000000000     
  -2.4049999999999998E-002     0.0000000000000000     
  -2.4000000000000000E-002     0.0000000000000000     
  -2.3949999999999999E-002     0.0000000000000000     
  -2.3900000000000001E-002     0.0000000000000000     
  -2.3850000000000000E-002     0.0000000000000000     
  -2.3800000000000002E-002     0.0000000000000000     
  -2.3750000000000000E-002     0.0000000000000000     
  -2.3699999999999999E-002     0.0000000000000000     
  -2.3650000000000001E-002     0.0000000000000000     
  -2.3599999999999999E-002     0.0000000000000000     
  -2.3550000000000001E-002     0.0000000000000000     
  -2.3500000000000000E-002     0.0000000000000000     
  -2.3449999999999999E-002     0.0000000000000000     
  -2.3400000000000001E-002     0.0000000000000000     
  -2.3349999999999999E-002     0.0000000000000000     
  -2.3300000000000001E-002     0.0000000000000000     
  -2.3250000000000000E-002     0.0000000000000000     
  -2.3199999999999998E-002     0.0000000000000000     
  -2.3150000000000000E-002     0.0000000000000000     
  -2.3099999999999999E-002     0.0000000000000000     
  -2.3050000000000001E-002     0.0000000000000000     
  -2.3000000000000000E-002     0.0000000000000000     
  -2.2950000000000002E-002     0.0000000000000000     
  -2.2900000000000000E-002     0.0000000000000000     
  -2.2849999999999999E-002     0.0000000000000000     
  -2.2800000000000001E-002     0.0000000000000000     
  -2.2749999999999999E-002     0.0000000000000000     
  -2.2700000000000001E-002     0.0000000000000000     
  -2.2650000000000000E-002     0.0000000000000000     
  -2.2599999999999999E-002     0.0000000000000000     
  -2.2550000000000001E-002     0.0000000000000000     
  -2.2499999999999999E-002     0.0000000000000000     
  -2.2450000000000001E-002     0.0000000000000000     
  -2.2400000000000000E-002     0.0000000000000000     
  -2.2349999999999998E-002     0.0000000000000000     
  -2.2300000000000000E-002     0.0000000000000000     
  -2.2249999999999999E-002     0.0000000000000000     
  -2.2200000000000001E-002     0.0000000000000000     
  -2.2150000000000000E-002     0.0000000000000000     
  -2.2100000000000002E-002     0.0000000000000000     
  -2.2050000000000000E-002     0.0000000000000000     
  -2.1999999999999999E-002     0.0000000000000000     
  -2.1950000000000001E-002     0.0000000000000000     
  -2.1899999999999999E-002     0.0000000000000000     
  -2.1850000000000001E-002     0.0000000000000000     
  -2.1800000000000000E-002     0.0000000000000000     
  -2.1749999999999999E-002     0.0000000000000000     
  -2.1700000000000001E-002     0.0000000000000000     
  -2.1649999999999999E-002     0.0000000000000000     
  -2.1600000000000001E-002     0.0000000000000000     
  -2.1550000000000000E-002     0.0000000000000000     
  -2.1499999999999998E-002     0.0000000000000000     
  -2.1450000000000000E-002     0.0000000000000000     
  -2.1399999999999999E-002     0.0000000000000000     
  -2.1350000000000001E-002     0.0000000000000000     
  -2.1299999999999999E-002     0.0000000000000000     
  -2.1250000000000002E-002     0.0000000000000000     
  -2.1200000000000000E-002     0.0000000000000000     
  -2.1149999999999999E-002     0.0000000000000000     
  -2.1100000000000001E-002     0.0000000000000000     
  -2.1049999999999999E-002     0.0000000000000000     
  -2.1000000000000001E-002     0.0000000000000000     
  -2.0950000000000000E-002    -4.7354035614598048E-040
  -2.0899999999999998E-002    -8.9362801159064871E-040
  -2.0850000000000000E-002    -8.9362801159064871E-040
  -2.0799999999999999E-002     5.8595214558976828E-040
  -2.0750000000000001E-002     3.1661184732086942E-039
  -2.0700000000000000E-002     5.7463427998627557E-039
  -2.0649999999999998E-002     6.6812031025724882E-039
  -2.0600000000000000E-002     4.2060814419521253E-039
  -2.0549999999999999E-002    -4.6776965679398262E-039
  -2.0500000000000001E-002    -1.7680437558684467E-038
  -2.0449999999999999E-002    -3.0128534417920912E-038
  -2.0400000000000001E-002    -3.1643205401246162E-038
  -2.0350000000000000E-002    -1.8577992665096045E-038
  -2.0299999999999999E-002     1.1766852108406041E-038
  -2.0250000000000001E-002     5.0727612395186944E-038
  -2.0199999999999999E-002     6.4442222424528362E-038
  -2.0150000000000001E-002     3.7360932247604193E-038
  -2.0100000000000000E-002    -2.9518660763526654E-038
  -2.0049999999999998E-002    -9.7446659517556526E-038
  -2.0000000000000000E-002    -1.3837168953824255E-037
  -1.9949999999999999E-002    -1.2217247528465405E-037
  -1.9900000000000001E-002    -3.4378882866360762E-038
  -1.9850000000000000E-002     1.2143215409209616E-037
  -1.9799999999999998E-002     2.8806294507679737E-037
  -1.9750000000000000E-002     4.1075014239772451E-037
  -1.9699999999999999E-002     4.0375013731290043E-037
  -1.9650000000000001E-002     2.2575189444218808E-037
  -1.9599999999999999E-002    -1.1994029885107903E-037
  -1.9550000000000001E-002    -5.6019770929614020E-037
  -1.9500000000000000E-002    -9.5809219442796739E-037
  -1.9449999999999999E-002    -1.1449778077152359E-036
  -1.9400000000000001E-002    -9.7541897822149570E-037
  -1.9349999999999999E-002    -3.9350732520385234E-037
  -1.9300000000000001E-002     5.2779268475605606E-037
  -1.9250000000000000E-002     1.5738567944054091E-036
  -1.9199999999999998E-002     2.4252178835902169E-036
  -1.9150000000000000E-002     2.7445487702694223E-036
  -1.9099999999999999E-002     2.2850985179725114E-036
  -1.9050000000000001E-002     9.8742959727371084E-037
  -1.9000000000000000E-002    -9.6938103975118077E-037
  -1.8949999999999998E-002    -3.1835386204366502E-036
  -1.8900000000000000E-002    -5.1106625227981704E-036
  -1.8849999999999999E-002    -6.1828510946042117E-036
  -1.8800000000000001E-002    -5.9297630810556138E-036
  -1.8749999999999999E-002    -4.0765348462320356E-036
  -1.8700000000000001E-002    -6.0865773070176559E-037
  -1.8650000000000000E-002     4.2027263273808260E-036
  -1.8599999999999998E-002     9.7183615417084851E-036
  -1.8550000000000001E-002     1.4885401957873592E-035
  -1.8499999999999999E-002     1.8201308107219133E-035
  -1.8450000000000001E-002     1.7817922006838031E-035
  -1.8400000000000000E-002     1.1905101377472400E-035
  -1.8349999999999998E-002    -6.5558365952388223E-037
  -1.8300000000000000E-002    -1.9324442677554617E-035
  -1.8249999999999999E-002    -4.0994239907623836E-035
  -1.8200000000000001E-002    -5.9602208344639126E-035
  -1.8149999999999999E-002    -6.6803832949033530E-035
  -1.8100000000000002E-002    -5.4056031993607563E-035
  -1.8050000000000000E-002    -1.5980820539128414E-035
  -1.7999999999999999E-002     4.5791304080423640E-035
  -1.7950000000000001E-002     1.1973359526253420E-034
  -1.7899999999999999E-002     1.8420691740296257E-034
  -1.7850000000000001E-002     2.1126583055200011E-034
  -1.7800000000000000E-002     1.7471544579330515E-034
  -1.7749999999999998E-002     6.0948198042488577E-035
  -1.7700000000000000E-002    -1.2066435466042729E-034
  -1.7649999999999999E-002    -3.3213262710230245E-034
  -1.7600000000000001E-002    -5.0997381621369785E-034
  -1.7550000000000000E-002    -5.7907850367233850E-034
  -1.7499999999999998E-002    -4.7578532038578414E-034
  -1.7450000000000000E-002    -1.7458845604036940E-034
  -1.7399999999999999E-002     2.9021459650504690E-034
  -1.7350000000000001E-002     8.1732887206071189E-034
  -1.7299999999999999E-002     1.2524760586450989E-033
  -1.7250000000000001E-002     1.4245462666746837E-033
  -1.7200000000000000E-002     1.1972437169512177E-033
  -1.7149999999999999E-002     5.2267804208138773E-034
  -1.7100000000000001E-002    -5.2023584684853055E-034
  -1.7049999999999999E-002    -1.7181053467833023E-033
  -1.7000000000000001E-002    -2.7546238809739896E-033
  -1.6950000000000000E-002    -3.2791290971459409E-033
  -1.6899999999999998E-002    -2.9986567980282685E-033
  -1.6850000000000000E-002    -1.7718455967720337E-033
  -1.6799999999999999E-002     3.1940996107847077E-034
  -1.6750000000000001E-002     2.9408623053918578E-033
  -1.6700000000000000E-002     5.5313301636599691E-033
  -1.6649999999999998E-002     7.3846965452241053E-033
  -1.6600000000000000E-002     7.7817424646896257E-033
  -1.6549999999999999E-002     6.1582279930016461E-033
  -1.6500000000000001E-002     2.2890512962522547E-033
  -1.6449999999999999E-002    -3.5406758830060483E-033
  -1.6400000000000001E-002    -1.0419586859580879E-032
  -1.6350000000000000E-002    -1.6804427581948090E-032
  -1.6299999999999999E-002    -2.0685339185101407E-032
  -1.6250000000000001E-002    -1.9966557055476891E-032
  -1.6199999999999999E-002    -1.3058775900100015E-032
  -1.6150000000000001E-002     4.0215197715719749E-034
  -1.6100000000000000E-002     1.8894404115584521E-032
  -1.6049999999999998E-002     3.8672560914618630E-032
  -1.6000000000000000E-002     5.4034898282747362E-032
  -1.5949999999999999E-002     5.8386707028841430E-032
  -1.5900000000000001E-002     4.6078095257244376E-032
  -1.5850000000000000E-002     1.4690725885949236E-032
  -1.5799999999999998E-002    -3.2862810513894999E-032
  -1.5750000000000000E-002    -8.7258387352495771E-032
  -1.5699999999999999E-002    -1.3348408982376239E-031
  -1.5650000000000001E-002    -1.5379274780310125E-031
  -1.5599999999999999E-002    -1.3265415919310687E-031
  -1.5550000000000001E-002    -6.2679023859780810E-032
  -1.5500000000000000E-002     5.0206523789526267E-032
  -1.5449999999999998E-002     1.8435206173573871E-031
  -1.5400000000000000E-002     3.0442367572323076E-031
  -1.5349999999999999E-002     3.6855606904240978E-031
  -1.5300000000000001E-002     3.3973594448741290E-031
  -1.5250000000000000E-002     1.9888403618048514E-031
  -1.5199999999999998E-002    -4.4121570836398884E-032
  -1.5150000000000000E-002    -3.4551267491664766E-031
  -1.5099999999999999E-002    -6.3184546577747309E-031
  -1.5050000000000001E-002    -8.1425828950152145E-031
  -1.4999999999999999E-002    -8.1078776608164563E-031
  -1.4949999999999998E-002    -5.7193953274139023E-031
  -1.4900000000000000E-002    -1.0282649797363991E-031
  -1.4849999999999999E-002     5.2507496589082057E-031
  -1.4800000000000001E-002     1.1778600716775750E-030
  -1.4749999999999999E-002     1.6808440718146199E-030
  -1.4700000000000001E-002     1.8557322950712513E-030
  -1.4650000000000000E-002     1.5669386883323670E-030
  -1.4599999999999998E-002     7.6748527401738343E-031
  -1.4550000000000000E-002    -4.6661703933308784E-031
  -1.4499999999999999E-002    -1.9241207430132547E-030
  -1.4450000000000001E-002    -3.2765024079458268E-030
  -1.4400000000000000E-002    -4.1297056249710800E-030
  -1.4349999999999998E-002    -4.1069605214186933E-030
  -1.4300000000000000E-002    -2.9522173280352528E-030
  -1.4249999999999999E-002    -6.3532187009995547E-031
  -1.4200000000000001E-002     2.5674579677735872E-030
  -1.4149999999999999E-002     6.0479486075851163E-030
  -1.4099999999999998E-002     8.9233037959094107E-030
  -1.4050000000000000E-002     1.0191260624576042E-029
  -1.3999999999999999E-002     8.9757487009026752E-030
  -1.3950000000000001E-002     4.8241091536176409E-030
  -1.3899999999999999E-002    -2.0149061867626443E-030
  -1.3850000000000001E-002    -1.0425407313940224E-029
  -1.3800000000000000E-002    -1.8464036514701822E-029
  -1.3749999999999998E-002    -2.3666770747291296E-029
  -1.3700000000000000E-002    -2.3620182825254230E-029
  -1.3649999999999999E-002    -1.6707368426279971E-029
  -1.3600000000000001E-002    -2.8508390785247597E-030
  -1.3550000000000000E-002     1.5983502855631985E-029
  -1.3499999999999998E-002     3.5755774354303543E-029
  -1.3450000000000000E-002     5.0949791959187689E-029
  -1.3399999999999999E-002     5.5799212520037607E-029
  -1.3350000000000001E-002     4.5942500137670365E-029
  -1.3299999999999999E-002     2.0115878407733004E-029
  -1.3249999999999998E-002    -1.8624093281790010E-029
  -1.3200000000000000E-002    -6.2643350307465126E-029
  -1.3149999999999998E-002    -1.0076205060956664E-028
  -1.3100000000000001E-002    -1.2058631181079318E-028
  -1.3049999999999999E-002    -1.1176481342471159E-028
  -1.3000000000000001E-002    -6.9437542707858633E-029
  -1.2950000000000000E-002     3.0701965186870762E-030
  -1.2899999999999998E-002     9.3236654624049370E-029
  -1.2850000000000000E-002     1.8065653636507477E-028
  -1.2799999999999999E-002     2.4080136500207123E-028