  -4.0000000000000001E-002     0.0000000000000000     
  -3.9949999999999999E-002     0.0000000000000000     
  -3.9899999999999998E-002     0.0000000000000000     
  -3.9850000000000003E-002     0.0000000000000000     
  -3.9800000000000002E-002     0.0000000000000000     
  -3.9750000000000001E-002     0.0000000000000000     
  -3.9699999999999999E-002     0.0000000000000000     
  -3.9649999999999998E-002     0.0000000000000000     
  -3.9600000000000003E-002     0.0000000000000000     
  -3.9550000000000002E-002     0.0000000000000000     
  -3.9500000000000000E-002     0.0000000000000000     
  -3.9449999999999999E-002     0.0000000000000000     
  -3.9399999999999998E-002     0.0000000000000000     
  -3.9350000000000003E-002     0.0000000000000000     
  -3.9300000000000002E-002     0.0000000000000000     
  -3.9250000000000000E-002     0.0000000000000000     
  -3.9199999999999999E-002     0.0000000000000000     
  -3.9150000000000004E-002     0.0000000000000000     
  -3.9100000000000003E-002     0.0000000000000000     
  -3.9050000000000001E-002     0.0000000000000000     
  -3.9000000000000000E-002     0.0000000000000000     
  -3.8949999999999999E-002     0.0000000000000000     
  -3.8900000000000004E-002     0.0000000000000000     
  -3.8850000000000003E-002     0.0000000000000000     
  -3.8800000000000001E-002     0.0000000000000000     
  -3.8750000000000000E-002     0.0000000000000000     
  -3.8699999999999998E-002     0.0000000000000000     
  -3.8650000000000004E-002     0.0000000000000000     
  -3.8600000000000002E-002     0.0000000000000000     
  -3.8550000000000001E-002     0.0000000000000000     
  -3.8500000000000000E-002     0.0000000000000000     
  -3.8449999999999998E-002     0.0000000000000000     
  -3.8400000000000004E-002     0.0000000000000000     
  -3.8350000000000002E-002     0.0000000000000000     
  -3.8300000000000001E-002     0.0000000000000000     
  -3.8249999999999999E-002     0.0000000000000000     
  -3.8199999999999998E-002     0.0000000000000000     
  -3.8150000000000003E-002     0.0000000000000000     
  -3.8100000000000002E-002     0.0000000000000000     
  -3.8050000000000000E-002     0.0000000000000000     
  -3.7999999999999999E-002     0.0000000000000000     
  -3.7949999999999998E-002     0.0000000000000000     
  -3.7900000000000003E-002     0.0000000000000000     
  -3.7850000000000002E-002     0.0000000000000000     
  -3.7800000000000000E-002     0.0000000000000000     
  -3.7749999999999999E-002     0.0000000000000000     
  -3.7699999999999997E-002     0.0000000000000000     
  -3.7650000000000003E-002     0.0000000000000000     
  -3.7600000000000001E-002     0.0000000000000000     
  -3.7550000000000000E-002     0.0000000000000000     
  -3.7499999999999999E-002     0.0000000000000000     
  -3.7449999999999997E-002     0.0000000000000000     
  -3.7400000000000003E-002     0.0000000000000000     
  -3.7350000000000001E-002     0.0000000000000000     
  -3.7300000000000000E-002     0.0000000000000000     
  -3.7249999999999998E-002     0.0000000000000000     
  -3.7200000000000004E-002     0.0000000000000000     
  -3.7150000000000002E-002     0.0000000000000000     
  -3.7100000000000001E-002     0.0000000000000000     
  -3.7050000000000000E-002     0.0000000000000000     
  -3.6999999999999998E-002     0.0000000000000000     
  -3.6950000000000004E-002     0.0000000000000000     
  -3.6900000000000002E-002     0.0000000000000000     
  -3.6850000000000001E-002     0.0000000000000000     
  -3.6799999999999999E-002     0.0000000000000000     
  -3.6749999999999998E-002     0.0000000000000000     
  -3.6700000000000003E-002     0.0000000000000000     
  -3.6650000000000002E-002     0.0000000000000000     
  -3.6600000000000001E-002     0.0000000000000000     
  -3.6549999999999999E-002     0.0000000000000000     
  -3.6499999999999998E-002     0.0000000000000000     
  -3.6450000000000003E-002     0.0000000000000000     
  -3.6400000000000002E-002     0.0000000000000000     
  -3.6350000000000000E-002     0.0000000000000000     
  -3.6299999999999999E-002     0.0000000000000000     
  -3.6249999999999998E-002     0.0000000000000000     
  -3.6200000000000003E-002     0.0000000000000000     
  -3.6150000000000002E-002     0.0000000000000000     
  -3.6100000000000000E-002     0.0000000000000000     
  -3.6049999999999999E-002     0.0000000000000000     
  -3.6000000000000004E-002     0.0000000000000000     
  -3.5950000000000003E-002     0.0000000000000000     
  -3.5900000000000001E-002     0.0000000000000000     
  -3.5850000000000000E-002     0.0000000000000000     
  -3.5799999999999998E-002     0.0000000000000000     
  -3.5750000000000004E-002     0.0000000000000000     
  -3.5700000000000003E-002     0.0000000000000000     
  -3.5650000000000001E-002     0.0000000000000000     
  -3.5600000000000000E-002     0.0000000000000000     
  -3.5549999999999998E-002     0.0000000000000000     
  -3.5500000000000004E-002     0.0000000000000000     
  -3.5450000000000002E-002     0.0000000000000000     
  -3.5400000000000001E-002     0.0000000000000000     
  -3.5349999999999999E-002     0.0000000000000000     
  -3.5299999999999998E-002     0.0000000000000000     
  -3.5250000000000004E-002     0.0000000000000000     
  -3.5200000000000002E-002     0.0000000000000000     
  -3.5150000000000001E-002     0.0000000000000000     
  -3.5099999999999999E-002     0.0000000000000000     
  -3.5049999999999998E-002     0.0000000000000000     
  -3.5000000000000003E-002     0.0000000000000000     
  -3.4950000000000002E-002     0.0000000000000000     
  -3.4900000000000000E-002     0.0000000000000000     
  -3.4849999999999999E-002     0.0000000000000000     
  -3.4799999999999998E-002     0.0000000000000000     
  -3.4750000000000003E-002     0.0000000000000000     
  -3.4700000000000002E-002     0.0000000000000000     
  -3.4650000000000000E-002     0.0000000000000000     
  -3.4599999999999999E-002     0.0000000000000000     
  -3.4549999999999997E-002     0.0000000000000000     
  -3.4500000000000003E-002     0.0000000000000000     
  -3.4450000000000001E-002     0.0000000000000000     
  -3.4400000000000000E-002     0.0000000000000000     
  -3.4349999999999999E-002     0.0000000000000000     
  -3.4299999999999997E-002     0.0000000000000000     
  -3.4250000000000003E-002     0.0000000000000000     
  -3.4200000000000001E-002     0.0000000000000000     
  -3.4150000000000000E-002     0.0000000000000000     
  -3.4099999999999998E-002     0.0000000000000000     
  -3.4049999999999997E-002     0.0000000000000000     
  -3.4000000000000002E-002     0.0000000000000000     
  -3.3950000000000001E-002     0.0000000000000000     
  -3.3900000000000000E-002     0.0000000000000000     
  -3.3849999999999998E-002     0.0000000000000000     
  -3.3799999999999997E-002     0.0000000000000000     
  -3.3750000000000002E-002     0.0000000000000000     
  -3.3700000000000001E-002     0.0000000000000000     
  -3.3649999999999999E-002     0.0000000000000000     
  -3.3599999999999998E-002     0.0000000000000000     
  -3.3550000000000003E-002     0.0000000000000000     
  -3.3500000000000002E-002     0.0000000000000000     
  -3.3450000000000001E-002     0.0000000000000000     
  -3.3399999999999999E-002     0.0000000000000000     
  -3.3349999999999998E-002     0.0000000000000000     
  -3.3300000000000003E-002     0.0000000000000000     
  -3.3250000000000002E-002     0.0000000000000000     
  -3.3200000000000000E-002     0.0000000000000000     
  -3.3149999999999999E-002     0.0000000000000000     
  -3.3099999999999997E-002     0.0000000000000000     
  -3.3050000000000003E-002     0.0000000000000000     
  -3.3000000000000002E-002     0.0000000000000000     
  -3.2950000000000000E-002     0.0000000000000000     
  -3.2899999999999999E-002     0.0000000000000000     
  -3.2850000000000004E-002     0.0000000000000000     
  -3.2800000000000003E-002     0.0000000000000000     
  -3.2750000000000001E-002     0.0000000000000000     
  -3.2700000000000000E-002     0.0000000000000000     
  -3.2649999999999998E-002     0.0000000000000000     
  -3.2600000000000004E-002     0.0000000000000000     
  -3.2550000000000003E-002     0.0000000000000000     
  -3.2500000000000001E-002     0.0000000000000000     
  -3.2450000000000000E-002     0.0000000000000000     
  -3.2399999999999998E-002     0.0000000000000000     
  -3.2350000000000004E-002     0.0000000000000000     
  -3.2300000000000002E-002     0.0000000000000000     
  -3.2250000000000001E-002     0.0000000000000000     
  -3.2199999999999999E-002     0.0000000000000000     
  -3.2149999999999998E-002     0.0000000000000000     
  -3.2100000000000004E-002     0.0000000000000000     
  -3.2050000000000002E-002     0.0000000000000000     
  -3.2000000000000001E-002     0.0000000000000000     
  -3.1949999999999999E-002     0.0000000000000000     
  -3.1899999999999998E-002     0.0000000000000000     
  -3.1850000000000003E-002     0.0000000000000000     
  -3.1800000000000002E-002     0.0000000000000000     
  -3.1750000000000000E-002     0.0000000000000000     
  -3.1699999999999999E-002     0.0000000000000000     
  -3.1649999999999998E-002     0.0000000000000000     
  -3.1600000000000003E-002     0.0000000000000000     
  -3.1550000000000002E-002     0.0000000000000000     
  -3.1500000000000000E-002     0.0000000000000000     
  -3.1449999999999999E-002     0.0000000000000000     
  -3.1399999999999997E-002     0.0000000000000000     
  -3.1350000000000003E-002     0.0000000000000000     
  -3.1300000000000001E-002     0.0000000000000000     
  -3.1250000000000000E-002     0.0000000000000000     
  -3.1199999999999999E-002     0.0000000000000000     
  -3.1150000000000001E-002     0.0000000000000000     
  -3.1100000000000003E-002     0.0000000000000000     
  -3.1050000000000001E-002     0.0000000000000000     
  -3.1000000000000000E-002     0.0000000000000000     
  -3.0949999999999998E-002     0.0000000000000000     
  -3.0900000000000000E-002     0.0000000000000000     
  -3.0850000000000002E-002     0.0000000000000000     
  -3.0800000000000001E-002     0.0000000000000000     
  -3.0750000000000000E-002     0.0000000000000000     
  -3.0699999999999998E-002     0.0000000000000000     
  -3.0650000000000000E-002     0.0000000000000000     
  -3.0600000000000002E-002     0.0000000000000000     
  -3.0550000000000001E-002     0.0000000000000000     
  -3.0499999999999999E-002     0.0000000000000000     
  -3.0449999999999998E-002     0.0000000000000000     
  -3.0400000000000000E-002     0.0000000000000000     
  -3.0350000000000002E-002     0.0000000000000000     
  -3.0300000000000001E-002     0.0000000000000000     
  -3.0249999999999999E-002     0.0000000000000000     
  -3.0200000000000001E-002     0.0000000000000000     
  -3.0150000000000000E-002     0.0000000000000000     
  -3.0100000000000002E-002     0.0000000000000000     
  -3.0050000000000000E-002     0.0000000000000000     
  -2.9999999999999999E-002     0.0000000000000000     
  -2.9950000000000001E-002     0.0000000000000000     
  -2.9899999999999999E-002     0.0000000000000000     
  -2.9850000000000002E-002     0.0000000000000000     
  -2.9800000000000000E-002     0.0000000000000000     
  -2.9749999999999999E-002     0.0000000000000000     
  -2.9700000000000001E-002     0.0000000000000000     
  -2.9650000000000003E-002     0.0000000000000000     
  -2.9600000000000001E-002     0.0000000000000000     
  -2.9550000000000000E-002     0.0000000000000000     
  -2.9499999999999998E-002     0.0000000000000000     
  -2.9450000000000000E-002     0.0000000000000000     
  -2.9400000000000003E-002     0.0000000000000000     
  -2.9350000000000001E-002     0.0000000000000000     
  -2.9300000000000000E-002     0.0000000000000000     
  -2.9249999999999998E-002     0.0000000000000000     
  -2.9200000000000000E-002     0.0000000000000000     
  -2.9150000000000002E-002     0.0000000000000000     
  -2.9100000000000001E-002     0.0000000000000000     
  -2.9049999999999999E-002     0.0000000000000000     
  -2.8999999999999998E-002     0.0000000000000000     
  -2.8950000000000000E-002     0.0000000000000000     
  -2.8900000000000002E-002     0.0000000000000000     
  -2.8850000000000001E-002     0.0000000000000000     
  -2.8799999999999999E-002     0.0000000000000000     
  -2.8749999999999998E-002     0.0000000000000000     
  -2.8700000000000000E-002     0.0000000000000000     
  -2.8650000000000002E-002     0.0000000000000000     
  -2.8600000000000000E-002     0.0000000000000000     
  -2.8549999999999999E-002     0.0000000000000000     
  -2.8500000000000001E-002     0.0000000000000000     
  -2.8450000000000000E-002     0.0000000000000000     
  -2.8400000000000002E-002     0.0000000000000000     
  -2.8350000000000000E-002     0.0000000000000000     
  -2.8299999999999999E-002     0.0000000000000000     
  -2.8250000000000001E-002     0.0000000000000000     
  -2.8200000000000003E-002     0.0000000000000000     
  -2.8150000000000001E-002     0.0000000000000000     
  -2.8100000000000000E-002     0.0000000000000000     
  -2.8049999999999999E-002     0.0000000000000000     
  -2.8000000000000001E-002     0.0000000000000000     
  -2.7950000000000003E-002     0.0000000000000000     
  -2.7900000000000001E-002     0.0000000000000000     
  -2.7850000000000000E-002     0.0000000000000000     
  -2.7799999999999998E-002     0.0000000000000000     
  -2.7750000000000000E-002     0.0000000000000000     
  -2.7700000000000002E-002     0.0000000000000000     
  -2.7650000000000001E-002     0.0000000000000000     
  -2.7600000000000000E-002     0.0000000000000000     
  -2.7549999999999998E-002     0.0000000000000000     
  -2.7500000000000000E-002     0.0000000000000000     
  -2.7450000000000002E-002     0.0000000000000000     
  -2.7400000000000001E-002     0.0000000000000000     
  -2.7349999999999999E-002     0.0000000000000000     
  -2.7299999999999998E-002     0.0000000000000000     
  -2.7250000000000000E-002     0.0000000000000000     
  -2.7200000000000002E-002     0.0000000000000000     
  -2.7150000000000001E-002     0.0000000000000000     
  -2.7099999999999999E-002     0.0000000000000000     
  -2.7049999999999998E-002     0.0000000000000000     
  -2.7000000000000000E-002     0.0000000000000000     
  -2.6950000000000002E-002     0.0000000000000000     
  -2.6900000000000000E-002     0.0000000000000000     
  -2.6849999999999999E-002     0.0000000000000000     
  -2.6800000000000001E-002     0.0000000000000000     
  -2.6749999999999999E-002     0.0000000000000000     
  -2.6700000000000002E-002     0.0000000000000000     
  -2.6650000000000000E-002     0.0000000000000000     
  -2.6599999999999999E-002     0.0000000000000000     
  -2.6550000000000001E-002     0.0000000000000000     
  -2.6500000000000003E-002     0.0000000000000000     
  -2.6450000000000001E-002     0.0000000000000000     
  -2.6400000000000000E-002     0.0000000000000000     
  -2.6349999999999998E-002     0.0000000000000000     
  -2.6300000000000000E-002     0.0000000000000000     
  -2.6250000000000002E-002     0.0000000000000000     
  -2.6200000000000001E-002     0.0000000000000000     
  -2.6150000000000000E-002     0.0000000000000000     
  -2.6099999999999998E-002     0.0000000000000000     
  -2.6050000000000000E-002     0.0000000000000000     
  -2.6000000000000002E-002     0.0000000000000000     
  -2.5950000000000001E-002     0.0000000000000000     
  -2.5899999999999999E-002     0.0000000000000000     
  -2.5849999999999998E-002     0.0000000000000000     
  -2.5800000000000000E-002     0.0000000000000000     
  -2.5750000000000002E-002     0.0000000000000000     
  -2.5700000000000001E-002     0.0000000000000000     
  -2.5649999999999999E-002     0.0000000000000000     
  -2.5599999999999998E-002     0.0000000000000000     
  -2.5550000000000000E-002     0.0000000000000000     
  -2.5500000000000002E-002     0.0000000000000000     
  -2.5450000000000000E-002     0.0000000000000000     
  -2.5399999999999999E-002     0.0000000000000000     
  -2.5349999999999998E-002     0.0000000000000000     
  -2.5300000000000000E-002     0.0000000000000000     
  -2.5250000000000002E-002     0.0000000000000000     
  -2.5200000000000000E-002     0.0000000000000000     
  -2.5149999999999999E-002     0.0000000000000000     
  -2.5100000000000001E-002     0.0000000000000000     
  -2.5049999999999999E-002     0.0000000000000000     
  -2.5000000000000001E-002     0.0000000000000000     
  -2.4950000000000000E-002     0.0000000000000000     
  -2.4899999999999999E-002     0.0000000000000000     
  -2.4850000000000001E-002     0.0000000000000000     
  -2.4800000000000003E-002     0.0000000000000000     
  -2.4750000000000001E-002     0.0000000000000000     
  -2.4700000000000000E-002     0.0000000000000000     
  -2.4649999999999998E-002     0.0000000000000000     
  -2.4600000000000000E-002     0.0000000000000000     
  -2.4550000000000002E-002     0.0000000000000000     
  -2.4500000000000001E-002     0.0000000000000000     
  -2.4450000000000000E-002     0.0000000000000000     
  -2.4399999999999998E-002     0.0000000000000000     
  -2.4350000000000000E-002     0.0000000000000000     
  -2.4299999999999999E-002     0.0000000000000000     
  -2.4250000000000001E-002     0.0000000000000000     
  -2.4199999999999999E-002     0.0000000000000000     
  -2.4150000000000001E-002     0.0000000000000000     
  -2.4100000000000000E-002     0.0000000000000000     
  -2.4049999999999998E-002     8.2684808134767261E-040
  -2.4000000000000000E-002     1.6897723123775049E-039
  -2.3949999999999999E-002     9.2739664500870885E-040
  -2.3900000000000001E-002    -1.5101607615243517E-039
  -2.3850000000000000E-002    -3.9080562147651390E-039
  -2.3800000000000002E-002    -3.5731997493687702E-039
  -2.3750000000000000E-002     0.0000000000000000     
  -2.3699999999999999E-002     4.1280908291107119E-039
  -2.3650000000000001E-002     6.5005329992794765E-039
  -2.3599999999999999E-002     3.6567328396146613E-039
  -2.3550000000000001E-002    -6.6076285647523125E-039
  -2.3500000000000000E-002    -1.9955146502170078E-038
  -2.3449999999999999E-002    -2.8719630505988855E-038
  -2.3400000000000001E-002    -2.8035146074794063E-038
  -2.3349999999999999E-002    -1.2218299315674870E-038
  -2.3300000000000001E-002     3.8145111810651396E-038
  -2.3250000000000000E-002     1.2465464839571909E-037
  -2.3199999999999998E-002     1.9601333046678438E-037
  -2.3150000000000000E-002     1.9353701077370662E-037
  -2.3099999999999999E-002     5.1583861059291773E-038
  -2.3050000000000001E-002    -2.2530817688348709E-037
  -2.3000000000000000E-002    -5.5084109153641534E-037
  -2.2950000000000002E-002    -7.5978467770970251E-037
  -2.2900000000000000E-002    -6.7965088681070956E-037
  -2.2849999999999999E-002    -2.2483631649954262E-037
  -2.2800000000000001E-002     5.5789472917145846E-037
  -2.2749999999999999E-002     1.4469165862977594E-036
  -2.2700000000000001E-002     2.0645169638461383E-036
  -2.2650000000000000E-002     2.0426815742854941E-036
  -2.2599999999999999E-002     1.1338345870705201E-036
  -2.2550000000000001E-002    -6.0999372989766869E-037
  -2.2499999999999999E-002    -2.7598662005369274E-036
  -2.2450000000000001E-002    -4.5567241891469869E-036
  -2.2400000000000000E-002    -5.1322114543737328E-036
  -2.2349999999999998E-002    -3.8533589690675693E-036
  -2.2300000000000000E-002    -6.7569973020358168E-037
  -2.2249999999999999E-002     3.6684999641764753E-036
  -2.2200000000000001E-002     7.7722127370214030E-036
  -2.2150000000000000E-002     1.0005522709829455E-035
  -2.2100000000000002E-002     9.1696574991875997E-036
  -2.2050000000000000E-002     5.0923874384727235E-036
  -2.1999999999999999E-002    -1.1466877846554200E-036
  -2.1950000000000001E-002    -7.5516252609113358E-036
  -2.1899999999999999E-002    -1.2046370719268432E-035
  -2.1850000000000001E-002    -1.3454235580250051E-035
  -2.1800000000000000E-002    -1.2095637391414792E-035
  -2.1749999999999999E-002    -9.5483095046264888E-036
  -2.1700000000000001E-002    -7.4919820585710832E-036
  -2.1649999999999999E-002    -6.1104172135798971E-036
  -2.1600000000000001E-002    -3.0135627832792639E-036
  -2.1550000000000000E-002     6.2892699243400803E-036
  -2.1499999999999998E-002     2.5847244622918223E-035
  -2.1450000000000000E-002     5.5207868673340643E-035
  -2.1399999999999999E-002     8.5728261386586044E-035
  -2.1350000000000001E-002     9.9851590723816812E-035
  -2.1299999999999999E-002     7.5587760567289540E-035
  -2.1250000000000002E-002    -3.4397072200736035E-036
  -2.1200000000000000E-002    -1.3501745054788465E-034
  -2.1149999999999999E-002    -2.8806164689604591E-034
  -2.1100000000000001E-002    -4.0200958721104385E-034
  -2.1049999999999999E-002    -4.0112833441550677E-034
  -2.1000000000000001E-002    -2.2373132792269562E-034
  -2.0950000000000000E-002     1.4126720633371502E-034
  -2.0899999999999998E-002     6.2501446378161319E-034
  -2.0850000000000000E-002     1.0738247790246384E-033
  -2.0799999999999999E-002     1.2813008791084808E-033
  -2.0750000000000001E-002     1.0575367564766005E-033
  -2.0700000000000000E-002     3.1822642944760208E-034
  -2.0649999999999998E-002    -8.3894075032448496E-034
  -2.0600000000000000E-002    -2.1089613440692195E-033
  -2.0549999999999999E-002    -3.0337372252412397E-033
  -2.0500000000000001E-002    -3.1382936703813952E-033
  -2.0449999999999999E-002    -2.1162934162345528E-033
  -2.0400000000000001E-002    -1.1857866240245749E-036
  -2.0350000000000000E-002     2.7521722287116016E-033
  -2.0299999999999999E-002     5.3320639310663601E-033
  -2.0250000000000001E-002     6.7892744228311811E-033
  -2.0199999999999999E-002     6.3567790897062315E-033
  -2.0150000000000001E-002     3.7619822298206561E-033
  -2.0100000000000000E-002    -5.9328314998707926E-034
  -2.0049999999999998E-002    -5.6751777245565351E-033
  -2.0000000000000000E-002    -1.0092287651101660E-032
  -1.9949999999999999E-002    -1.2514369944723366E-032
  -1.9900000000000001E-002    -1.2077378665459643E-032
  -1.9850000000000000E-002    -8.6129173008694909E-033
  -1.9799999999999998E-002    -2.6167372379572408E-033
  -1.9750000000000000E-002     4.9980517794949566E-033
  -1.9699999999999999E-002     1.3193891148239330E-032
  -1.9650000000000001E-002     2.0936964346240765E-032
  -1.9599999999999999E-002     2.7038746962754806E-032
  -1.9550000000000001E-002     2.9795335542307439E-032
  -1.9500000000000000E-002     2.6744036148937432E-032
  -1.9449999999999999E-002     1.4979733151043445E-032
  -1.9400000000000001E-002    -7.6470330236799581E-033
  -1.9349999999999999E-002    -4.0536517870451499E-032
  -1.9300000000000001E-002    -7.8227636006497516E-032
  -1.9250000000000000E-002    -1.0936125998415073E-031
  -1.9199999999999998E-002    -1.1802580253370626E-031
  -1.9150000000000000E-002    -8.8242833172378919E-032
  -1.9099999999999999E-002    -1.1120435039091339E-032
  -1.9050000000000001E-002     1.0738380402547436E-031
  -1.9000000000000000E-002     2.4144756097875789E-031
  -1.8949999999999998E-002     3.4672579876829326E-031
  -1.8900000000000000E-002     3.7031329770123280E-031
  -1.8849999999999999E-002     2.6864859716998560E-031
  -1.8800000000000001E-002     2.8894285519488017E-032
  -1.8749999999999999E-002    -3.1388832153214243E-031
  -1.8700000000000001E-002    -6.7246068354753082E-031
  -1.8650000000000000E-002    -9.2232469303358752E-031
  -1.8599999999999998E-002    -9.3628102095436365E-031
  -1.8550000000000001E-002    -6.3119955557473293E-031
  -1.8499999999999999E-002    -1.2416564793955122E-032
  -1.8450000000000001E-002     8.0205255859768843E-031
  -1.8400000000000000E-002     1.5921916540993815E-030
  -1.8349999999999998E-002     2.0864969071052573E-030
  -1.8300000000000000E-002     2.0432208634093703E-030
  -1.8249999999999999E-002     1.3396417638298069E-030
  -1.8200000000000001E-002     3.9051324028736514E-032
  -1.8149999999999999E-002    -1.5922360898616743E-030
  -1.8100000000000002E-002    -3.1319792310330535E-030
  -1.8050000000000000E-002    -4.1064398465206068E-030
  -1.7999999999999999E-002    -4.1244284139752773E-030
  -1.7950000000000001E-002    -3.0005905660500178E-030
  -1.7899999999999999E-002    -8.2901500471228905E-031
  -1.7850000000000001E-002     2.0157159531795448E-030
  -1.7800000000000000E-002     4.9483521973995484E-030
  -1.7749999999999998E-002     7.2892814008834759E-030
  -1.7700000000000000E-002     8.3924711691573575E-030
  -1.7649999999999999E-002     7.7570011363569936E-030
  -1.7600000000000001E-002     5.1141607930394983E-030
  -1.7550000000000000E-002     5.0287500864689604E-031
  -1.7499999999999998E-002    -5.6480150381412254E-030
  -1.7450000000000000E-002    -1.2431666114042595E-029
  -1.7399999999999999E-002    -1.8412117319861001E-029
  -1.7350000000000001E-002    -2.1696708243017856E-029
  -1.7299999999999999E-002    -2.0232848846375969E-029
  -1.7250000000000001E-002    -1.2385151719122085E-029
  -1.7200000000000000E-002     2.2640548140566397E-030
  -1.7149999999999999E-002     2.2104266315030047E-029
  -1.7100000000000001E-002     4.3028478016466578E-029
  -1.7049999999999999E-002     5.8699559298113938E-029
  -1.7000000000000001E-002     6.1818425763396555E-029
  -1.6950000000000000E-002     4.6353085698470125E-029
  -1.6899999999999998E-002     1.0260493785968934E-029
  -1.6850000000000000E-002    -4.2171052563792203E-029
  -1.6799999999999999E-002    -9.9426200494446910E-029
  -1.6750000000000001E-002    -1.4420563135448381E-028
  -1.6700000000000000E-002    -1.5749875035015574E-028
  -1.6649999999999998E-002    -1.2465527940563913E-028
  -1.6600000000000000E-002    -4.1856604902079399E-029
  -1.6549999999999999E-002     7.9253530457706288E-029
  -1.6500000000000001E-002     2.1098581947549061E-028
  -1.6449999999999999E-002     3.1439732242883077E-028
  -1.6400000000000001E-002     3.4918392360764710E-028
  -1.6350000000000000E-002     2.8650670090702764E-028
  -1.6299999999999999E-002     1.2105367356239560E-028
  -1.6250000000000001E-002    -1.2188846516093247E-028
  -1.6199999999999999E-002    -3.8770473334750394E-028
  -1.6150000000000001E-002    -6.0321053339005979E-028
  -1.6100000000000000E-002    -6.9508429448364106E-028
  -1.6049999999999998E-002    -6.1139284199774447E-028
  -1.6000000000000000E-002    -3.4006142962980445E-028
  -1.5949999999999999E-002     8.1551726325801445E-029
  -1.5900000000000001E-002     5.6959183047966868E-028
  -1.5850000000000000E-002     1.0092879210453046E-027
  -1.5799999999999998E-002     1.2797437740030783E-027
  -1.5750000000000000E-002     1.2820723524510709E-027
  -1.5699999999999999E-002     9.6447764233067087E-028
  -1.5650000000000001E-002     3.3923302263569440E-028
  -1.5599999999999999E-002    -5.1111692510454186E-028
  -1.5550000000000001E-002    -1.4388279236521831E-027
  -1.5500000000000000E-002    -2.2468259622541357E-027
  -1.5449999999999998E-002    -2.7152432074093691E-027
  -1.5400000000000000E-002    -2.6391543874319935E-027
  -1.5349999999999999E-002    -1.8773049626967234E-027
  -1.5300000000000001E-002    -4.0793004423024550E-028
  -1.5250000000000000E-002     1.6190125356289441E-027
  -1.5199999999999998E-002     3.8517227204465121E-027
  -1.5150000000000000E-002     5.7518458896445249E-027
  -1.5099999999999999E-002     6.6752945178242935E-027
  -1.5050000000000001E-002     6.0242446942456469E-027
  -1.4999999999999999E-002     3.4508249035108471E-027
  -1.4949999999999998E-002    -9.3668014825253320E-028
  -1.4900000000000000E-002    -6.4376008215431207E-027
  -1.4849999999999999E-002    -1.1769322024475556E-026
  -1.4800000000000001E-002    -1.5276754547979156E-026
  -1.4749999999999999E-002    -1.5339364271024204E-026
  -1.4700000000000001E-002    -1.0901920848188362E-026
  -1.4650000000000000E-002    -1.9861714755970857E-027
  -1.4599999999999998E-002     9.9972916375356137E-027
  -1.4550000000000000E-002     2.2301053642533665E-026
  -1.4499999999999999E-002     3.1340508713733842E-026
  -1.4450000000000001E-002     3.3593329451007743E-026
  -1.4400000000000000E-002     2.6703483069341311E-026
  -1.4349999999999998E-002     1.0479884599323105E-026
  -1.4300000000000000E-002    -1.2553745601542939E-026
  -1.4249999999999999E-002    -3.7325723689347955E-026
  -1.4200000000000001E-002    -5.7188290970417639E-026
  -1.4149999999999999E-002    -6.5542880672687180E-026
  -1.4099999999999998E-002    -5.7738188692008195E-026
  -1.4050000000000000E-002    -3.2720572399842036E-026
  -1.3999999999999999E-002     6.0774282129087991E-027
  -1.3950000000000001E-002     5.0958733693038929E-026
  -1.3899999999999999E-002     9.1356422880707088E-026
  -1.3850000000000001E-002     1.1614190023599756E-025
  -1.3800000000000000E-002     1.1632658189464312E-025
  -1.3749999999999998E-002     8.7517493893123551E-026
  -1.3700000000000000E-002     3.1540312677663575E-026
  -1.3649999999999999E-002    -4.3160298473423417E-026
  -1.3600000000000001E-002    -1.2246706397897851E-025
  -1.3550000000000000E-002    -1.8875847007172182E-025
  -1.3499999999999998E-002    -2.2400196118395725E-025
  -1.3450000000000000E-002    -2.1338364647547428E-025
  -1.3399999999999999E-002    -1.4903068369750114E-025
  -1.3350000000000001E-002    -3.3297132857382576E-026
  -1.3299999999999999E-002     1.1906282944253850E-025
  -1.3249999999999998E-002     2.8067102195751421E-025
  -1.3200000000000000E-002     4.1412465165221728E-025
  -1.3149999999999998E-002     4.7802305076413087E-025
  -1.3100000000000001E-002     4.3631149983299207E-025
  -1.3049999999999999E-002     2.6969155622068168E-025
  -1.3000000000000001E-002    -1.3471023240527189E-026
  -1.2950000000000000E-002    -3.7033433052778952E-025
  -1.2899999999999998E-002    -7.2461781175497964E-025
  -1.2850000000000000E-002    -9.7808533092678052E-025
  -1.2799999999999999E-002    -1.0325013040102509E-024