  -4.0000000000000001E-002     0.0000000000000000     
  -3.9949999999999999E-002     0.0000000000000000     
  -3.9899999999999998E-002     0.0000000000000000     
  -3.9850000000000003E-002     0.0000000000000000     
  -3.9800000000000002E-002     0.0000000000000000     
  -3.9750000000000001E-002     0.0000000000000000     
  -3.9699999999999999E-002     0.0000000000000000     
  -3.9649999999999998E-002     0.0000000000000000     
  -3.9600000000000003E-002     0.0000000000000000     
  -3.9550000000000002E-002     0.0000000000000000     
  -3.9500000000000000E-002     0.0000000000000000     
  -3.9449999999999999E-002     0.0000000000000000     
  -3.9399999999999998E-002     0.0000000000000000     
  -3.9350000000000003E-002     0.0000000000000000     
  -3.9300000000000002E-002     0.0000000000000000     
  -3.9250000000000000E-002     0.0000000000000000     
  -3.9199999999999999E-002     0.0000000000000000     
  -3.9150000000000004E-002     0.0000000000000000     
  -3.9100000000000003E-002     0.0000000000000000     
  -3.9050000000000001E-002     0.0000000000000000     
  -3.9000000000000000E-002     0.0000000000000000     
  -3.8949999999999999E-002     0.0000000000000000     
  -3.8900000000000004E-002     0.0000000000000000     
  -3.8850000000000003E-002     0.0000000000000000     
  -3.8800000000000001E-002     0.0000000000000000     
  -3.8750000000000000E-002     0.0000000000000000     
  -3.8699999999999998E-002     0.0000000000000000     
  -3.8650000000000004E-002     0.0000000000000000     
  -3.8600000000000002E-002     0.0000000000000000     
  -3.8550000000000001E-002     0.0000000000000000     
  -3.8500000000000000E-002     0.0000000000000000     
  -3.8449999999999998E-002     0.0000000000000000     
  -3.8400000000000004E-002     0.0000000000000000     
  -3.8350000000000002E-002     0.0000000000000000     
  -3.8300000000000001E-002     0.0000000000000000     
  -3.8249999999999999E-002     0.0000000000000000     
  -3.8199999999999998E-002     0.0000000000000000     
  -3.8150000000000003E-002     0.0000000000000000     
  -3.8100000000000002E-002     0.0000000000000000     
  -3.8050000000000000E-002     0.0000000000000000     
  -3.7999999999999999E-002     0.0000000000000000     
  -3.7949999999999998E-002     0.0000000000000000     
  -3.7900000000000003E-002     0.0000000000000000     
  -3.7850000000000002E-002     0.0000000000000000     
  -3.7800000000000000E-002     0.0000000000000000     
  -3.7749999999999999E-002     0.0000000000000000     
  -3.7699999999999997E-002     0.0000000000000000     
  -3.7650000000000003E-002     0.0000000000000000     
  -3.7600000000000001E-002     0.0000000000000000     
  -3.7550000000000000E-002     0.0000000000000000     
  -3.7499999999999999E-002     0.0000000000000000     
  -3.7449999999999997E-002     0.0000000000000000     
  -3.7400000000000003E-002     0.0000000000000000     
  -3.7350000000000001E-002     0.0000000000000000     
  -3.7300000000000000E-002     0.0000000000000000     
  -3.7249999999999998E-002     0.0000000000000000     
  -3.7200000000000004E-002     0.0000000000000000     
  -3.7150000000000002E-002     0.0000000000000000     
  -3.7100000000000001E-002     0.0000000000000000     
  -3.7050000000000000E-002     0.0000000000000000     
  -3.6999999999999998E-002     0.0000000000000000     
  -3.6950000000000004E-002     0.0000000000000000     
  -3.6900000000000002E-002     0.0000000000000000     
  -3.6850000000000001E-002     0.0000000000000000     
  -3.6799999999999999E-002     0.0000000000000000     
  -3.6749999999999998E-002     0.0000000000000000     
  -3.6700000000000003E-002     0.0000000000000000     
  -3.6650000000000002E-002     0.0000000000000000     
  -3.6600000000000001E-002     0.0000000000000000     
  -3.6549999999999999E-002     0.0000000000000000     
  -3.6499999999999998E-002     0.0000000000000000     
  -3.6450000000000003E-002     0.0000000000000000     
  -3.6400000000000002E-002     0.0000000000000000     
  -3.6350000000000000E-002     0.0000000000000000     
  -3.6299999999999999E-002     0.0000000000000000     
  -3.6249999999999998E-002     0.0000000000000000     
  -3.6200000000000003E-002     0.0000000000000000     
  -3.6150000000000002E-002     0.0000000000000000     
  -3.6100000000000000E-002     0.0000000000000000     
  -3.6049999999999999E-002     0.0000000000000000     
  -3.6000000000000004E-002     0.0000000000000000     
  -3.5950000000000003E-002     0.0000000000000000     
  -3.5900000000000001E-002     0.0000000000000000     
  -3.5850000000000000E-002     0.0000000000000000     
  -3.5799999999999998E-002     0.0000000000000000     
  -3.5750000000000004E-002     0.0000000000000000     
  -3.5700000000000003E-002     0.0000000000000000     
  -3.5650000000000001E-002     0.0000000000000000     
  -3.5600000000000000E-002     0.0000000000000000     
  -3.5549999999999998E-002     0.0000000000000000     
  -3.5500000000000004E-002     0.0000000000000000     
  -3.5450000000000002E-002     0.0000000000000000     
  -3.5400000000000001E-002     0.0000000000000000     
  -3.5349999999999999E-002     0.0000000000000000     
  -3.5299999999999998E-002     0.0000000000000000     
  -3.5250000000000004E-002     0.0000000000000000     
  -3.5200000000000002E-002     0.0000000000000000     
  -3.5150000000000001E-002     0.0000000000000000     
  -3.5099999999999999E-002     0.0000000000000000     
  -3.5049999999999998E-002     0.0000000000000000     
  -3.5000000000000003E-002     0.0000000000000000     
  -3.4950000000000002E-002     0.0000000000000000     
  -3.4900000000000000E-002     0.0000000000000000     
  -3.4849999999999999E-002     0.0000000000000000     
  -3.4799999999999998E-002     0.0000000000000000     
  -3.4750000000000003E-002     0.0000000000000000     
  -3.4700000000000002E-002     0.0000000000000000     
  -3.4650000000000000E-002     0.0000000000000000     
  -3.4599999999999999E-002     0.0000000000000000     
  -3.4549999999999997E-002     0.0000000000000000     
  -3.4500000000000003E-002     0.0000000000000000     
  -3.4450000000000001E-002     0.0000000000000000     
  -3.4400000000000000E-002     0.0000000000000000     
  -3.4349999999999999E-002     0.0000000000000000     
  -3.4299999999999997E-002     0.0000000000000000     
  -3.4250000000000003E-002     0.0000000000000000     
  -3.4200000000000001E-002     0.0000000000000000     
  -3.4150000000000000E-002     0.0000000000000000     
  -3.4099999999999998E-002     0.0000000000000000     
  -3.4049999999999997E-002     0.0000000000000000     
  -3.4000000000000002E-002     0.0000000000000000     
  -3.3950000000000001E-002     0.0000000000000000     
  -3.3900000000000000E-002     0.0000000000000000     
  -3.3849999999999998E-002     0.0000000000000000     
  -3.3799999999999997E-002     0.0000000000000000     
  -3.3750000000000002E-002     0.0000000000000000     
  -3.3700000000000001E-002     0.0000000000000000     
  -3.3649999999999999E-002     0.0000000000000000     
  -3.3599999999999998E-002     0.0000000000000000     
  -3.3550000000000003E-002     0.0000000000000000     
  -3.3500000000000002E-002     0.0000000000000000     
  -3.3450000000000001E-002     0.0000000000000000     
  -3.3399999999999999E-002     0.0000000000000000     
  -3.3349999999999998E-002     0.0000000000000000     
  -3.3300000000000003E-002     0.0000000000000000     
  -3.3250000000000002E-002     0.0000000000000000     
  -3.3200000000000000E-002     0.0000000000000000     
  -3.3149999999999999E-002     0.0000000000000000     
  -3.3099999999999997E-002     0.0000000000000000     
  -3.3050000000000003E-002     0.0000000000000000     
  -3.3000000000000002E-002     0.0000000000000000     
  -3.2950000000000000E-002     0.0000000000000000     
  -3.2899999999999999E-002     0.0000000000000000     
  -3.2850000000000004E-002     0.0000000000000000     
  -3.2800000000000003E-002     0.0000000000000000     
  -3.2750000000000001E-002     0.0000000000000000     
  -3.2700000000000000E-002     0.0000000000000000     
  -3.2649999999999998E-002     0.0000000000000000     
  -3.2600000000000004E-002     0.0000000000000000     
  -3.2550000000000003E-002     0.0000000000000000     
  -3.2500000000000001E-002     0.0000000000000000     
  -3.2450000000000000E-002     0.0000000000000000     
  -3.2399999999999998E-002     0.0000000000000000     
  -3.2350000000000004E-002     0.0000000000000000     
  -3.2300000000000002E-002     0.0000000000000000     
  -3.2250000000000001E-002     0.0000000000000000     
  -3.2199999999999999E-002     0.0000000000000000     
  -3.2149999999999998E-002     0.0000000000000000     
  -3.2100000000000004E-002     0.0000000000000000     
  -3.2050000000000002E-002     0.0000000000000000     
  -3.2000000000000001E-002     0.0000000000000000     
  -3.1949999999999999E-002     0.0000000000000000     
  -3.1899999999999998E-002     0.0000000000000000     
  -3.1850000000000003E-002     0.0000000000000000     
  -3.1800000000000002E-002     0.0000000000000000     
  -3.1750000000000000E-002     0.0000000000000000     
  -3.1699999999999999E-002     0.0000000000000000     
  -3.1649999999999998E-002     0.0000000000000000     
  -3.1600000000000003E-002     0.0000000000000000     
  -3.1550000000000002E-002     0.0000000000000000     
  -3.1500000000000000E-002     0.0000000000000000     
  -3.1449999999999999E-002     0.0000000000000000     
  -3.1399999999999997E-002     0.0000000000000000     
  -3.1350000000000003E-002     0.0000000000000000     
  -3.1300000000000001E-002     0.0000000000000000     
  -3.1250000000000000E-002     0.0000000000000000     
  -3.1199999999999999E-002     0.0000000000000000     
  -3.1150000000000001E-002     0.0000000000000000     
  -3.1100000000000003E-002     0.0000000000000000     
  -3.1050000000000001E-002     0.0000000000000000     
  -3.1000000000000000E-002     0.0000000000000000     
  -3.0949999999999998E-002     0.0000000000000000     
  -3.0900000000000000E-002     0.0000000000000000     
  -3.0850000000000002E-002     0.0000000000000000     
  -3.0800000000000001E-002     0.0000000000000000     
  -3.0750000000000000E-002     0.0000000000000000     
  -3.0699999999999998E-002     0.0000000000000000     
  -3.0650000000000000E-002     0.0000000000000000     
  -3.0600000000000002E-002     0.0000000000000000     
  -3.0550000000000001E-002     0.0000000000000000     
  -3.0499999999999999E-002     0.0000000000000000     
  -3.0449999999999998E-002     0.0000000000000000     
  -3.0400000000000000E-002     0.0000000000000000     
  -3.0350000000000002E-002     0.0000000000000000     
  -3.0300000000000001E-002     0.0000000000000000     
  -3.0249999999999999E-002     0.0000000000000000     
  -3.0200000000000001E-002     0.0000000000000000     
  -3.0150000000000000E-002     0.0000000000000000     
  -3.0100000000000002E-002     0.0000000000000000     
  -3.0050000000000000E-002     0.0000000000000000     
  -2.9999999999999999E-002     0.0000000000000000     
  -2.9950000000000001E-002     0.0000000000000000     
  -2.9899999999999999E-002     0.0000000000000000     
  -2.9850000000000002E-002     0.0000000000000000     
  -2.9800000000000000E-002     0.0000000000000000     
  -2.9749999999999999E-002     0.0000000000000000     
  -2.9700000000000001E-002     0.0000000000000000     
  -2.9650000000000003E-002     0.0000000000000000     
  -2.9600000000000001E-002     0.0000000000000000     
  -2.9550000000000000E-002     0.0000000000000000     
  -2.9499999999999998E-002     0.0000000000000000     
  -2.9450000000000000E-002     0.0000000000000000     
  -2.9400000000000003E-002     0.0000000000000000     
  -2.9350000000000001E-002     0.0000000000000000     
  -2.9300000000000000E-002     0.0000000000000000     
  -2.9249999999999998E-002     0.0000000000000000     
  -2.9200000000000000E-002     0.0000000000000000     
  -2.9150000000000002E-002     0.0000000000000000     
  -2.9100000000000001E-002     0.0000000000000000     
  -2.9049999999999999E-002     0.0000000000000000     
  -2.8999999999999998E-002     0.0000000000000000     
  -2.8950000000000000E-002     0.0000000000000000     
  -2.8900000000000002E-002     0.0000000000000000     
  -2.8850000000000001E-002     0.0000000000000000     
  -2.8799999999999999E-002     0.0000000000000000     
  -2.8749999999999998E-002     0.0000000000000000     
  -2.8700000000000000E-002     0.0000000000000000     
  -2.8650000000000002E-002     0.0000000000000000     
  -2.8600000000000000E-002     0.0000000000000000     
  -2.8549999999999999E-002     0.0000000000000000     
  -2.8500000000000001E-002     0.0000000000000000     
  -2.8450000000000000E-002     0.0000000000000000     
  -2.8400000000000002E-002     0.0000000000000000     
  -2.8350000000000000E-002     0.0000000000000000     
  -2.8299999999999999E-002     0.0000000000000000     
  -2.8250000000000001E-002     0.0000000000000000     
  -2.8200000000000003E-002     0.0000000000000000     
  -2.8150000000000001E-002     0.0000000000000000     
  -2.8100000000000000E-002     0.0000000000000000     
  -2.8049999999999999E-002    -1.2609632426904955E-039
  -2.8000000000000001E-002    -3.0787410701276902E-039
  -2.7950000000000003E-002    -4.3205411243573783E-039
  -2.7900000000000001E-002    -8.2856545938969741E-040
  -2.7850000000000000E-002     7.3571200228385968E-039
  -2.7799999999999998E-002     3.1049700428734488E-038
  -2.7750000000000000E-002     3.6641095036385688E-038
  -2.7700000000000002E-002     3.0746519807946781E-038
  -2.7650000000000001E-002    -3.6462514590053290E-038
  -2.7600000000000000E-002    -1.1861806631056810E-037
  -2.7549999999999998E-002    -1.7746502998177691E-037
  -2.7500000000000000E-002    -1.5349489625276477E-037
  -2.7450000000000002E-002    -1.5172112260636894E-038
  -2.7400000000000001E-002     2.1552085491294175E-037
  -2.7349999999999999E-002     4.5621225009103358E-037
  -2.7299999999999998E-002     5.6983321710463260E-037
  -2.7250000000000000E-002     4.4346507187059435E-037
  -2.7200000000000002E-002     3.7002184314819566E-038
  -2.7150000000000001E-002    -5.7639414637537978E-037
  -2.7099999999999999E-002    -1.1899133998972164E-036
  -2.7049999999999998E-002    -1.5190136356273575E-036
  -2.7000000000000000E-002    -1.3120044169805924E-036
  -2.6950000000000002E-002    -4.8505040309971724E-037
  -2.6900000000000000E-002     7.8648129345886786E-037
  -2.6849999999999999E-002     2.0758639671904988E-036
  -2.6800000000000001E-002     2.8477546530879453E-036
  -2.6749999999999999E-002     2.6990238763033851E-036
  -2.6700000000000002E-002     1.5941090838665218E-036
  -2.6650000000000000E-002    -5.3354019385820587E-038
  -2.6599999999999999E-002    -1.5468147376419328E-036
  -2.6550000000000001E-002    -2.3011818745244467E-036
  -2.6500000000000003E-002    -2.2848040216390145E-036
  -2.6450000000000001E-002    -2.2141258319320542E-036
  -2.6400000000000000E-002    -3.2371019287532912E-036
  -2.6349999999999998E-002    -6.0646474621438430E-036
  -2.6300000000000000E-002    -9.8760799093521122E-036
  -2.6250000000000002E-002    -1.1684739371734389E-035
  -2.6200000000000001E-002    -6.9364532321498693E-036
  -2.6150000000000000E-002     8.2540823635668765E-036
  -2.6099999999999998E-002     3.3682273493851427E-035
  -2.6050000000000000E-002     6.1967646731961294E-035
  -2.6000000000000002E-002     7.8030314267790941E-035
  -2.5950000000000001E-002     6.3078462316459564E-035
  -2.5899999999999999E-002     3.4210554031831769E-036
  -2.5849999999999998E-002    -9.8303378340941178E-035
  -2.5800000000000000E-002    -2.1464312785945555E-034
  -2.5750000000000002E-002    -2.9395373882876729E-034
  -2.5700000000000001E-002    -2.7463937007570182E-034
  -2.5649999999999999E-002    -1.1223674125334291E-034
  -2.5599999999999998E-002     1.8885203714593265E-034
  -2.5550000000000000E-002     5.5356154037336583E-034
  -2.5500000000000002E-002     8.4027523425248221E-034
  -2.5450000000000000E-002     8.8026826156023947E-034
  -2.5399999999999999E-002     5.4755314361416069E-034
  -2.5349999999999998E-002    -1.6347820889581162E-034
  -2.5300000000000000E-002    -1.0881690989406358E-033
  -2.5250000000000002E-002    -1.9045368586303651E-033
  -2.5200000000000000E-002    -2.2253546566400799E-033
  -2.5149999999999999E-002    -1.7518213302664670E-033
  -2.5100000000000001E-002    -4.3464913983813354E-034
  -2.5049999999999999E-002     1.4326791767773400E-033
  -2.5000000000000001E-002     3.2529322583441377E-033
  -2.4950000000000000E-002     4.3134388357583205E-033
  -2.4899999999999999E-002     4.0700992419362444E-033
  -2.4850000000000001E-002     2.4104328624231683E-033
  -2.4800000000000003E-002    -2.3988783722295510E-034
  -2.4750000000000001E-002    -3.0529960585882092E-033
  -2.4700000000000000E-002    -5.1516229973336916E-033
  -2.4649999999999998E-002    -6.0233989378980283E-033
  -2.4600000000000000E-002    -5.7636134976512048E-033
  -2.4550000000000002E-002    -4.9519548263879062E-033
  -2.4500000000000001E-002    -4.1425190305012408E-033
  -2.4450000000000000E-002    -3.1999546254407936E-033
  -2.4399999999999998E-002    -9.2189386594679581E-034
  -2.4350000000000000E-002     4.6012673164650196E-033
  -2.4299999999999999E-002     1.4718201127593830E-032
  -2.4250000000000001E-002     2.8399168691251512E-032
  -2.4199999999999999E-002     4.0798385173058824E-032
  -2.4150000000000001E-002     4.3406506003150849E-032
  -2.4100000000000000E-002     2.6687602008515664E-032
  -2.4049999999999998E-002    -1.4917914333502094E-032
  -2.4000000000000000E-002    -7.7197899020594724E-032
  -2.3949999999999999E-002    -1.4243173311181800E-031
  -2.3900000000000001E-002    -1.8086929501928245E-031
  -2.3850000000000000E-002    -1.5931079731241558E-031
  -2.3800000000000002E-002    -5.5810976310533860E-032
  -2.3750000000000000E-002     1.2408807500150615E-031
  -2.3699999999999999E-002     3.3699825129473787E-031
  -2.3650000000000001E-002     5.0482638086247214E-031
  -2.3599999999999999E-002     5.3554274624287617E-031
  -2.3550000000000001E-002     3.5881655343767507E-031
  -2.3500000000000000E-002    -3.4372301947552849E-032
  -2.3449999999999999E-002    -5.6487007538725294E-031
  -2.3400000000000001E-002    -1.0678754113614316E-030
  -2.3349999999999999E-002    -1.3335545599584277E-030
  -2.3300000000000001E-002    -1.1799110842236593E-030
  -2.3250000000000000E-002    -5.3579041306418537E-031
  -2.3199999999999998E-002     4.9897239874428100E-031
  -2.3150000000000000E-002     1.6480713133623213E-030
  -2.3099999999999999E-002     2.5237659055558925E-030
  -2.3050000000000001E-002     2.7511715641843513E-030
  -2.3000000000000000E-002     2.1122191004286788E-030
  -2.2950000000000002E-002     6.5321295725610244E-031
  -2.2900000000000000E-002    -1.2942718154649269E-030
  -2.2849999999999999E-002    -3.1992917617105836E-030
  -2.2800000000000001E-002    -4.4995660898506584E-030
  -2.2749999999999999E-002    -4.7867190908622456E-030
  -2.2700000000000001E-002    -3.9294369026166526E-030
  -2.2650000000000000E-002    -2.0794109393477809E-030
  -2.2599999999999999E-002     4.3739115898767723E-031
  -2.2550000000000001E-002     3.2753466612442633E-030
  -2.2499999999999999E-002     6.1626142014048796E-030
  -2.2450000000000001E-002     8.8471713783062218E-030
  -2.2400000000000000E-002     1.0895480473475257E-029
  -2.2349999999999998E-002     1.1464660562378627E-029
  -2.2300000000000000E-002     9.2615013042989651E-030
  -2.2249999999999999E-002     2.8946209193380526E-030
  -2.2200000000000001E-002    -8.3215039889747308E-030
  -2.2150000000000000E-002    -2.3316353406903058E-029
  -2.2100000000000002E-002    -3.8452861523205422E-029
  -2.2050000000000000E-002    -4.7584666761293360E-029
  -2.1999999999999999E-002    -4.3470229979728083E-029
  -2.1950000000000001E-002    -2.0560703032172409E-029
  -2.1899999999999999E-002     2.1524991176231084E-029
  -2.1850000000000001E-002     7.5195196418320668E-029
  -2.1800000000000000E-002     1.2439555550096393E-028
  -2.1749999999999999E-002     1.4768738145452350E-028
  -2.1700000000000001E-002     1.2500339835195313E-028
  -2.1649999999999999E-002     4.6556331293811374E-029
  -2.1600000000000001E-002    -7.9161161149786200E-029
  -2.1550000000000000E-002    -2.2204454776991480E-028
  -2.1499999999999998E-002    -3.3473751303736216E-028
  -2.1450000000000000E-002    -3.6541002050332699E-028
  -2.1399999999999999E-002    -2.7635909511542259E-028
  -2.1350000000000001E-002    -6.2647607299405176E-029
  -2.1299999999999999E-002     2.3664173422292170E-028
  -2.1250000000000002E-002     5.4092975072667202E-028
  -2.1200000000000000E-002     7.4689858167494051E-028
  -2.1149999999999999E-002     7.6007059690246136E-028
  -2.1100000000000001E-002     5.3002359821404948E-028
  -2.1049999999999999E-002     7.6817387486887734E-029
  -2.1000000000000001E-002    -5.0265032242573395E-028
  -2.0950000000000000E-002    -1.0537997853873700E-027
  -2.0899999999999998E-002    -1.4055984497138134E-027
  -2.0850000000000000E-002    -1.4217621002477603E-027
  -2.0799999999999999E-002    -1.0450595403276871E-027
  -2.0750000000000001E-002    -3.1945600757989851E-028
  -2.0700000000000000E-002     6.1726569013114306E-028
  -2.0649999999999998E-002     1.5665746844588885E-027
  -2.0600000000000000E-002     2.3145858473870324E-027
  -2.0549999999999999E-002     2.6733038414900838E-027
  -2.0500000000000001E-002     2.5066157428885924E-027
  -2.0449999999999999E-002     1.7415292548260188E-027
  -2.0400000000000001E-002     3.7667468132371276E-028
  -2.0350000000000000E-002    -1.4962225978910213E-027
  -2.0299999999999999E-002    -3.6515173195095589E-027
  -2.0250000000000001E-002    -5.6841238393464452E-027
  -2.0199999999999999E-002    -6.9975094066044262E-027
  -2.0150000000000001E-002    -6.8747902137146862E-027
  -2.0100000000000000E-002    -4.6678144123085219E-027
  -2.0049999999999998E-002    -9.3367469504839686E-029
  -2.0000000000000000E-002     6.4408844082849819E-027
  -1.9949999999999999E-002     1.3619412784715033E-026
  -1.9900000000000001E-002     1.9271046885955903E-026
  -1.9850000000000000E-002     2.0803791889776413E-026
  -1.9799999999999998E-002     1.6013874090035010E-026
  -1.9750000000000000E-002     4.0910008788379821E-027
  -1.9699999999999999E-002    -1.3516205890540756E-026
  -1.9650000000000001E-002    -3.2781698353059958E-026
  -1.9599999999999999E-002    -4.7659506102036513E-026
  -1.9550000000000001E-002    -5.1603023627800614E-026
  -1.9500000000000000E-002    -3.9773673085269047E-026
  -1.9449999999999999E-002    -1.1308629854557446E-026
  -1.9400000000000001E-002     2.9192343409682996E-026
  -1.9349999999999999E-002     7.1735557099877080E-026
  -1.9300000000000001E-002     1.0294600449846500E-025
  -1.9250000000000000E-002     1.0977961909065530E-025
  -1.9199999999999998E-002     8.4003159651217038E-026
  -1.9150000000000000E-002     2.6024042334565072E-026
  -1.9099999999999999E-002    -5.3401474832617083E-026
  -1.9050000000000001E-002    -1.3457184016091587E-025
  -1.9000000000000000E-002    -1.9341755191889507E-025
  -1.8949999999999998E-002    -2.0821920644403109E-025
  -1.8900000000000000E-002    -1.6655945865642613E-025
  -1.8849999999999999E-002    -7.0304214994461818E-026
  -1.8800000000000001E-002     6.3138162388059161E-026
  -1.8749999999999999E-002     2.0393238908970599E-025
  -1.8700000000000001E-002     3.1658290722839986E-025
  -1.8650000000000000E-002     3.6848244021621348E-025
  -1.8599999999999998E-002     3.3789898371621591E-025
  -1.8550000000000001E-002     2.1942857293959991E-025
  -1.8499999999999999E-002     2.5962683963390321E-026
  -1.8450000000000001E-002    -2.1260609740673755E-025
  -1.8400000000000000E-002    -4.5297446798994927E-025
  -1.8349999999999998E-002    -6.4340935246261883E-025
  -1.8300000000000000E-002    -7.2999202493130445E-025
  -1.8249999999999999E-002    -6.6492001264660842E-025
  -1.8200000000000001E-002    -4.1787892755407221E-025
  -1.8149999999999999E-002     9.6701375076705001E-027
  -1.8100000000000002E-002     5.7002139426791421E-025
  -1.8050000000000000E-002     1.1604121649922799E-024
  -1.7999999999999999E-002     1.6276592769870705E-024
  -1.7950000000000001E-002     1.7929910152305453E-024
  -1.7899999999999999E-002     1.4986646607674458E-024
  -1.7850000000000001E-002     6.6923026298297290E-025
  -1.7800000000000000E-002    -6.2950110302429827E-025
  -1.7749999999999998E-002    -2.1575006170565222E-024
  -1.7700000000000000E-002    -3.5167963888876354E-024
  -1.7649999999999999E-002    -4.2298327516107324E-024
  -1.7600000000000001E-002    -3.8733517515438190E-024
  -1.7550000000000000E-002    -2.2377435474901266E-024
  -1.7499999999999998E-002     5.3756057186606033E-025
  -1.7450000000000000E-002     3.9082982164152633E-024
  -1.7399999999999999E-002     6.9917142194746361E-024
  -1.7350000000000001E-002     8.7649050456496732E-024
  -1.7299999999999999E-002     8.3603512360743062E-024
  -1.7250000000000001E-002     5.3810558081996041E-024
  -1.7200000000000000E-002     1.3325571383767118E-025
  -1.7149999999999999E-002    -6.3184894895064464E-024
  -1.7100000000000001E-002    -1.2327203618608741E-023
  -1.7049999999999999E-002    -1.6055651094161369E-023
  -1.7000000000000001E-002    -1.5995539451239352E-023
  -1.6950000000000000E-002    -1.1469229016011299E-023
  -1.6899999999999998E-002    -2.9554399221256787E-024
  -1.6850000000000000E-002     7.8822844629965767E-024
  -1.6799999999999999E-002     1.8504578838446970E-023
  -1.6750000000000001E-002     2.6082310250272693E-023
  -1.6700000000000000E-002     2.8212228599416966E-023
  -1.6649999999999998E-002     2.3571520872962984E-023
  -1.6600000000000000E-002     1.2336556273629744E-023
  -1.6549999999999999E-002    -3.7398720019593846E-024
  -1.6500000000000001E-002    -2.1602643359350457E-023
  -1.6449999999999999E-002    -3.7442582869327884E-023
  -1.6400000000000001E-002    -4.7393615841244157E-023
  -1.6350000000000000E-002    -4.8254709468772525E-023
  -1.6299999999999999E-002    -3.8148734717234542E-023
  -1.6250000000000001E-002    -1.7068719003806745E-023
  -1.6199999999999999E-002     1.2731207075845455E-023
  -1.6150000000000001E-002     4.6582081150797364E-023
  -1.6100000000000000E-002     7.7630509609675612E-023
  -1.6049999999999998E-002     9.7638948150818409E-023
  -1.6000000000000000E-002     9.8489518352052831E-023
  -1.5949999999999999E-002     7.4341106551646839E-023
  -1.5900000000000001E-002     2.4086968522853377E-023
  -1.5850000000000000E-002    -4.6569984857884518E-023
  -1.5799999999999998E-002    -1.2432020830586061E-022
  -1.5750000000000000E-002    -1.8956211046204545E-022
  -1.5699999999999999E-002    -2.2022911940374983E-022
  -1.5650000000000001E-002    -1.9775833517055282E-022
  -1.5599999999999999E-002    -1.1391082616251898E-022
  -1.5550000000000001E-002     2.3599260272769367E-023
  -1.5500000000000000E-002     1.8894361328318289E-022
  -1.5449999999999998E-002     3.4123008518309492E-022
  -1.5400000000000000E-002     4.3318834590467922E-022
  -1.5349999999999999E-002     4.2408926638304372E-022
  -1.5300000000000001E-002     2.9370416909779485E-022
  -1.5250000000000000E-002     5.3015177680814444E-023
  -1.5199999999999998E-002    -2.5247060820677626E-022
  -1.5150000000000000E-002    -5.4935772918127085E-022
  -1.5099999999999999E-002    -7.5274440633953449E-022
  -1.5050000000000001E-002    -7.8896463053644092E-022
  -1.4999999999999999E-002    -6.1872794848277974E-022
  -1.4949999999999998E-002    -2.5368880394438042E-022
  -1.4900000000000000E-002     2.3940173872233091E-022
  -1.4849999999999999E-002     7.4968778381904474E-022
  -1.4800000000000001E-002     1.1467680272961871E-021
  -1.4749999999999999E-002     1.3130827453741610E-021
  -1.4700000000000001E-002     1.1757224928376569E-021
  -1.4650000000000000E-002     7.2902649776805749E-022
  -1.4599999999999998E-002     4.1678823754974315E-023
  -1.4550000000000000E-002    -7.5381432235474344E-022
  -1.4499999999999999E-002    -1.4867629442915547E-021
  -1.4450000000000001E-002    -1.9829591751004529E-021
  -1.4400000000000000E-002    -2.1007680597389553E-021
  -1.4349999999999998E-002    -1.7617658736697390E-021
  -1.4300000000000000E-002    -9.7125802422125383E-022
  -1.4249999999999999E-002     1.7354754667614962E-022
  -1.4200000000000001E-002     1.4884338021835875E-021
  -1.4149999999999999E-002     2.7206823020227721E-021
  -1.4099999999999998E-002     3.5822453066295822E-021
  -1.4050000000000000E-002     3.7983053151444045E-021
  -1.3999999999999999E-002     3.1692542799776219E-021
  -1.3950000000000001E-002     1.6384563057554394E-021
  -1.3899999999999999E-002    -6.4930206006442409E-022
  -1.3850000000000001E-002    -3.3200226926562185E-021
  -1.3800000000000000E-002    -5.7956641100901401E-021
  -1.3749999999999998E-002    -7.3868282818133824E-021
  -1.3700000000000000E-002    -7.4502394691971416E-021
  -1.3649999999999999E-002    -5.5845420907152398E-021
  -1.3600000000000001E-002    -1.8148251622707998E-021
  -1.3550000000000000E-002     3.2969392626424303E-021
  -1.3499999999999998E-002     8.6732179158052397E-021
  -1.3450000000000000E-002     1.2904504252679547E-020
  -1.3399999999999999E-002     1.4580044006149506E-020
  -1.3350000000000001E-002     1.2698124342549596E-020
  -1.3299999999999999E-002     7.0460008763257910E-021
  -1.3249999999999998E-002    -1.5753393726309256E-021
  -1.3200000000000000E-002    -1.1382822524111352E-020
  -1.3149999999999998E-002    -1.9938803430412647E-020
  -1.3100000000000001E-002    -2.4727896423773182E-020
  -1.3049999999999999E-002    -2.3851037129073297E-020
  -1.3000000000000001E-002    -1.6648275330265906E-020
  -1.2950000000000000E-002    -4.0572944463822244E-021
  -1.2899999999999998E-002     1.1429735652854712E-020
  -1.2850000000000000E-002     2.6243803361155214E-020
  -1.2799999999999999E-002     3.6559331206492659E-020