  -4.0000000000000001E-002     0.0000000000000000     
  -3.9949999999999999E-002     0.0000000000000000     
  -3.9899999999999998E-002     0.0000000000000000     
  -3.9850000000000003E-002     0.0000000000000000     
  -3.9800000000000002E-002     0.0000000000000000     
  -3.9750000000000001E-002     0.0000000000000000     
  -3.9699999999999999E-002     0.0000000000000000     
  -3.9649999999999998E-002     0.0000000000000000     
  -3.9600000000000003E-002     0.0000000000000000     
  -3.9550000000000002E-002     0.0000000000000000     
  -3.9500000000000000E-002     0.0000000000000000     
  -3.9449999999999999E-002     0.0000000000000000     
  -3.9399999999999998E-002     0.0000000000000000     
  -3.9350000000000003E-002    -5.2341973233614663E-036
  -3.9300000000000002E-002    -8.1540615885950234E-035
  -3.9250000000000000E-002    -5.6440187369616389E-034
  -3.9199999999999999E-002    -1.9171403093162541E-033
  -3.9150000000000004E-002     5.3803647328736051E-034
  -3.9100000000000003E-002     4.5213470644383358E-032
  -3.9050000000000001E-002     2.9319656770628893E-031
  -3.9000000000000000E-002     1.1874441565762914E-030
  -3.8949999999999999E-002     3.4694337276274110E-030
  -3.8900000000000004E-002     7.2193517406385572E-030
  -3.8850000000000003E-002     8.1720814029807535E-030
  -3.8800000000000001E-002    -1.0417717528921449E-029
  -3.8750000000000000E-002    -8.7998969183887211E-029
  -3.8699999999999998E-002    -2.8439049966022354E-028
  -3.8650000000000004E-002    -6.2977538157150100E-028
  -3.8600000000000002E-002    -9.7760319018975884E-028
  -3.8550000000000001E-002    -7.4136480390683448E-028
  -3.8500000000000000E-002     1.3722633090201081E-027
  -3.8449999999999998E-002     7.2586332374228744E-027
  -3.8400000000000004E-002     1.8257878521788802E-026
  -3.8350000000000002E-002     3.2226774996050617E-026
  -3.8300000000000001E-002     3.8890477296884748E-026
  -3.8249999999999999E-002     1.5609265984920961E-026
  -3.8199999999999998E-002    -7.1059233242494607E-026
  -3.8150000000000003E-002    -2.4988245001383278E-025
  -3.8100000000000002E-002    -5.0883515553060244E-025
  -3.8050000000000000E-002    -7.4173690899288929E-025
  -3.7999999999999999E-002    -7.0211253679134576E-025
  -3.7949999999999998E-002    -1.5382841609490369E-026
  -3.7900000000000003E-002     1.6845882403232314E-024
  -3.7850000000000002E-002     4.4525940998553282E-024
  -3.7800000000000000E-002     7.6076258685199903E-024
  -3.7749999999999999E-002     9.3770559210041346E-024
  -3.7699999999999997E-002     6.9467504148730009E-024
  -3.7650000000000003E-002    -2.7100420334626143E-024
  -3.7600000000000001E-002    -2.1057291076350782E-023
  -3.7550000000000000E-002    -4.5609250504091919E-023
  -3.7499999999999999E-002    -6.7950196774130347E-023
  -3.7449999999999997E-002    -7.3707203797209371E-023
  -3.7400000000000003E-002    -4.5931692243216711E-023
  -3.7350000000000001E-002     2.7710453465755077E-023
  -3.7300000000000000E-002     1.4547851746850931E-022
  -3.7249999999999998E-002     2.8348649781311248E-022
  -3.7200000000000004E-002     3.9382159044138130E-022
  -3.7150000000000002E-002     4.1271040078453720E-022
  -3.7100000000000001E-002     2.7928200056554406E-022
  -3.7050000000000000E-002    -3.9214518026061456E-023
  -3.6999999999999998E-002    -5.2386364834445885E-022
  -3.6950000000000004E-002    -1.0914226041578675E-021
  -3.6900000000000002E-002    -1.5989569710790498E-021
  -3.6850000000000001E-002    -1.8665540899758977E-021
  -3.6799999999999999E-002    -1.7131894987993669E-021
  -3.6749999999999998E-002    -9.9794790407803241E-022
  -3.6700000000000003E-002     3.4004933831361103E-022
  -3.6650000000000002E-002     2.2459500361977195E-021
  -3.6600000000000001E-002     4.5176990914501370E-021
  -3.6549999999999999E-002     6.7797222166963316E-021
  -3.6499999999999998E-002     8.4686470533114648E-021
  -3.6450000000000003E-002     8.8475100555477941E-021
  -3.6400000000000002E-002     7.0750473531583008E-021
  -3.6350000000000000E-002     2.3630541697105027E-021
  -3.6299999999999999E-002    -5.7493733704589765E-021
  -3.6249999999999998E-002    -1.7001553461237309E-020
  -3.6200000000000003E-002    -2.9953112151958237E-020
  -3.6150000000000002E-002    -4.1614091256778286E-020
  -3.6100000000000000E-002    -4.7422901055304268E-020
  -3.6049999999999999E-002    -4.1887376972602071E-020
  -3.6000000000000004E-002    -2.0116750629599921E-020
  -3.5950000000000003E-002     1.9828717543958653E-020
  -3.5900000000000001E-002     7.4337548952487127E-020
  -3.5850000000000000E-002     1.3248206389479435E-019
  -3.5799999999999998E-002     1.7641924197817880E-019
  -3.5750000000000004E-002     1.8495032542304067E-019
  -3.5700000000000003E-002     1.4018551432267428E-019
  -3.5650000000000001E-002     3.5739133035934744E-020
  -3.5600000000000000E-002    -1.1650042998771568E-019
  -3.5549999999999998E-002    -2.8443428766154970E-019
  -3.5500000000000004E-002    -4.2101800800795247E-019
  -3.5450000000000002E-002    -4.7662588781811025E-019
  -3.5400000000000001E-002    -4.1535317912577970E-019
  -3.5349999999999999E-002    -2.2980495703381323E-019
  -3.5299999999999998E-002     5.1362625013086617E-020
  -3.5250000000000004E-002     3.6674273738171575E-019
  -3.5200000000000002E-002     6.3612173005827559E-019
  -3.5150000000000001E-002     7.8110544153624907E-019
  -3.5099999999999999E-002     7.4646412745689344E-019
  -3.5049999999999998E-002     5.1677089091078990E-019
  -3.5000000000000003E-002     1.2528255107206255E-019
  -3.4950000000000002E-002    -3.4560094546817378E-019
  -3.4900000000000000E-002    -7.7231712475504313E-019
  -3.4849999999999999E-002    -1.0079945384943674E-018
  -3.4799999999999998E-002    -9.1332979124701309E-019
  -3.4750000000000003E-002    -4.0254031407596829E-019
  -3.4700000000000002E-002     4.9997125626988786E-019
  -3.4650000000000000E-002     1.6079402576992556E-018
  -3.4599999999999999E-002     2.5539589331488639E-018
  -3.4549999999999997E-002     2.8343471656006816E-018
  -3.4500000000000003E-002     1.9392780316686594E-018
  -3.4450000000000001E-002    -4.3940806547348808E-019
  -3.4400000000000000E-002    -4.1715723116870626E-018
  -3.4349999999999999E-002    -8.5117078648789259E-018
  -3.4299999999999997E-002    -1.2087431462335978E-017
  -3.4250000000000003E-002    -1.3137252060140131E-017
  -3.4200000000000001E-002    -1.0012259847056536E-017
  -3.4150000000000000E-002    -1.8522295823474430E-018
  -3.4099999999999998E-002     1.0761044664295399E-017
  -3.4049999999999997E-002     2.5436907479608798E-017
  -3.4000000000000002E-002     3.8142039776626921E-017
  -3.3950000000000001E-002     4.4024151056657646E-017
  -3.3900000000000000E-002     3.8806031212658457E-017
  -3.3849999999999998E-002     2.0419794652579655E-017
  -3.3799999999999997E-002    -9.6361372355214147E-018
  -3.3750000000000002E-002    -4.5776577466358288E-017
  -3.3700000000000001E-002    -7.9047252767921654E-017
  -3.3649999999999999E-002    -9.9136755737474296E-017
  -3.3599999999999998E-002    -9.7294330045465723E-017
  -3.3550000000000003E-002    -6.9367262809202160E-017
  -3.3500000000000002E-002    -1.7977721759807512E-017
  -3.3450000000000001E-002     4.7024424939464863E-017
  -3.3399999999999999E-002     1.1026150544813950E-016
  -3.3349999999999998E-002     1.5446642094202898E-016
  -3.3300000000000003E-002     1.6519377277732818E-016
  -3.3250000000000002E-002     1.3530307614783210E-016
  -3.3200000000000000E-002     6.7859829756298508E-017
  -3.3149999999999999E-002    -2.3529959449861351E-017
  -3.3099999999999997E-002    -1.1724566603772949E-016
  -3.3050000000000003E-002    -1.8853988058927237E-016
  -3.3000000000000002E-002    -2.1564198478191312E-016
  -3.2950000000000000E-002    -1.8561736951351794E-016
  -3.2899999999999999E-002    -9.8602914531699215E-017
  -3.2850000000000004E-002     3.0565963714955146E-017
  -3.2800000000000003E-002     1.7378237588090771E-016
  -3.2750000000000001E-002     2.9408270122379547E-016
  -3.2700000000000000E-002     3.5258398776942235E-016
  -3.2649999999999998E-002     3.1716049524435531E-016
  -3.2600000000000004E-002     1.7172779193168566E-016
  -3.2550000000000003E-002    -7.5463604638895064E-017
  -3.2500000000000001E-002    -3.8665002928119100E-016
  -3.2450000000000000E-002    -6.9494844920151042E-016
  -3.2399999999999998E-002    -9.1250980533764740E-016
  -3.2350000000000004E-002    -9.4737493254602959E-016
  -3.2300000000000002E-002    -7.2765330737534627E-016
  -3.2250000000000001E-002    -2.2862160481601630E-016
  -3.2199999999999999E-002     5.0449463120456851E-016
  -3.2149999999999998E-002     1.3467130261636909E-015
  -3.2100000000000004E-002     2.1040050735766146E-015
  -3.2050000000000002E-002     2.5479007389052331E-015
  -3.2000000000000001E-002     2.4706343044605415E-015
  -3.1949999999999999E-002     1.7498230685271467E-015
  -3.1899999999999998E-002     4.0550719905660940E-016
  -3.1850000000000003E-002    -1.3697447842495570E-015
  -3.1800000000000002E-002    -3.2233178268519339E-015
  -3.1750000000000000E-002    -4.7037346777997994E-015
  -3.1699999999999999E-002    -5.3630980988722360E-015
  -3.1649999999999998E-002    -4.8793149686228625E-015
  -3.1600000000000003E-002    -3.1665499389505809E-015
  -3.1550000000000002E-002    -4.4008686519381108E-016
  -3.1500000000000000E-002     2.7906446831361614E-015
  -3.1449999999999999E-002     5.8105010708816939E-015
  -3.1399999999999997E-002     7.8561659224418763E-015
  -3.1350000000000003E-002     8.3090220508181867E-015
  -3.1300000000000001E-002     6.8750841869465613E-015
  -3.1250000000000000E-002     3.7012710454024935E-015
  -3.1199999999999999E-002    -6.1102801423311790E-016
  -3.1150000000000001E-002    -5.1102600427992425E-015
  -3.1100000000000003E-002    -8.7015841747180561E-015
  -3.1050000000000001E-002    -1.0411901482588551E-014
  -3.1000000000000000E-002    -9.6491636431726086E-015
  -3.0949999999999998E-002    -6.3882907031129565E-015
  -3.0900000000000000E-002    -1.2299708745023443E-015
  -3.0850000000000002E-002     4.6924211633313269E-015
  -3.0800000000000001E-002     9.9455609388814872E-015
  -3.0750000000000000E-002     1.3120708658001049E-014
  -3.0699999999999998E-002     1.3177150939705912E-014
  -3.0650000000000000E-002     9.7239009973946953E-015
  -3.0600000000000002E-002     3.1705644825370350E-015
  -3.0550000000000001E-002    -5.2935988248522606E-015
  -3.0499999999999999E-002    -1.3895832036969930E-014
  -3.0449999999999998E-002    -2.0616674721630756E-014
  -3.0400000000000000E-002    -2.3603115419459238E-014
  -3.0350000000000002E-002    -2.1578297369490058E-014
  -3.0300000000000001E-002    -1.4168643093713166E-014
  -3.0249999999999999E-002    -2.0840296342997662E-015
  -3.0200000000000001E-002     1.2889179733039604E-014
  -3.0150000000000000E-002     2.8094190049364012E-014
  -3.0100000000000002E-002     4.0392877632562700E-014
  -3.0050000000000000E-002     4.6695914458718170E-014
  -2.9999999999999999E-002     4.4568154249588987E-014
  -2.9950000000000001E-002     3.2821736542446086E-014
  -2.9899999999999999E-002     1.1991441737512176E-014
  -2.9850000000000002E-002    -1.5422515588387791E-014
  -2.9800000000000000E-002    -4.5050640711535541E-014
  -2.9749999999999999E-002    -7.1160757675389568E-014
  -2.9700000000000001E-002    -8.7579393860761468E-014
  -2.9650000000000003E-002    -8.8935859710772528E-014
  -2.9600000000000001E-002    -7.2027974470826010E-014
  -2.9550000000000000E-002    -3.7014395856929607E-014
  -2.9499999999999998E-002     1.1904779408391094E-014
  -2.9450000000000000E-002     6.6618377128601398E-014
  -2.9400000000000003E-002     1.1620808938975419E-013
  -2.9350000000000001E-002     1.4896675641790294E-013
  -2.9300000000000000E-002     1.5500896427036946E-013
  -2.9249999999999998E-002     1.2891828299071114E-013
  -2.9200000000000000E-002     7.1750370557213724E-014
  -2.9150000000000002E-002    -8.2431398634580768E-015
  -2.9100000000000001E-002    -9.6566558811637869E-014
  -2.9049999999999999E-002    -1.7510829090328564E-013
  -2.8999999999999998E-002    -2.2598568329581048E-013
  -2.8950000000000000E-002    -2.3575172763317990E-013
  -2.8900000000000002E-002    -1.9890806214068103E-013
  -2.8850000000000001E-002    -1.1974891701060911E-013
  -2.8799999999999999E-002    -1.1930712260473267E-014
  -2.8749999999999998E-002     1.0426161171458501E-013
  -2.8700000000000000E-002     2.0635137896808542E-013
  -2.8650000000000002E-002     2.7471697409469463E-013
  -2.8600000000000000E-002     2.9695493315593155E-013
  -2.8549999999999999E-002     2.7043133560425931E-013
  -2.8500000000000001E-002     2.0238944211443234E-013
  -2.8450000000000000E-002     1.0765971440600033E-013
  -2.8400000000000002E-002     4.6749976223622157E-015
  -2.8350000000000000E-002    -8.9072882235250910E-014
  -2.8299999999999999E-002    -1.6091745559560555E-013
  -2.8250000000000001E-002    -2.0530267496468405E-013
  -2.8200000000000003E-002    -2.2405861591136561E-013
  -2.8150000000000001E-002    -2.2484813990570257E-013
  -2.8100000000000000E-002    -2.1841999175386696E-013
  -2.8049999999999999E-002    -2.1548810697504329E-013
  -2.8000000000000001E-002    -2.2394848203316889E-013
  -2.7950000000000003E-002    -2.4683737936577777E-013
  -2.7900000000000001E-002    -2.8109501906687685E-013
  -2.7850000000000000E-002    -3.1699843026811406E-013
  -2.7799999999999998E-002    -3.3815662580181086E-013
  -2.7750000000000000E-002    -3.2219872276852995E-013
  -2.7700000000000002E-002    -2.4258361476892318E-013
  -2.7650000000000001E-002    -7.2112402029763045E-014
  -2.7600000000000000E-002     2.1145310719380990E-013
  -2.7549999999999998E-002     6.1783776925693150E-013
  -2.7500000000000000E-002     1.1358178050530249E-012
  -2.7450000000000002E-002     1.7258665235218167E-012
  -2.7400000000000001E-002     2.3164472428332001E-012
  -2.7349999999999999E-002     2.8064622930285491E-012
  -2.7299999999999998E-002     3.0754900772428371E-012
  -2.7250000000000000E-002     3.0017918366489298E-012
  -2.7200000000000002E-002     2.4859907684522051E-012
  -2.7150000000000001E-002     1.4763568923797232E-012
  -2.7099999999999999E-002    -9.6365333130285993E-015
  -2.7049999999999998E-002    -1.8728827510128632E-012
  -2.7000000000000000E-002    -3.9334174621581993E-012
  -2.6950000000000002E-002    -5.9459523610496740E-012
  -2.6900000000000000E-002    -7.6285565461061111E-012
  -2.6849999999999999E-002    -8.6998807980876638E-012
  -2.6800000000000001E-002    -8.9183251434111260E-012
  -2.6749999999999999E-002    -8.1161654715563380E-012
  -2.6700000000000002E-002    -6.2230505996298922E-012
  -2.6650000000000000E-002    -3.2760742034275620E-012
  -2.6599999999999999E-002     5.8293100988645540E-013
  -2.6550000000000001E-002     5.1192111953939605E-012
  -2.6500000000000003E-002     1.0020623894133958E-011
  -2.6450000000000001E-002     1.4911628155926065E-011
  -2.6400000000000000E-002     1.9362340429375308E-011
  -2.6349999999999998E-002     2.2892260779766178E-011
  -2.6300000000000000E-002     2.4971330931640196E-011
  -2.6250000000000002E-002     2.5022945329380039E-011
  -2.6200000000000001E-002     2.2433873205154970E-011
  -2.6150000000000000E-002     1.6574420794248413E-011
  -2.6099999999999998E-002     6.8292254304353442E-012
  -2.6050000000000000E-002    -7.3640678679207792E-012
  -2.6000000000000002E-002    -2.6473525814345670E-011
  -2.5950000000000001E-002    -5.0834928896319879E-011
  -2.5899999999999999E-002    -8.0622133935149149E-011
  -2.5849999999999998E-002    -1.1582855594833789E-010
  -2.5800000000000000E-002    -1.5625975652859165E-010
  -2.5750000000000002E-002    -2.0153572141433577E-010
  -2.5700000000000001E-002    -2.5110090454533768E-010
  -2.5649999999999999E-002    -3.0424090671246392E-010
  -2.5599999999999998E-002    -3.6010742911544571E-010
  -2.5550000000000000E-002    -4.1775392794765247E-010
  -2.5500000000000002E-002    -4.7618502332290025E-010
  -2.5450000000000000E-002    -5.3442036375969310E-010
  -2.5399999999999999E-002    -5.9157065022177669E-010
  -2.5349999999999998E-002    -6.4691717556658543E-010
  -2.5300000000000000E-002    -6.9998424516605949E-010
  -2.5250000000000002E-002    -7.5058996624723445E-010
  -2.5200000000000000E-002    -7.9886432842061848E-010
  -2.5149999999999999E-002    -8.4522685221707691E-010
  -2.5100000000000001E-002    -8.9032372543362755E-010
  -2.5049999999999999E-002    -9.3493387513724332E-010
  -2.5000000000000001E-002    -9.7985780940447518E-010
  -2.4950000000000000E-002    -1.0258091131248737E-009
  -2.4899999999999999E-002    -1.0733269981176448E-009
  -2.4850000000000001E-002    -1.1227245017760515E-009
  -2.4800000000000003E-002    -1.1740784616888599E-009
  -2.4750000000000001E-002    -1.2272596418547255E-009
  -2.4700000000000000E-002    -1.2819928025618074E-009
  -2.4649999999999998E-002    -1.3379316413245877E-009
  -2.4600000000000000E-002    -1.3947313781606389E-009
  -2.4550000000000002E-002    -1.4521054560080006E-009
  -2.4500000000000001E-002    -1.5098576638391035E-009
  -2.4450000000000000E-002    -1.5678904756141690E-009
  -2.4399999999999998E-002    -1.6261955681993605E-009
  -2.4350000000000000E-002    -1.6848358465151432E-009
  -2.4299999999999999E-002    -1.7439296966380490E-009
  -2.4250000000000001E-002    -1.8036438933738662E-009
  -2.4199999999999999E-002    -1.8641946824308623E-009
  -2.4150000000000001E-002    -1.9258517735646316E-009
  -2.4100000000000000E-002    -1.9889348692027340E-009
  -2.4049999999999998E-002    -2.0537977384542326E-009
  -2.4000000000000000E-002    -2.1207943224878084E-009
  -2.3949999999999999E-002    -2.1902343910799452E-009
  -2.3900000000000001E-002    -2.2623386679349923E-009
  -2.3850000000000000E-002    -2.3372081070207329E-009
  -2.3800000000000002E-002    -2.4148177880754233E-009
  -2.3750000000000000E-002    -2.4950394449420448E-009
  -2.3699999999999999E-002    -2.5776847380607683E-009
  -2.3650000000000001E-002    -2.6625562343991152E-009
  -2.3599999999999999E-002    -2.7494866103059830E-009
  -2.3550000000000001E-002    -2.8383565697824965E-009
  -2.3500000000000000E-002    -2.9290875971751864E-009
  -2.3449999999999999E-002    -3.0216189156235374E-009
  -2.3400000000000001E-002    -3.1158876721657374E-009
  -2.3349999999999999E-002    -3.2118255038615883E-009
  -2.3300000000000001E-002    -3.3093873965054029E-009
  -2.3250000000000000E-002    -3.4085997475238629E-009
  -2.3199999999999998E-002    -3.5096179457781226E-009
  -2.3150000000000000E-002    -3.6127641050721672E-009
  -2.3099999999999999E-002    -3.7185247774508588E-009
  -2.3050000000000001E-002    -3.8275020016541409E-009
  -2.3000000000000000E-002    -3.9403233314662678E-009
  -2.2950000000000002E-002    -4.0575409836150691E-009
  -2.2900000000000000E-002    -4.1795431612835484E-009
  -2.2849999999999999E-002    -4.3065085076074897E-009
  -2.2800000000000001E-002    -4.4384070425460138E-009
  -2.2749999999999999E-002    -4.5750420332098099E-009
  -2.2700000000000001E-002    -4.7161050441490805E-009
  -2.2650000000000000E-002    -4.8612271157099739E-009
  -2.2599999999999999E-002    -5.0100065022412503E-009
  -2.2550000000000001E-002    -5.1620218103610696E-009
  -2.2499999999999999E-002    -5.3168452343278341E-009
  -2.2450000000000001E-002    -5.4740833082989889E-009
  -2.2400000000000000E-002    -5.6334508873078975E-009
  -2.2349999999999998E-002    -5.7948741549470847E-009
  -2.2300000000000000E-002    -5.9585897573726192E-009
  -2.2249999999999999E-002    -6.1251913042456236E-009
  -2.2200000000000001E-002    -6.2955954338056365E-009
  -2.2150000000000000E-002    -6.4709112416730304E-009
  -2.2100000000000002E-002    -6.6522421866911206E-009
  -2.2050000000000000E-002    -6.8404773041024770E-009
  -2.1999999999999999E-002    -7.0361455218700095E-009
  -2.1950000000000001E-002    -7.2393797166984371E-009
  -2.1899999999999999E-002    -7.4500016107423508E-009
  -2.1850000000000001E-002    -7.6676991670838758E-009
  -2.1800000000000000E-002    -7.8922160719355798E-009
  -2.1749999999999999E-002    -8.1234768842014368E-009
  -2.1700000000000001E-002    -8.3616015584865673E-009
  -2.1649999999999999E-002    -8.6067925755718169E-009
  -2.1600000000000001E-002    -8.8591615406927403E-009
  -2.1550000000000000E-002    -9.1185727832156814E-009
  -2.1499999999999998E-002    -9.3845900530401702E-009
  -2.1450000000000000E-002    -9.6565642492118434E-009
  -2.1399999999999999E-002    -9.9338486578916045E-009
  -2.1350000000000001E-002    -1.0216055824053805E-008
  -2.1299999999999999E-002    -1.0503256987842312E-008
  -2.1250000000000002E-002    -1.0796034790302066E-008
  -2.1200000000000000E-002    -1.1095366954787236E-008
  -2.1149999999999999E-002    -1.1402370992476320E-008
  -2.1100000000000001E-002    -1.1718033537672636E-008
  -2.1049999999999999E-002    -1.2043004706778726E-008
  -2.1000000000000001E-002    -1.2377566935115057E-008
  -2.0950000000000000E-002    -1.2721769228507836E-008
  -2.0899999999999998E-002    -1.3075653820398740E-008
  -2.0850000000000000E-002    -1.3439474501415921E-008
  -2.0799999999999999E-002    -1.3813781075403224E-008
  -2.0750000000000001E-002    -1.4199322751353055E-008
  -2.0700000000000000E-002    -1.4596804451944963E-008
  -2.0649999999999998E-002    -1.5006587830841923E-008
  -2.0600000000000000E-002    -1.5428492101329819E-008
  -2.0549999999999999E-002    -1.5861793297323636E-008
  -2.0500000000000001E-002    -1.6305437945082209E-008
  -2.0449999999999999E-002    -1.6758431875142846E-008
  -2.0400000000000001E-002    -1.7220218693797095E-008
  -2.0350000000000000E-002    -1.7690946296294076E-008
  -2.0299999999999999E-002    -1.8171481555012064E-008
  -2.0250000000000001E-002    -1.8663204135857850E-008
  -2.0199999999999999E-002    -1.9167643360320320E-008
  -2.0150000000000001E-002    -1.9686142335448004E-008
  -2.0100000000000000E-002    -2.0219662701876603E-008
  -2.0049999999999998E-002    -2.0768811351533074E-008
  -2.0000000000000000E-002    -2.1334032356829789E-008
  -1.9949999999999999E-002    -2.1915853889105397E-008
  -1.9900000000000001E-002    -2.2515038887374935E-008
  -1.9850000000000000E-002    -2.3132523755968742E-008
  -1.9799999999999998E-002    -2.3769161641571832E-008
  -1.9750000000000000E-002    -2.4425372235055926E-008
  -1.9699999999999999E-002    -2.5100853908934933E-008
  -1.9650000000000001E-002    -2.5794538697558034E-008
  -1.9599999999999999E-002    -2.6504815651232489E-008
  -1.9550000000000001E-002    -2.7230019869291540E-008
  -1.9500000000000000E-002    -2.7968955616055519E-008
  -1.9449999999999999E-002    -2.8721289512582430E-008
  -1.9400000000000001E-002    -2.9487645164119405E-008
  -1.9349999999999999E-002    -3.0269345991000654E-008
  -1.9300000000000001E-002    -3.1067945588459030E-008
  -1.9250000000000000E-002    -3.1884745557029458E-008
  -1.9199999999999998E-002    -3.2720485738437292E-008
  -1.9150000000000000E-002    -3.3575393320513870E-008
  -1.9099999999999999E-002    -3.4449503460803603E-008
  -1.9050000000000001E-002    -3.5343155457766417E-008
  -1.9000000000000000E-002    -3.6257381779687413E-008
  -1.8949999999999998E-002    -3.7194011969435067E-008
  -1.8900000000000000E-002    -3.8155403154484700E-008
  -1.8849999999999999E-002    -3.9143889475887453E-008
  -1.8800000000000001E-002    -4.0161167242714202E-008
  -1.8749999999999999E-002    -4.1207901055459660E-008
  -1.8700000000000001E-002    -4.2283691016805081E-008
  -1.8650000000000000E-002    -4.3387473078498367E-008
  -1.8599999999999998E-002    -4.4518158696974555E-008
  -1.8550000000000001E-002    -4.5675319017458801E-008
  -1.8499999999999999E-002    -4.6859561507213380E-008
  -1.8450000000000001E-002    -4.8072520600834419E-008
  -1.8400000000000000E-002    -4.9316429740072668E-008
  -1.8349999999999998E-002    -5.0593502522393981E-008
  -1.8300000000000000E-002    -5.1905385033074222E-008
  -1.8249999999999999E-002    -5.3252877548288792E-008
  -1.8200000000000001E-002    -5.4636075880238976E-008
  -1.8149999999999999E-002    -5.6054817238119959E-008
  -1.8100000000000002E-002    -5.7509173728157995E-008
  -1.8050000000000000E-002    -5.8999797679507172E-008
  -1.7999999999999999E-002    -6.0527904165588476E-008
  -1.7950000000000001E-002    -6.2094835754566435E-008
  -1.7899999999999999E-002    -6.3701483224282308E-008
  -1.7850000000000001E-002    -6.5347742313961485E-008
  -1.7800000000000000E-002    -6.7032257313771662E-008
  -1.7749999999999998E-002    -6.8752650384073333E-008
  -1.7700000000000000E-002    -7.0506072605254532E-008
  -1.7649999999999999E-002    -7.2290020029801174E-008
  -1.7600000000000001E-002    -7.4102948486140963E-008
  -1.7550000000000000E-002    -7.5944661150702617E-008
  -1.7499999999999998E-002    -7.7816270054593510E-008
  -1.7450000000000000E-002    -7.9719807296694747E-008
  -1.7399999999999999E-002    -8.1657753856032890E-008
  -1.7350000000000001E-002    -8.3632674906365753E-008
  -1.7299999999999999E-002    -8.5647075251379533E-008
  -1.7250000000000001E-002    -8.7703507926686378E-008
  -1.7200000000000000E-002    -8.9804805130787058E-008
  -1.7149999999999999E-002    -9.1954256535981174E-008
  -1.7100000000000001E-002    -9.4155570160862530E-008
  -1.7049999999999999E-002    -9.6412598523837258E-008
  -1.7000000000000001E-002    -9.8728930997808274E-008
  -1.6950000000000000E-002    -1.0110747273406112E-007
  -1.6899999999999998E-002    -1.0355030531492443E-007
  -1.6850000000000000E-002    -1.0605877669863150E-007
  -1.6799999999999999E-002    -1.0863387658209837E-007
  -1.6750000000000001E-002    -1.1127666811053146E-007
  -1.6700000000000000E-002    -1.1398864699794991E-007
  -1.6649999999999998E-002    -1.1677178675011006E-007
  -1.6600000000000000E-002    -1.1962835288531521E-007
  -1.6549999999999999E-002    -1.2256055683264918E-007
  -1.6500000000000001E-002    -1.2557014423872832E-007
  -1.6449999999999999E-002    -1.2865829703675173E-007
  -1.6400000000000001E-002    -1.3182565908179491E-007
  -1.6350000000000000E-002    -1.3507257853348990E-007
  -1.6299999999999999E-002    -1.3839933014750391E-007
  -1.6250000000000001E-002    -1.4180625359130617E-007
  -1.6199999999999999E-002    -1.4529348702749823E-007
  -1.6150000000000001E-002    -1.4886055602917100E-007
  -1.6100000000000000E-002    -1.5250589399468303E-007
  -1.6049999999999998E-002    -1.5622658882968066E-007
  -1.6000000000000000E-002    -1.6001834249073658E-007
  -1.5949999999999999E-002    -1.6387599041990448E-007
  -1.5900000000000001E-002    -1.6779419432441146E-007
  -1.5850000000000000E-002    -1.7176814058005789E-007
  -1.5799999999999998E-002    -1.7579409872980979E-007
  -1.5750000000000000E-002    -1.7986949704429835E-007
  -1.5699999999999999E-002    -1.8399272498825698E-007
  -1.5650000000000001E-002    -1.8816276668170243E-007
  -1.5599999999999999E-002    -1.9237888053975760E-007
  -1.5550000000000001E-002    -1.9664064614750757E-007
  -1.5500000000000000E-002    -2.0094824405963757E-007
  -1.5449999999999998E-002    -2.0530299009845880E-007
  -1.5400000000000000E-002    -2.0970784151144833E-007
  -1.5349999999999999E-002    -2.1416743414380277E-007
  -1.5300000000000001E-002    -2.1868779147943255E-007
  -1.5250000000000000E-002    -2.2327550701334165E-007
  -1.5199999999999998E-002    -2.2793677359899164E-007
  -1.5150000000000000E-002    -2.3267669394393623E-007
  -1.5099999999999999E-002    -2.3749889325689494E-007
  -1.5050000000000001E-002    -2.4240586158353802E-007
  -1.4999999999999999E-002    -2.4739949121340896E-007
  -1.4949999999999998E-002    -2.5248209063660938E-007
  -1.4900000000000000E-002    -2.5765682185774818E-007
  -1.4849999999999999E-002    -2.6292796096486147E-007
  -1.4800000000000001E-002    -2.6830051900040786E-007
  -1.4749999999999999E-002    -2.7377976098512079E-007
  -1.4700000000000001E-002    -2.7937052796004869E-007
  -1.4650000000000000E-002    -2.8507708160892495E-007
  -1.4599999999999998E-002    -2.9090325005512647E-007
  -1.4550000000000000E-002    -2.9685290769454862E-007
  -1.4499999999999999E-002    -3.0293045841034579E-007
  -1.4450000000000001E-002    -3.0914101143476088E-007
  -1.4400000000000000E-002    -3.1549016850227868E-007
  -1.4349999999999998E-002    -3.2198315179538630E-007
  -1.4300000000000000E-002    -3.2862382184071231E-007
  -1.4249999999999999E-002    -3.3541398356022527E-007
  -1.4200000000000001E-002    -3.4235302306503598E-007
  -1.4149999999999999E-002    -3.4943845393642418E-007
  -1.4099999999999998E-002    -3.5666694547165289E-007
  -1.4050000000000000E-002    -3.6403555510085075E-007
  -1.3999999999999999E-002    -3.7154265067230083E-007
  -1.3950000000000001E-002    -3.7918833737370326E-007
  -1.3899999999999999E-002    -3.8697421032149115E-007
  -1.3850000000000001E-002    -3.9490257600500707E-007
  -1.3800000000000000E-002    -4.0297568306301489E-007
  -1.3749999999999998E-002    -4.1119507319324209E-007
  -1.3700000000000000E-002    -4.1956183316116582E-007
  -1.3649999999999999E-002    -4.2807687041488450E-007
  -1.3600000000000001E-002    -4.3674180711307596E-007
  -1.3550000000000000E-002    -4.4555956679055056E-007
  -1.3499999999999998E-002    -4.5453443610625216E-007
  -1.3450000000000000E-002    -4.6367166849414551E-007
  -1.3399999999999999E-002    -4.7297641779195523E-007
  -1.3350000000000001E-002    -4.8245278461818304E-007
  -1.3299999999999999E-002    -4.9210302616531805E-007
  -1.3249999999999998E-002    -5.0192789033361289E-007
  -1.3200000000000000E-002    -5.1192659545431326E-007
  -1.3149999999999998E-002    -5.2209812834763813E-007
  -1.3100000000000001E-002    -5.3244206689606080E-007
  -1.3049999999999999E-002    -5.4295898146470313E-007
  -1.3000000000000001E-002    -5.5365015197917771E-007
  -1.2950000000000000E-002    -5.6451714986055097E-007
  -1.2899999999999998E-002    -5.7556079852794138E-007
  -1.2850000000000000E-002    -5.8678093510272182E-007
  -1.2799999999999999E-002    -5.9817605350722461E-007