  -4.0000000000000001E-002     0.0000000000000000     
  -3.9949999999999999E-002     0.0000000000000000     
  -3.9899999999999998E-002     0.0000000000000000     
  -3.9850000000000003E-002     0.0000000000000000     
  -3.9800000000000002E-002     0.0000000000000000     
  -3.9750000000000001E-002     0.0000000000000000     
  -3.9699999999999999E-002     0.0000000000000000     
  -3.9649999999999998E-002     0.0000000000000000     
  -3.9600000000000003E-002     0.0000000000000000     
  -3.9550000000000002E-002     0.0000000000000000     
  -3.9500000000000000E-002     0.0000000000000000     
  -3.9449999999999999E-002     0.0000000000000000     
  -3.9399999999999998E-002     0.0000000000000000     
  -3.9350000000000003E-002     0.0000000000000000     
  -3.9300000000000002E-002     0.0000000000000000     
  -3.9250000000000000E-002     0.0000000000000000     
  -3.9199999999999999E-002     0.0000000000000000     
  -3.9150000000000004E-002     0.0000000000000000     
  -3.9100000000000003E-002     0.0000000000000000     
  -3.9050000000000001E-002     0.0000000000000000     
  -3.9000000000000000E-002     0.0000000000000000     
  -3.8949999999999999E-002     0.0000000000000000     
  -3.8900000000000004E-002     0.0000000000000000     
  -3.8850000000000003E-002     0.0000000000000000     
  -3.8800000000000001E-002     0.0000000000000000     
  -3.8750000000000000E-002     0.0000000000000000     
  -3.8699999999999998E-002     0.0000000000000000     
  -3.8650000000000004E-002     0.0000000000000000     
  -3.8600000000000002E-002     0.0000000000000000     
  -3.8550000000000001E-002     0.0000000000000000     
  -3.8500000000000000E-002     0.0000000000000000     
  -3.8449999999999998E-002     0.0000000000000000     
  -3.8400000000000004E-002     0.0000000000000000     
  -3.8350000000000002E-002     0.0000000000000000     
  -3.8300000000000001E-002     0.0000000000000000     
  -3.8249999999999999E-002     0.0000000000000000     
  -3.8199999999999998E-002     0.0000000000000000     
  -3.8150000000000003E-002     0.0000000000000000     
  -3.8100000000000002E-002     0.0000000000000000     
  -3.8050000000000000E-002     0.0000000000000000     
  -3.7999999999999999E-002     0.0000000000000000     
  -3.7949999999999998E-002     0.0000000000000000     
  -3.7900000000000003E-002     0.0000000000000000     
  -3.7850000000000002E-002     0.0000000000000000     
  -3.7800000000000000E-002     0.0000000000000000     
  -3.7749999999999999E-002     0.0000000000000000     
  -3.7699999999999997E-002     0.0000000000000000     
  -3.7650000000000003E-002     0.0000000000000000     
  -3.7600000000000001E-002     0.0000000000000000     
  -3.7550000000000000E-002     0.0000000000000000     
  -3.7499999999999999E-002     0.0000000000000000     
  -3.7449999999999997E-002     0.0000000000000000     
  -3.7400000000000003E-002     0.0000000000000000     
  -3.7350000000000001E-002     0.0000000000000000     
  -3.7300000000000000E-002     0.0000000000000000     
  -3.7249999999999998E-002     0.0000000000000000     
  -3.7200000000000004E-002     0.0000000000000000     
  -3.7150000000000002E-002     0.0000000000000000     
  -3.7100000000000001E-002     0.0000000000000000     
  -3.7050000000000000E-002     0.0000000000000000     
  -3.6999999999999998E-002     0.0000000000000000     
  -3.6950000000000004E-002     0.0000000000000000     
  -3.6900000000000002E-002     0.0000000000000000     
  -3.6850000000000001E-002     0.0000000000000000     
  -3.6799999999999999E-002     0.0000000000000000     
  -3.6749999999999998E-002     0.0000000000000000     
  -3.6700000000000003E-002     0.0000000000000000     
  -3.6650000000000002E-002     0.0000000000000000     
  -3.6600000000000001E-002     0.0000000000000000     
  -3.6549999999999999E-002     0.0000000000000000     
  -3.6499999999999998E-002     0.0000000000000000     
  -3.6450000000000003E-002     0.0000000000000000     
  -3.6400000000000002E-002     0.0000000000000000     
  -3.6350000000000000E-002     0.0000000000000000     
  -3.6299999999999999E-002     0.0000000000000000     
  -3.6249999999999998E-002     0.0000000000000000     
  -3.6200000000000003E-002     0.0000000000000000     
  -3.6150000000000002E-002     0.0000000000000000     
  -3.6100000000000000E-002     0.0000000000000000     
  -3.6049999999999999E-002     0.0000000000000000     
  -3.6000000000000004E-002     0.0000000000000000     
  -3.5950000000000003E-002     0.0000000000000000     
  -3.5900000000000001E-002     0.0000000000000000     
  -3.5850000000000000E-002     0.0000000000000000     
  -3.5799999999999998E-002     0.0000000000000000     
  -3.5750000000000004E-002     0.0000000000000000     
  -3.5700000000000003E-002     0.0000000000000000     
  -3.5650000000000001E-002     0.0000000000000000     
  -3.5600000000000000E-002     0.0000000000000000     
  -3.5549999999999998E-002     0.0000000000000000     
  -3.5500000000000004E-002     0.0000000000000000     
  -3.5450000000000002E-002     0.0000000000000000     
  -3.5400000000000001E-002     0.0000000000000000     
  -3.5349999999999999E-002     0.0000000000000000     
  -3.5299999999999998E-002     0.0000000000000000     
  -3.5250000000000004E-002     0.0000000000000000     
  -3.5200000000000002E-002     0.0000000000000000     
  -3.5150000000000001E-002     0.0000000000000000     
  -3.5099999999999999E-002     0.0000000000000000     
  -3.5049999999999998E-002     0.0000000000000000     
  -3.5000000000000003E-002     0.0000000000000000     
  -3.4950000000000002E-002     0.0000000000000000     
  -3.4900000000000000E-002     0.0000000000000000     
  -3.4849999999999999E-002     0.0000000000000000     
  -3.4799999999999998E-002     0.0000000000000000     
  -3.4750000000000003E-002     0.0000000000000000     
  -3.4700000000000002E-002     0.0000000000000000     
  -3.4650000000000000E-002     0.0000000000000000     
  -3.4599999999999999E-002     0.0000000000000000     
  -3.4549999999999997E-002     0.0000000000000000     
  -3.4500000000000003E-002     0.0000000000000000     
  -3.4450000000000001E-002     0.0000000000000000     
  -3.4400000000000000E-002     0.0000000000000000     
  -3.4349999999999999E-002     0.0000000000000000     
  -3.4299999999999997E-002     0.0000000000000000     
  -3.4250000000000003E-002     0.0000000000000000     
  -3.4200000000000001E-002     0.0000000000000000     
  -3.4150000000000000E-002     0.0000000000000000     
  -3.4099999999999998E-002     0.0000000000000000     
  -3.4049999999999997E-002     0.0000000000000000     
  -3.4000000000000002E-002     0.0000000000000000     
  -3.3950000000000001E-002     0.0000000000000000     
  -3.3900000000000000E-002     0.0000000000000000     
  -3.3849999999999998E-002     0.0000000000000000     
  -3.3799999999999997E-002     0.0000000000000000     
  -3.3750000000000002E-002     0.0000000000000000     
  -3.3700000000000001E-002     0.0000000000000000     
  -3.3649999999999999E-002     0.0000000000000000     
  -3.3599999999999998E-002     0.0000000000000000     
  -3.3550000000000003E-002     0.0000000000000000     
  -3.3500000000000002E-002     0.0000000000000000     
  -3.3450000000000001E-002     0.0000000000000000     
  -3.3399999999999999E-002     0.0000000000000000     
  -3.3349999999999998E-002     0.0000000000000000     
  -3.3300000000000003E-002     0.0000000000000000     
  -3.3250000000000002E-002     0.0000000000000000     
  -3.3200000000000000E-002     0.0000000000000000     
  -3.3149999999999999E-002     0.0000000000000000     
  -3.3099999999999997E-002     0.0000000000000000     
  -3.3050000000000003E-002     0.0000000000000000     
  -3.3000000000000002E-002     0.0000000000000000     
  -3.2950000000000000E-002     0.0000000000000000     
  -3.2899999999999999E-002     0.0000000000000000     
  -3.2850000000000004E-002     0.0000000000000000     
  -3.2800000000000003E-002     0.0000000000000000     
  -3.2750000000000001E-002     0.0000000000000000     
  -3.2700000000000000E-002     0.0000000000000000     
  -3.2649999999999998E-002     0.0000000000000000     
  -3.2600000000000004E-002     0.0000000000000000     
  -3.2550000000000003E-002     0.0000000000000000     
  -3.2500000000000001E-002     0.0000000000000000     
  -3.2450000000000000E-002     0.0000000000000000     
  -3.2399999999999998E-002     0.0000000000000000     
  -3.2350000000000004E-002     0.0000000000000000     
  -3.2300000000000002E-002     0.0000000000000000     
  -3.2250000000000001E-002     0.0000000000000000     
  -3.2199999999999999E-002     0.0000000000000000     
  -3.2149999999999998E-002     0.0000000000000000     
  -3.2100000000000004E-002     0.0000000000000000     
  -3.2050000000000002E-002     0.0000000000000000     
  -3.2000000000000001E-002     0.0000000000000000     
  -3.1949999999999999E-002     0.0000000000000000     
  -3.1899999999999998E-002     0.0000000000000000     
  -3.1850000000000003E-002     0.0000000000000000     
  -3.1800000000000002E-002     0.0000000000000000     
  -3.1750000000000000E-002     0.0000000000000000     
  -3.1699999999999999E-002     0.0000000000000000     
  -3.1649999999999998E-002     0.0000000000000000     
  -3.1600000000000003E-002     0.0000000000000000     
  -3.1550000000000002E-002     0.0000000000000000     
  -3.1500000000000000E-002     0.0000000000000000     
  -3.1449999999999999E-002     0.0000000000000000     
  -3.1399999999999997E-002     0.0000000000000000     
  -3.1350000000000003E-002     0.0000000000000000     
  -3.1300000000000001E-002     0.0000000000000000     
  -3.1250000000000000E-002     0.0000000000000000     
  -3.1199999999999999E-002     0.0000000000000000     
  -3.1150000000000001E-002     0.0000000000000000     
  -3.1100000000000003E-002     0.0000000000000000     
  -3.1050000000000001E-002     0.0000000000000000     
  -3.1000000000000000E-002     0.0000000000000000     
  -3.0949999999999998E-002     0.0000000000000000     
  -3.0900000000000000E-002     0.0000000000000000     
  -3.0850000000000002E-002     0.0000000000000000     
  -3.0800000000000001E-002     0.0000000000000000     
  -3.0750000000000000E-002     0.0000000000000000     
  -3.0699999999999998E-002     0.0000000000000000     
  -3.0650000000000000E-002     0.0000000000000000     
  -3.0600000000000002E-002     0.0000000000000000     
  -3.0550000000000001E-002     0.0000000000000000     
  -3.0499999999999999E-002     0.0000000000000000     
  -3.0449999999999998E-002     0.0000000000000000     
  -3.0400000000000000E-002     0.0000000000000000     
  -3.0350000000000002E-002     0.0000000000000000     
  -3.0300000000000001E-002     0.0000000000000000     
  -3.0249999999999999E-002     0.0000000000000000     
  -3.0200000000000001E-002     0.0000000000000000     
  -3.0150000000000000E-002     0.0000000000000000     
  -3.0100000000000002E-002     0.0000000000000000     
  -3.0050000000000000E-002     0.0000000000000000     
  -2.9999999999999999E-002     0.0000000000000000     
  -2.9950000000000001E-002     0.0000000000000000     
  -2.9899999999999999E-002     0.0000000000000000     
  -2.9850000000000002E-002     0.0000000000000000     
  -2.9800000000000000E-002     0.0000000000000000     
  -2.9749999999999999E-002     0.0000000000000000     
  -2.9700000000000001E-002     0.0000000000000000     
  -2.9650000000000003E-002     0.0000000000000000     
  -2.9600000000000001E-002     0.0000000000000000     
  -2.9550000000000000E-002     0.0000000000000000     
  -2.9499999999999998E-002     0.0000000000000000     
  -2.9450000000000000E-002     0.0000000000000000     
  -2.9400000000000003E-002     0.0000000000000000     
  -2.9350000000000001E-002     0.0000000000000000     
  -2.9300000000000000E-002     0.0000000000000000     
  -2.9249999999999998E-002     0.0000000000000000     
  -2.9200000000000000E-002     0.0000000000000000     
  -2.9150000000000002E-002     0.0000000000000000     
  -2.9100000000000001E-002     0.0000000000000000     
  -2.9049999999999999E-002     0.0000000000000000     
  -2.8999999999999998E-002     0.0000000000000000     
  -2.8950000000000000E-002     0.0000000000000000     
  -2.8900000000000002E-002     0.0000000000000000     
  -2.8850000000000001E-002     0.0000000000000000     
  -2.8799999999999999E-002     0.0000000000000000     
  -2.8749999999999998E-002     0.0000000000000000     
  -2.8700000000000000E-002     0.0000000000000000     
  -2.8650000000000002E-002     0.0000000000000000     
  -2.8600000000000000E-002     0.0000000000000000     
  -2.8549999999999999E-002     0.0000000000000000     
  -2.8500000000000001E-002     0.0000000000000000     
  -2.8450000000000000E-002     0.0000000000000000     
  -2.8400000000000002E-002     0.0000000000000000     
  -2.8350000000000000E-002     0.0000000000000000     
  -2.8299999999999999E-002     0.0000000000000000     
  -2.8250000000000001E-002     0.0000000000000000     
  -2.8200000000000003E-002     0.0000000000000000     
  -2.8150000000000001E-002     0.0000000000000000     
  -2.8100000000000000E-002     0.0000000000000000     
  -2.8049999999999999E-002     0.0000000000000000     
  -2.8000000000000001E-002     0.0000000000000000     
  -2.7950000000000003E-002     0.0000000000000000     
  -2.7900000000000001E-002     0.0000000000000000     
  -2.7850000000000000E-002     0.0000000000000000     
  -2.7799999999999998E-002     0.0000000000000000     
  -2.7750000000000000E-002     0.0000000000000000     
  -2.7700000000000002E-002     0.0000000000000000     
  -2.7650000000000001E-002     0.0000000000000000     
  -2.7600000000000000E-002     0.0000000000000000     
  -2.7549999999999998E-002     0.0000000000000000     
  -2.7500000000000000E-002     0.0000000000000000     
  -2.7450000000000002E-002     0.0000000000000000     
  -2.7400000000000001E-002     0.0000000000000000     
  -2.7349999999999999E-002     0.0000000000000000     
  -2.7299999999999998E-002     0.0000000000000000     
  -2.7250000000000000E-002     0.0000000000000000     
  -2.7200000000000002E-002     0.0000000000000000     
  -2.7150000000000001E-002     0.0000000000000000     
  -2.7099999999999999E-002     0.0000000000000000     
  -2.7049999999999998E-002     0.0000000000000000     
  -2.7000000000000000E-002     0.0000000000000000     
  -2.6950000000000002E-002     0.0000000000000000     
  -2.6900000000000000E-002     0.0000000000000000     
  -2.6849999999999999E-002     0.0000000000000000     
  -2.6800000000000001E-002     0.0000000000000000     
  -2.6749999999999999E-002    -5.7896637173786455E-040
  -2.6700000000000002E-002    -1.1874636113219387E-039
  -2.6650000000000000E-002    -7.0216270332134026E-040
  -2.6599999999999999E-002     1.0140446711190024E-039
  -2.6550000000000001E-002     2.9855382877486584E-039
  -2.6500000000000003E-002     4.4818562286481791E-039
  -2.6450000000000001E-002     3.8525248452486209E-039
  -2.6400000000000000E-002     6.4598658299881213E-040
  -2.6349999999999998E-002    -5.5550232123448733E-039
  -2.6300000000000000E-002    -1.1835388045895388E-038
  -2.6250000000000002E-002    -1.4149511915337150E-038
  -2.6200000000000001E-002    -1.3942171058154819E-038
  -2.6150000000000000E-002    -8.7090486739700840E-039
  -2.6099999999999998E-002    -1.1211638997908031E-039
  -2.6050000000000000E-002     8.4650314079201194E-039
  -2.6000000000000002E-002     2.6260684161665618E-038
  -2.5950000000000001E-002     2.8053018996011081E-038
  -2.5899999999999999E-002     2.3927087302959716E-038
  -2.5849999999999998E-002     1.4306984750299051E-038
  -2.5800000000000000E-002     1.7316341798760798E-038
  -2.5750000000000002E-002     1.3972797081793545E-038
  -2.5700000000000001E-002    -1.7833587362264892E-038
  -2.5649999999999999E-002    -6.3169430976013425E-038
  -2.5599999999999998E-002    -1.0606866044772502E-037
  -2.5550000000000000E-002    -1.1086193327255190E-037
  -2.5500000000000002E-002    -5.5770186876449011E-038
  -2.5450000000000000E-002     5.5459169753047098E-038
  -2.5399999999999999E-002     1.8080797726981563E-037
  -2.5349999999999998E-002     2.5333784754842524E-037
  -2.5300000000000000E-002     2.0190238966220059E-037
  -2.5250000000000002E-002     6.0043351218906028E-039
  -2.5200000000000000E-002    -2.7853025930105670E-037
  -2.5149999999999999E-002    -5.1379671906560452E-037
  -2.5100000000000001E-002    -5.2419351614475113E-037
  -2.5049999999999999E-002    -1.8566340157346694E-037
  -2.5000000000000001E-002     4.7444050573719739E-037
  -2.4950000000000000E-002     1.2178292299589923E-036
  -2.4899999999999999E-002     1.6293416300267157E-036
  -2.4850000000000001E-002     1.2718871291970952E-036
  -2.4800000000000003E-002    -7.0996321740664759E-038
  -2.4750000000000001E-002    -2.1604309586525421E-036
  -2.4700000000000000E-002    -4.2117713976820819E-036
  -2.4649999999999998E-002    -5.0673224086794065E-036
  -2.4600000000000000E-002    -3.6525855356614130E-036
  -2.4550000000000002E-002     4.0576351353923666E-037
  -2.4500000000000001E-002     6.2655454091595342E-036
  -2.4450000000000000E-002     1.1777039641336643E-035
  -2.4399999999999998E-002     1.4035646519716125E-035
  -2.4350000000000000E-002     1.0546095717760123E-035
  -2.4299999999999999E-002     6.3365824394245659E-037
  -2.4250000000000001E-002    -1.3533649162548300E-035
  -2.4199999999999999E-002    -2.6973673884914051E-035
  -2.4150000000000001E-002    -3.3323114082313655E-035
  -2.4100000000000000E-002    -2.7424399675644658E-035
  -2.4049999999999998E-002    -8.1372027989995853E-036
  -2.4000000000000000E-002     1.9970662965105286E-035
  -2.3949999999999999E-002     4.7238999146821929E-035
  -2.3900000000000001E-002     6.2183422980110524E-035
  -2.3850000000000000E-002     5.6469540138685841E-035
  -2.3800000000000002E-002     2.9463125502830734E-035
  -2.3750000000000000E-002    -1.0160047613980203E-035
  -2.3699999999999999E-002    -4.7367727914700160E-035
  -2.3650000000000001E-002    -6.7811450774764334E-035
  -2.3599999999999999E-002    -6.5959617696083887E-035
  -2.3550000000000001E-002    -4.9701502281517888E-035
  -2.3500000000000000E-002    -3.7350463521431295E-035
  -2.3449999999999999E-002    -4.6201073766356602E-035
  -2.3400000000000001E-002    -7.6833289655948323E-035
  -2.3349999999999999E-002    -1.0193500876571951E-034
  -2.3300000000000001E-002    -6.9607324471327112E-035
  -2.3250000000000000E-002     7.3259175350240354E-035
  -2.3199999999999998E-002     3.4174946361491767E-034
  -2.3150000000000000E-002     6.7397774169225566E-034
  -2.3099999999999999E-002     9.1669153517521794E-034
  -2.3050000000000001E-002     8.5767695185229012E-034
  -2.3000000000000000E-002     3.1163881326057099E-034
  -2.2950000000000002E-002    -7.6027926576925030E-034
  -2.2900000000000000E-002    -2.1451063233954750E-033
  -2.2849999999999999E-002    -3.3495721559302563E-033
  -2.2800000000000001E-002    -3.7002076206885935E-033
  -2.2749999999999999E-002    -2.5812856944929806E-033
  -2.2700000000000001E-002     2.4472739332544654E-034
  -2.2650000000000000E-002     4.3528824419922032E-033
  -2.2599999999999999E-002     8.5566609667683102E-033
  -2.2550000000000001E-002     1.1113746430842024E-032
  -2.2499999999999999E-002     1.0260015638843688E-032
  -2.2450000000000001E-002     4.9541905181394073E-033
  -2.2400000000000000E-002    -4.4187522443256148E-033
  -2.2349999999999998E-002    -1.5701654618127274E-032
  -2.2300000000000000E-002    -2.5236396741095013E-032
  -2.2249999999999999E-002    -2.8825362541442903E-032
  -2.2200000000000001E-002    -2.3186965556016683E-032
  -2.2150000000000000E-002    -7.4540778288754417E-033
  -2.2100000000000002E-002     1.5861131972204997E-032
  -2.2050000000000000E-002     4.0925460098823034E-032
  -2.1999999999999999E-002     5.9849598560047161E-032
  -2.1950000000000001E-002     6.4909443250066953E-032
  -2.1899999999999999E-002     5.1075731389030043E-032
  -2.1850000000000001E-002     1.8019468692432454E-032
  -2.1800000000000000E-002    -2.9108706426346368E-032
  -2.1749999999999999E-002    -8.0408194916430659E-032
  -2.1700000000000001E-002    -1.2321751545453778E-031
  -2.1649999999999999E-002    -1.4471406204818980E-031
  -2.1600000000000001E-002    -1.3441611409664807E-031
  -2.1550000000000000E-002    -8.6195279936452397E-032
  -2.1499999999999998E-002     9.2937813741715711E-035
  -2.1450000000000000E-002     1.1692752556823813E-031
  -2.1399999999999999E-002     2.4716428510781570E-031
  -2.1350000000000001E-002     3.6242394421774916E-031
  -2.1299999999999999E-002     4.2361830504738379E-031
  -2.1250000000000002E-002     3.8618448874407375E-031
  -2.1200000000000000E-002     2.1209429770537049E-031
  -2.1149999999999999E-002    -1.1163606166591469E-031
  -2.1100000000000001E-002    -5.5214369778460059E-031
  -2.1049999999999999E-002    -1.0160602531813309E-030
  -2.1000000000000001E-002    -1.3517736721359435E-030
  -2.0950000000000000E-002    -1.3776090815985900E-030
  -2.0899999999999998E-002    -9.3774111558063840E-031
  -2.0850000000000000E-002     2.4005860102288977E-032
  -2.0799999999999999E-002     1.3950771821557400E-030
  -2.0750000000000001E-002     2.8608376649041149E-030
  -2.0700000000000000E-002     3.9364534074368010E-030
  -2.0649999999999998E-002     4.0786735554745294E-030
  -2.0600000000000000E-002     2.8653906004839258E-030
  -2.0549999999999999E-002     1.9895461769500204E-031
  -2.0500000000000001E-002    -3.5362531434398586E-030
  -2.0449999999999999E-002    -7.4380202348551677E-030
  -2.0400000000000001E-002    -1.0227163231230320E-029
  -2.0350000000000000E-002    -1.0570999890516765E-029
  -2.0299999999999999E-002    -7.5295483818842854E-030
  -2.0250000000000001E-002    -1.0022782171464431E-030
  -2.0199999999999999E-002     7.9811102499347845E-030
  -2.0150000000000001E-002     1.7269232066273710E-029
  -2.0100000000000000E-002     2.3973283183606025E-029
  -2.0049999999999998E-002     2.5194644561712961E-029
  -2.0000000000000000E-002     1.8942370730680447E-029
  -1.9949999999999999E-002     4.9927011288553783E-030
  -1.9900000000000001E-002    -1.4589170503799285E-029
  -1.9850000000000000E-002    -3.5494828011722509E-029
  -1.9799999999999998E-002    -5.1888019012024453E-029
  -1.9750000000000000E-002    -5.7717324760278437E-029
  -1.9699999999999999E-002    -4.8377726969971439E-029
  -1.9650000000000001E-002    -2.2342592859411563E-029
  -1.9599999999999999E-002     1.7661004500917515E-029
  -1.9550000000000001E-002     6.4316964718092464E-029
  -1.9500000000000000E-002     1.0647907020773216E-028
  -1.9449999999999999E-002     1.3108677686965330E-028
  -1.9400000000000001E-002     1.2607020552122306E-028
  -1.9349999999999999E-002     8.3828533551254947E-029
  -1.9300000000000001E-002     4.6204988130067176E-030
  -1.9250000000000000E-002    -1.0099822617075327E-028
  -1.9199999999999998E-002    -2.1165504661061932E-028
  -1.9150000000000000E-002    -2.9742058270042594E-028
  -1.9099999999999999E-002    -3.2531219228930405E-028
  -1.9050000000000001E-002    -2.6775094569229745E-028
  -1.9000000000000000E-002    -1.1263946774271820E-028
  -1.8949999999999998E-002     1.2738549458114365E-028
  -1.8900000000000000E-002     4.0977926027442886E-028
  -1.8849999999999999E-002     6.6428890724485650E-028
  -1.8800000000000001E-002     8.0472013463617625E-028
  -1.8749999999999999E-002     7.5011764280675955E-028
  -1.8700000000000001E-002     4.5194890641548872E-028
  -1.8650000000000000E-002    -7.9450018322119479E-029
  -1.8599999999999998E-002    -7.5814146524714822E-028
  -1.8550000000000001E-002    -1.4244452868286833E-027
  -1.8499999999999999E-002    -1.8710633399397334E-027
  -1.8450000000000001E-002    -1.8929063723492971E-027
  -1.8400000000000000E-002    -1.3519864206435169E-027
  -1.8349999999999998E-002    -2.4106792907797761E-028
  -1.8300000000000000E-002     1.2747529737167063E-027
  -1.8249999999999999E-002     2.8582827266261731E-027
  -1.8200000000000001E-002     4.0541321067365656E-027
  -1.8149999999999999E-002     4.3942708390113303E-027
  -1.8100000000000002E-002     3.5363506985701213E-027
  -1.8050000000000000E-002     1.4008026015877534E-027
  -1.7999999999999999E-002    -1.7354156982203473E-027
  -1.7950000000000001E-002    -5.2275480341459882E-027
  -1.7899999999999999E-002    -8.1577343007030292E-027
  -1.7850000000000001E-002    -9.5330039792941473E-027
  -1.7800000000000000E-002    -8.5529798980428689E-027
  -1.7749999999999998E-002    -4.8861985227578115E-027
  -1.7700000000000000E-002     1.1215997326073464E-027
  -1.7649999999999999E-002     8.3808188296167318E-027
  -1.7600000000000001E-002     1.5182620058273367E-026
  -1.7550000000000000E-002     1.9522576872264836E-026
  -1.7499999999999998E-002     1.9579246435590072E-026
  -1.7450000000000000E-002     1.4253565535277260E-026
  -1.7399999999999999E-002     3.6397019605171693E-027
  -1.7350000000000001E-002    -1.0711438753687057E-026
  -1.7299999999999999E-002    -2.5851839568680440E-026
  -1.7250000000000001E-002    -3.7878508981993150E-026
  -1.7200000000000000E-002    -4.2734715855439157E-026
  -1.7149999999999999E-002    -3.7250807538052462E-026
  -1.7100000000000001E-002    -2.0215427665315313E-026
  -1.7049999999999999E-002     6.7932238797953474E-027
  -1.7000000000000001E-002     3.9096155438866201E-026
  -1.6950000000000000E-002     6.9344245147756198E-026
  -1.6899999999999998E-002     8.8780315092140399E-026
  -1.6850000000000000E-002     8.9226791222849992E-026
  -1.6799999999999999E-002     6.5467001222672770E-026
  -1.6750000000000001E-002     1.7482896704871418E-026
  -1.6700000000000000E-002    -4.8108432838354806E-026
  -1.6649999999999998E-002    -1.1804936018833232E-025
  -1.6600000000000000E-002    -1.7428147382728958E-025
  -1.6549999999999999E-002    -1.9764311241038709E-025
  -1.6500000000000001E-002    -1.7290861929262848E-025
  -1.6449999999999999E-002    -9.4115952949213541E-026
  -1.6400000000000001E-002     3.1256672917546437E-026
  -1.6350000000000000E-002     1.8078110952500962E-025
  -1.6299999999999999E-002     3.1940019154978399E-025
  -1.6250000000000001E-002     4.0594964992293409E-025
  -1.6199999999999999E-002     4.0312713429212004E-025
  -1.6150000000000001E-002     2.8895354988850623E-025
  -1.6100000000000000E-002     6.6828386693065277E-026
  -1.6049999999999998E-002    -2.2905247852214500E-025
  -1.6000000000000000E-002    -5.3561424011654640E-025
  -1.5949999999999999E-002    -7.7140662806463453E-025
  -1.5900000000000001E-002    -8.5477988436513730E-025
  -1.5850000000000000E-002    -7.2642094386831086E-025
  -1.5799999999999998E-002    -3.7093379720447349E-025
  -1.5750000000000000E-002     1.6876984370935448E-025
  -1.5699999999999999E-002     7.8987200960650514E-025
  -1.5650000000000001E-002     1.3440828804342829E-024
  -1.5599999999999999E-002     1.6676094894707247E-024
  -1.5550000000000001E-002     1.6217966732939610E-024
  -1.5500000000000000E-002     1.1356939175538449E-024
  -1.5449999999999998E-002     2.3953597919753827E-025
  -1.5400000000000000E-002    -9.2160616351006471E-025
  -1.5349999999999999E-002    -2.1015808599384940E-024
  -1.5300000000000001E-002    -2.9961627409934886E-024
  -1.5250000000000000E-002    -3.3099220151014805E-024
  -1.5199999999999998E-002    -2.8344398519673726E-024
  -1.5150000000000000E-002    -1.5201314705029160E-024
  -1.5099999999999999E-002     4.7776800268279497E-025
  -1.5050000000000001E-002     2.7957162567372515E-024
  -1.4999999999999999E-002     4.9101742375305739E-024
  -1.4949999999999998E-002     6.2361121497214536E-024
  -1.4900000000000000E-002     6.2615374754332445E-024
  -1.4849999999999999E-002     4.6922799884963180E-024
  -1.4800000000000001E-002     1.5735237650907848E-024
  -1.4749999999999999E-002    -2.6468962233777300E-024
  -1.4700000000000001E-002    -7.1418202629352913E-024
  -1.4650000000000000E-002    -1.0828324344477138E-023
  -1.4599999999999998E-002    -1.2583659583786683E-023
  -1.4550000000000000E-002    -1.1520947357466042E-023
  -1.4499999999999999E-002    -7.2693503748246468E-024
  -1.4450000000000001E-002    -1.8869664430196187E-025
  -1.4400000000000000E-002     8.5522032243078182E-024
  -1.4349999999999998E-002     1.7086949833852151E-023
  -1.4300000000000000E-002     2.3170316410230116E-023
  -1.4249999999999999E-002     2.4671970951733394E-023
  -1.4200000000000001E-002     2.0158304904274668E-023
  -1.4149999999999999E-002     9.4297629813074550E-024
  -1.4099999999999998E-002    -6.1400415431868355E-024
  -1.4050000000000000E-002    -2.3601968615781945E-023
  -1.3999999999999999E-002    -3.8846725774541864E-023
  -1.3950000000000001E-002    -4.7424501952301366E-023
  -1.3899999999999999E-002    -4.5641838266477869E-023
  -1.3850000000000001E-002    -3.1703054929326198E-023
  -1.3800000000000000E-002    -6.5981339677533471E-024
  -1.3749999999999998E-002     2.5557834079557774E-023
  -1.3700000000000000E-002     5.7943111746955467E-023
  -1.3649999999999999E-002     8.2252718571787395E-023
  -1.3600000000000001E-002     9.0564975423204477E-023
  -1.3550000000000000E-002     7.7482774661730654E-023
  -1.3499999999999998E-002     4.2035542186204772E-023
  -1.3450000000000000E-002    -1.1205195474096499E-023
  -1.3399999999999999E-002    -7.2235555503730236E-023
  -1.3350000000000001E-002    -1.2714837417797932E-022
  -1.3299999999999999E-002    -1.6093897261007681E-022
  -1.3249999999999998E-002    -1.6109081589165156E-022
  -1.3200000000000000E-002    -1.2116559329968658E-022
  -1.3149999999999998E-002    -4.3497699597536099E-023
  -1.3100000000000001E-002     5.9821210434305992E-023
  -1.3049999999999999E-002     1.6818452256452630E-022
  -1.3000000000000001E-002     2.5599346734041997E-022
  -1.2950000000000000E-002     2.9797797028421457E-022
  -1.2899999999999998E-002     2.7533908620528751E-022
  -1.2850000000000000E-002     1.8140209282723098E-022
  -1.2799999999999999E-002     2.5386095940452700E-023