  -4.0000000000000001E-002     0.0000000000000000     
  -3.9949999999999999E-002     0.0000000000000000     
  -3.9899999999999998E-002     0.0000000000000000     
  -3.9850000000000003E-002     0.0000000000000000     
  -3.9800000000000002E-002     0.0000000000000000     
  -3.9750000000000001E-002     0.0000000000000000     
  -3.9699999999999999E-002     0.0000000000000000     
  -3.9649999999999998E-002     0.0000000000000000     
  -3.9600000000000003E-002     0.0000000000000000     
  -3.9550000000000002E-002     0.0000000000000000     
  -3.9500000000000000E-002     0.0000000000000000     
  -3.9449999999999999E-002     0.0000000000000000     
  -3.9399999999999998E-002     0.0000000000000000     
  -3.9350000000000003E-002     0.0000000000000000     
  -3.9300000000000002E-002     0.0000000000000000     
  -3.9250000000000000E-002     0.0000000000000000     
  -3.9199999999999999E-002     0.0000000000000000     
  -3.9150000000000004E-002     0.0000000000000000     
  -3.9100000000000003E-002     0.0000000000000000     
  -3.9050000000000001E-002     0.0000000000000000     
  -3.9000000000000000E-002     0.0000000000000000     
  -3.8949999999999999E-002     0.0000000000000000     
  -3.8900000000000004E-002     0.0000000000000000     
  -3.8850000000000003E-002     0.0000000000000000     
  -3.8800000000000001E-002     0.0000000000000000     
  -3.8750000000000000E-002     0.0000000000000000     
  -3.8699999999999998E-002     0.0000000000000000     
  -3.8650000000000004E-002     0.0000000000000000     
  -3.8600000000000002E-002     0.0000000000000000     
  -3.8550000000000001E-002     0.0000000000000000     
  -3.8500000000000000E-002     0.0000000000000000     
  -3.8449999999999998E-002     0.0000000000000000     
  -3.8400000000000004E-002     0.0000000000000000     
  -3.8350000000000002E-002     0.0000000000000000     
  -3.8300000000000001E-002     0.0000000000000000     
  -3.8249999999999999E-002     0.0000000000000000     
  -3.8199999999999998E-002     0.0000000000000000     
  -3.8150000000000003E-002     0.0000000000000000     
  -3.8100000000000002E-002     0.0000000000000000     
  -3.8050000000000000E-002     0.0000000000000000     
  -3.7999999999999999E-002     0.0000000000000000     
  -3.7949999999999998E-002     0.0000000000000000     
  -3.7900000000000003E-002     0.0000000000000000     
  -3.7850000000000002E-002     0.0000000000000000     
  -3.7800000000000000E-002     0.0000000000000000     
  -3.7749999999999999E-002     0.0000000000000000     
  -3.7699999999999997E-002     0.0000000000000000     
  -3.7650000000000003E-002     0.0000000000000000     
  -3.7600000000000001E-002     0.0000000000000000     
  -3.7550000000000000E-002     0.0000000000000000     
  -3.7499999999999999E-002     0.0000000000000000     
  -3.7449999999999997E-002     0.0000000000000000     
  -3.7400000000000003E-002     0.0000000000000000     
  -3.7350000000000001E-002     0.0000000000000000     
  -3.7300000000000000E-002     0.0000000000000000     
  -3.7249999999999998E-002     0.0000000000000000     
  -3.7200000000000004E-002     0.0000000000000000     
  -3.7150000000000002E-002     0.0000000000000000     
  -3.7100000000000001E-002     0.0000000000000000     
  -3.7050000000000000E-002     0.0000000000000000     
  -3.6999999999999998E-002     0.0000000000000000     
  -3.6950000000000004E-002     0.0000000000000000     
  -3.6900000000000002E-002     0.0000000000000000     
  -3.6850000000000001E-002     0.0000000000000000     
  -3.6799999999999999E-002     0.0000000000000000     
  -3.6749999999999998E-002     0.0000000000000000     
  -3.6700000000000003E-002     0.0000000000000000     
  -3.6650000000000002E-002     0.0000000000000000     
  -3.6600000000000001E-002     0.0000000000000000     
  -3.6549999999999999E-002     0.0000000000000000     
  -3.6499999999999998E-002     0.0000000000000000     
  -3.6450000000000003E-002     0.0000000000000000     
  -3.6400000000000002E-002     0.0000000000000000     
  -3.6350000000000000E-002     0.0000000000000000     
  -3.6299999999999999E-002     0.0000000000000000     
  -3.6249999999999998E-002     0.0000000000000000     
  -3.6200000000000003E-002     0.0000000000000000     
  -3.6150000000000002E-002     0.0000000000000000     
  -3.6100000000000000E-002     0.0000000000000000     
  -3.6049999999999999E-002     0.0000000000000000     
  -3.6000000000000004E-002     0.0000000000000000     
  -3.5950000000000003E-002     0.0000000000000000     
  -3.5900000000000001E-002     0.0000000000000000     
  -3.5850000000000000E-002     0.0000000000000000     
  -3.5799999999999998E-002     0.0000000000000000     
  -3.5750000000000004E-002     0.0000000000000000     
  -3.5700000000000003E-002     0.0000000000000000     
  -3.5650000000000001E-002     0.0000000000000000     
  -3.5600000000000000E-002     0.0000000000000000     
  -3.5549999999999998E-002     0.0000000000000000     
  -3.5500000000000004E-002     0.0000000000000000     
  -3.5450000000000002E-002     0.0000000000000000     
  -3.5400000000000001E-002     0.0000000000000000     
  -3.5349999999999999E-002     0.0000000000000000     
  -3.5299999999999998E-002     0.0000000000000000     
  -3.5250000000000004E-002     0.0000000000000000     
  -3.5200000000000002E-002     0.0000000000000000     
  -3.5150000000000001E-002     0.0000000000000000     
  -3.5099999999999999E-002     0.0000000000000000     
  -3.5049999999999998E-002     0.0000000000000000     
  -3.5000000000000003E-002     0.0000000000000000     
  -3.4950000000000002E-002     0.0000000000000000     
  -3.4900000000000000E-002     0.0000000000000000     
  -3.4849999999999999E-002     0.0000000000000000     
  -3.4799999999999998E-002     0.0000000000000000     
  -3.4750000000000003E-002     0.0000000000000000     
  -3.4700000000000002E-002     0.0000000000000000     
  -3.4650000000000000E-002     0.0000000000000000     
  -3.4599999999999999E-002     0.0000000000000000     
  -3.4549999999999997E-002     0.0000000000000000     
  -3.4500000000000003E-002     0.0000000000000000     
  -3.4450000000000001E-002     0.0000000000000000     
  -3.4400000000000000E-002     0.0000000000000000     
  -3.4349999999999999E-002     0.0000000000000000     
  -3.4299999999999997E-002     0.0000000000000000     
  -3.4250000000000003E-002     0.0000000000000000     
  -3.4200000000000001E-002     0.0000000000000000     
  -3.4150000000000000E-002     0.0000000000000000     
  -3.4099999999999998E-002     0.0000000000000000     
  -3.4049999999999997E-002     0.0000000000000000     
  -3.4000000000000002E-002     0.0000000000000000     
  -3.3950000000000001E-002     0.0000000000000000     
  -3.3900000000000000E-002     0.0000000000000000     
  -3.3849999999999998E-002     0.0000000000000000     
  -3.3799999999999997E-002     0.0000000000000000     
  -3.3750000000000002E-002     0.0000000000000000     
  -3.3700000000000001E-002     0.0000000000000000     
  -3.3649999999999999E-002     0.0000000000000000     
  -3.3599999999999998E-002     0.0000000000000000     
  -3.3550000000000003E-002     0.0000000000000000     
  -3.3500000000000002E-002     0.0000000000000000     
  -3.3450000000000001E-002     0.0000000000000000     
  -3.3399999999999999E-002     0.0000000000000000     
  -3.3349999999999998E-002     0.0000000000000000     
  -3.3300000000000003E-002     0.0000000000000000     
  -3.3250000000000002E-002     0.0000000000000000     
  -3.3200000000000000E-002     0.0000000000000000     
  -3.3149999999999999E-002     0.0000000000000000     
  -3.3099999999999997E-002     0.0000000000000000     
  -3.3050000000000003E-002     0.0000000000000000     
  -3.3000000000000002E-002     0.0000000000000000     
  -3.2950000000000000E-002     0.0000000000000000     
  -3.2899999999999999E-002     0.0000000000000000     
  -3.2850000000000004E-002     0.0000000000000000     
  -3.2800000000000003E-002     0.0000000000000000     
  -3.2750000000000001E-002     0.0000000000000000     
  -3.2700000000000000E-002     0.0000000000000000     
  -3.2649999999999998E-002     0.0000000000000000     
  -3.2600000000000004E-002     0.0000000000000000     
  -3.2550000000000003E-002     0.0000000000000000     
  -3.2500000000000001E-002     0.0000000000000000     
  -3.2450000000000000E-002     0.0000000000000000     
  -3.2399999999999998E-002     0.0000000000000000     
  -3.2350000000000004E-002     0.0000000000000000     
  -3.2300000000000002E-002     0.0000000000000000     
  -3.2250000000000001E-002     0.0000000000000000     
  -3.2199999999999999E-002     0.0000000000000000     
  -3.2149999999999998E-002     0.0000000000000000     
  -3.2100000000000004E-002     0.0000000000000000     
  -3.2050000000000002E-002     0.0000000000000000     
  -3.2000000000000001E-002     0.0000000000000000     
  -3.1949999999999999E-002     0.0000000000000000     
  -3.1899999999999998E-002     0.0000000000000000     
  -3.1850000000000003E-002     0.0000000000000000     
  -3.1800000000000002E-002     0.0000000000000000     
  -3.1750000000000000E-002     0.0000000000000000     
  -3.1699999999999999E-002     0.0000000000000000     
  -3.1649999999999998E-002     0.0000000000000000     
  -3.1600000000000003E-002     0.0000000000000000     
  -3.1550000000000002E-002     0.0000000000000000     
  -3.1500000000000000E-002     0.0000000000000000     
  -3.1449999999999999E-002     0.0000000000000000     
  -3.1399999999999997E-002    -6.8660495313282049E-039
  -3.1350000000000003E-002    -1.5330338531917444E-038
  -3.1300000000000001E-002    -9.7233579760125766E-039
  -3.1250000000000000E-002     8.3371531877466684E-039
  -3.1199999999999999E-002     4.3157717350734302E-038
  -3.1150000000000001E-002     7.6080254751845907E-038
  -3.1100000000000003E-002     7.5901138310020991E-038
  -3.1050000000000001E-002     2.9648448090483899E-038
  -3.1000000000000000E-002    -3.6236760555037628E-038
  -3.0949999999999998E-002    -9.9433847334939420E-038
  -3.0900000000000000E-002    -1.4415514079422172E-037
  -3.0850000000000002E-002    -1.6497420432875133E-037
  -3.0800000000000001E-002    -1.5222880557420275E-037
  -3.0750000000000000E-002    -1.0060689535140247E-037
  -3.0699999999999998E-002    -4.4181147388632294E-039
  -3.0650000000000000E-002     1.4960832172688674E-037
  -3.0600000000000002E-002     3.8058605973478665E-037
  -3.0550000000000001E-002     6.6975628228046541E-037
  -3.0499999999999999E-002     9.3188979259722479E-037
  -3.0449999999999998E-002     9.6489486398703964E-037
  -3.0400000000000000E-002     5.3204412745611426E-037
  -3.0350000000000002E-002    -5.2659311065031529E-037
  -3.0300000000000001E-002    -2.1294730981009687E-036
  -3.0249999999999999E-002    -3.8275984808123001E-036
  -3.0200000000000001E-002    -4.7945030821361468E-036
  -3.0150000000000000E-002    -4.0401741787219581E-036
  -3.0100000000000002E-002    -8.3731030870922570E-037
  -3.0050000000000000E-002     4.7393761606498363E-036
  -2.9999999999999999E-002     1.1387479606030848E-035
  -2.9950000000000001E-002     1.6553156362055674E-035
  -2.9899999999999999E-002     1.7028287455580701E-035
  -2.9850000000000002E-002     1.0171668522861949E-035
  -2.9800000000000000E-002    -4.5680095029626514E-036
  -2.9749999999999999E-002    -2.4451562269317024E-035
  -2.9700000000000001E-002    -4.3302662853886061E-035
  -2.9650000000000003E-002    -5.2888554339656543E-035
  -2.9600000000000001E-002    -4.5717199409684439E-035
  -2.9550000000000000E-002    -1.8388080754099274E-035
  -2.9499999999999998E-002     2.5892482721714385E-035
  -2.9450000000000000E-002     7.6962618036529076E-035
  -2.9400000000000003E-002     1.2004625954856085E-034
  -2.9350000000000001E-002     1.4001604986324925E-034
  -2.9300000000000000E-002     1.2569146349899189E-034
  -2.9249999999999998E-002     7.2157063008212473E-035
  -2.9200000000000000E-002    -1.9622635185905457E-035
  -2.9150000000000002E-002    -1.4432535997408286E-034
  -2.9100000000000001E-002    -2.9148416370732042E-034
  -2.9049999999999999E-002    -4.3934660174149649E-034
  -2.8999999999999998E-002    -5.4419178935891801E-034
  -2.8950000000000000E-002    -5.3240102677396005E-034
  -2.8900000000000002E-002    -3.0821894334128349E-034
  -2.8850000000000001E-002     2.1026922896497544E-034
  -2.8799999999999999E-002     1.0251691359318211E-033
  -2.8749999999999998E-002     1.9818682830380477E-033
  -2.8700000000000000E-002     2.7236402714349228E-033
  -2.8650000000000002E-002     2.7320750339048203E-033
  -2.8600000000000000E-002     1.4924983479911367E-033
  -2.8549999999999999E-002    -1.2261841010289386E-033
  -2.8500000000000001E-002    -5.0624808701236838E-033
  -2.8450000000000000E-002    -8.8787203375645877E-033
  -2.8400000000000002E-002    -1.0877340123027593E-032
  -2.8350000000000000E-002    -9.1237937672304544E-033
  -2.8299999999999999E-002    -2.4200732682172635E-033
  -2.8250000000000001E-002     8.7414508621006960E-033
  -2.8200000000000003E-002     2.1586958443368280E-032
  -2.8150000000000001E-002     3.1294423125958081E-032
  -2.8100000000000000E-002     3.2298714401131869E-032
  -2.8049999999999999E-002     2.0484879368607999E-032
  -2.8000000000000001E-002    -4.4235101110920970E-033
  -2.7950000000000003E-002    -3.7326755169979292E-032
  -2.7900000000000001E-002    -6.8063622730425521E-032
  -2.7850000000000000E-002    -8.4023453873424719E-032
  -2.7799999999999998E-002    -7.4550864047639116E-032
  -2.7750000000000000E-002    -3.5661060419095111E-032
  -2.7700000000000002E-002     2.6923341343367308E-032
  -2.7650000000000001E-002     9.8045927330809275E-032
  -2.7600000000000000E-002     1.5707738692960025E-031
  -2.7549999999999998E-002     1.8424472534213342E-031
  -2.7500000000000000E-002     1.6671316865088965E-031
  -2.7450000000000002E-002     1.0175423608903874E-031
  -2.7400000000000001E-002    -4.1382263436760672E-033
  -2.7349999999999999E-002    -1.3877073280014730E-031
  -2.7299999999999998E-002    -2.8684926020691850E-031
  -2.7250000000000000E-002    -4.2804412791758723E-031
  -2.7200000000000002E-002    -5.2991957993640368E-031
  -2.7150000000000001E-002    -5.4045074040869921E-031
  -2.7099999999999999E-002    -3.8973176910177472E-031
  -2.7049999999999998E-002    -1.1024307069931861E-032
  -2.7000000000000000E-002     6.1554673438525673E-031
  -2.6950000000000002E-002     1.4073669337757562E-030
  -2.6900000000000000E-002     2.1387219171710856E-030
  -2.6849999999999999E-002     2.4515154378862562E-030
  -2.6800000000000001E-002     1.9464548188009380E-030
  -2.6749999999999999E-002     3.5531362274648564E-031
  -2.6700000000000002E-002    -2.2498511092256462E-030
  -2.6650000000000000E-002    -5.2987120961189012E-030
  -2.6599999999999999E-002    -7.7230338179988256E-030
  -2.6550000000000001E-002    -8.1944544746070032E-030
  -2.6500000000000003E-002    -5.5972857919129490E-030
  -2.6450000000000001E-002     3.8197283416543686E-031
  -2.6400000000000000E-002     8.7727345078188751E-030
  -2.6349999999999998E-002     1.7209743523433223E-029
  -2.6300000000000000E-002     2.2385892055860335E-029
  -2.6250000000000002E-002     2.1072767418988165E-029
  -2.6200000000000001E-002     1.1459241060524177E-029
  -2.6150000000000000E-002    -5.6627221729714181E-030
  -2.6099999999999998E-002    -2.6410643754416856E-029
  -2.6050000000000000E-002    -4.4419114846263396E-029
  -2.6000000000000002E-002    -5.2574055969998330E-029
  -2.5950000000000001E-002    -4.5437943448765771E-029
  -2.5899999999999999E-002    -2.1550252784659633E-029
  -2.5849999999999998E-002     1.5310807266546090E-029
  -2.5800000000000000E-002     5.6535555747647753E-029
  -2.5750000000000002E-002     9.0786383370621082E-029
  -2.5700000000000001E-002     1.0713773970158563E-028
  -2.5649999999999999E-002     9.8141747002369150E-029
  -2.5599999999999998E-002     6.1750388925415757E-029
  -2.5550000000000000E-002     1.5989327974618505E-030
  -2.5500000000000002E-002    -7.3992425051927761E-029
  -2.5450000000000000E-002    -1.5328334290627324E-028
  -2.5399999999999999E-002    -2.2163721390635146E-028
  -2.5349999999999998E-002    -2.6115209495790409E-028
  -2.5300000000000000E-002    -2.5062830837610828E-028
  -2.5250000000000002E-002    -1.6820483177535454E-028
  -2.5200000000000000E-002     1.1649913529202518E-030
  -2.5149999999999999E-002     2.5326305093352301E-028
  -2.5100000000000001E-002     5.5066563869609538E-028
  -2.5049999999999999E-002     8.1456977382937688E-028
  -2.5000000000000001E-002     9.3133563018442823E-028
  -2.4950000000000000E-002     7.8018527651225315E-028
  -2.4899999999999999E-002     2.8102442405708231E-028
  -2.4850000000000001E-002    -5.4950393848056290E-028
  -2.4800000000000003E-002    -1.5557870267448401E-027
  -2.4750000000000001E-002    -2.4408932345258956E-027
  -2.4700000000000000E-002    -2.8234376450580293E-027
  -2.4649999999999998E-002    -2.3543776028462882E-027
  -2.4600000000000000E-002    -8.6815711818517715E-028
  -2.4550000000000002E-002     1.4820661851010483E-027
  -2.4500000000000001E-002     4.1666798093962969E-027
  -2.4450000000000000E-002     6.3493478077731796E-027
  -2.4399999999999998E-002     7.0976696134847440E-027
  -2.4350000000000000E-002     5.6950754940010491E-027
  -2.4299999999999999E-002     1.9626161799467852E-027
  -2.4250000000000001E-002    -3.5286794798769555E-027
  -2.4199999999999999E-002    -9.4610175443290715E-027
  -2.4150000000000001E-002    -1.4036511664211244E-026
  -2.4100000000000000E-002    -1.5466287150881376E-026
  -2.4049999999999998E-002    -1.2551734796088649E-026
  -2.4000000000000000E-002    -5.1738714398742872E-027
  -2.3949999999999999E-002     5.4846682088556619E-027
  -2.3900000000000001E-002     1.7085593648007001E-026
  -2.3850000000000000E-002     2.6631741065061924E-026
  -2.3800000000000002E-002     3.1181820501916684E-026
  -2.3750000000000000E-002     2.8584024194008154E-026
  -2.3699999999999999E-002     1.8040652781170072E-026
  -2.3650000000000001E-002     3.9660485284753883E-028
  -2.3599999999999999E-002    -2.1848778598719522E-026
  -2.3550000000000001E-002    -4.4736477543204867E-026
  -2.3500000000000000E-002    -6.3189332310472250E-026
  -2.3449999999999999E-002    -7.1530827270862574E-026
  -2.3400000000000001E-002    -6.4320455748902342E-026
  -2.3349999999999999E-002    -3.7670466091791855E-026
  -2.3300000000000001E-002     8.9394028980356990E-027
  -2.3250000000000000E-002     7.0672950753206106E-026
  -2.3199999999999998E-002     1.3592894768839794E-025
  -2.3150000000000000E-002     1.8657405631077981E-025
  -2.3099999999999999E-002     2.0080295327080118E-025
  -2.3050000000000001E-002     1.5897594153285082E-025
  -2.3000000000000000E-002     5.1619771621683014E-026
  -2.2950000000000002E-002    -1.1260009053256858E-025
  -2.2900000000000000E-002    -3.0216529328226768E-025
  -2.2849999999999999E-002    -4.6454784624740118E-025
  -2.2800000000000001E-002    -5.3659623816173029E-025
  -2.2749999999999999E-002    -4.6278982024142982E-025
  -2.2700000000000001E-002    -2.1733473650104727E-025
  -2.2650000000000000E-002     1.7680972323361667E-025
  -2.2599999999999999E-002     6.3997114368565363E-025
  -2.2550000000000001E-002     1.0451780529466037E-024
  -2.2499999999999999E-002     1.2466654696924342E-024
  -2.2450000000000001E-002     1.1227217771783661E-024
  -2.2400000000000000E-002     6.2178355308625877E-025
  -2.2349999999999998E-002    -2.0310678286005614E-025
  -2.2300000000000000E-002    -1.1856440661321052E-024
  -2.2249999999999999E-002    -2.0717160062450336E-024
  -2.2200000000000001E-002    -2.5774940498799101E-024
  -2.2150000000000000E-002    -2.4678120899969282E-024
  -2.2100000000000002E-002    -1.6341784146254636E-024
  -2.2050000000000000E-002    -1.4918613439870882E-025
  -2.1999999999999999E-002     1.7213944303826646E-024
  -2.1950000000000001E-002     3.5569947161938161E-024
  -2.1899999999999999E-002     4.8658619629467004E-024
  -2.1850000000000001E-002     5.1967276497861518E-024
  -2.1800000000000000E-002     4.2543814680600947E-024
  -2.1749999999999999E-002     1.9945137491530477E-024
  -2.1700000000000001E-002    -1.3219977521594997E-024
  -2.1649999999999999E-002    -5.1279615867429792E-024
  -2.1600000000000001E-002    -8.6080209706281853E-024
  -2.1550000000000000E-002    -1.0817394953064062E-023
  -2.1499999999999998E-002    -1.0857886899197056E-023
  -2.1450000000000000E-002    -8.0992820670816707E-024
  -2.1399999999999999E-002    -2.4185321350080546E-024
  -2.1350000000000001E-002     5.5934067119837988E-024
  -2.1299999999999999E-002     1.4529566092609823E-023
  -2.1250000000000002E-002     2.2251777076220713E-023
  -2.1200000000000000E-002     2.6225924497626466E-023
  -2.1149999999999999E-002     2.4115733445510487E-023
  -2.1100000000000001E-002     1.4553788714701837E-023
  -2.1049999999999999E-002    -2.0932765886602983E-024
  -2.1000000000000001E-002    -2.3225946392556215E-023
  -2.0950000000000000E-002    -4.4050604807078324E-023
  -2.0899999999999998E-002    -5.8339880403842297E-023
  -2.0850000000000000E-002    -5.9910484872299807E-023
  -2.0799999999999999E-002    -4.4561910228450894E-023
  -2.0750000000000001E-002    -1.1976727896633605E-023
  -2.0700000000000000E-002     3.3056437788803476E-023
  -2.0649999999999998E-002     8.0692018122378510E-023
  -2.0600000000000000E-002     1.1767990279114150E-022
  -2.0549999999999999E-002     1.3050734107256565E-022
  -2.0500000000000001E-002     1.0940100044959846E-022
  -2.0449999999999999E-002     5.2136083818949781E-023
  -2.0400000000000001E-002    -3.3568657492134083E-023
  -2.0350000000000000E-002    -1.3009801075873249E-022
  -2.0299999999999999E-002    -2.1290067707054528E-022
  -2.0250000000000001E-002    -2.5603482908303930E-022
  -2.0199999999999999E-002    -2.3914768466971631E-022
  -2.0150000000000001E-002    -1.5414433808629434E-022
  -2.0100000000000000E-002    -9.6452161994692062E-024
  -2.0049999999999998E-002     1.6830004410161095E-022
  -2.0000000000000000E-002     3.3994533584438007E-022
  -1.9949999999999999E-002     4.5965318801711678E-022
  -1.9900000000000001E-002     4.8634594616373749E-022
  -1.9850000000000000E-002     3.9442428078501188E-022
  -1.9799999999999998E-002     1.8269034097361441E-022
  -1.9750000000000000E-002    -1.2096507785877346E-022
  -1.9699999999999999E-002    -4.6069421150743927E-022
  -1.9650000000000001E-002    -7.6028576651190482E-022
  -1.9599999999999999E-002    -9.3675962490707962E-022
  -1.9550000000000001E-002    -9.1834332745694071E-022
  -1.9500000000000000E-002    -6.6404703862325473E-022
  -1.9449999999999999E-002    -1.8100223278489103E-022
  -1.9400000000000001E-002     4.6498727898944312E-022
  -1.9349999999999999E-002     1.1502388255202316E-021
  -1.9300000000000001E-002     1.7087460274114255E-021
  -1.9250000000000000E-002     1.9633042378820929E-021
  -1.9199999999999998E-002     1.7690076756010212E-021
  -1.9150000000000000E-002     1.0611698259301437E-021
  -1.9099999999999999E-002    -1.0447146346029002E-022
  -1.9050000000000001E-002    -1.5333489414804522E-021
  -1.9000000000000000E-002    -2.9076698297969810E-021
  -1.8949999999999998E-002    -3.8417505730212731E-021
  -1.8900000000000000E-002    -3.9723219241093530E-021
  -1.8849999999999999E-002    -3.0668126092998588E-021
  -1.8800000000000001E-002    -1.1222282422322460E-021
  -1.8749999999999999E-002     1.5772998707096632E-021
  -1.8700000000000001E-002     4.4718008703729525E-021
  -1.8650000000000000E-002     6.8188772601646680E-021
  -1.8599999999999998E-002     7.8607622433309366E-021
  -1.8550000000000001E-002     7.0324825062282463E-021
  -1.8499999999999999E-002     4.1594413242020444E-021
  -1.8450000000000001E-002    -4.1453100286879079E-022
  -1.8400000000000000E-002    -5.8185099988804992E-021
  -1.8349999999999998E-002    -1.0789546103906274E-020
  -1.8300000000000000E-002    -1.3939039652023626E-020
  -1.8249999999999999E-002    -1.4099146529123281E-020
  -1.8200000000000001E-002    -1.0668225638140034E-020
  -1.8149999999999999E-002    -3.8632587898956483E-021
  -1.8100000000000002E-002     5.2001206375140487E-021
  -1.8050000000000000E-002     1.4644187835344624E-020
  -1.7999999999999999E-002     2.2176514879751961E-020
  -1.7950000000000001E-002     2.5589604384131300E-020
  -1.7899999999999999E-002     2.3311539005890368E-020
  -1.7850000000000001E-002     1.4884428478409722E-020
  -1.7800000000000000E-002     1.2515604298359533E-021
  -1.7749999999999998E-002    -1.5236014696064239E-020
  -1.7700000000000000E-002    -3.1132921635670892E-020
  -1.7649999999999999E-002    -4.2510858295918849E-020
  -1.7600000000000001E-002    -4.5782645951048699E-020
  -1.7550000000000000E-002    -3.8597702185529918E-020
  -1.7499999999999998E-002    -2.0628343032028138E-020
  -1.7450000000000000E-002     5.9475877361175048E-021
  -1.7399999999999999E-002     3.6441528296604594E-020
  -1.7350000000000001E-002     6.4237528893062003E-020
  -1.7299999999999999E-002     8.1969121326241968E-020
  -1.7250000000000001E-002     8.3153993374113231E-020
  -1.7200000000000000E-002     6.3998784062902872E-020
  -1.7149999999999999E-002     2.4961033229304173E-020
  -1.7100000000000001E-002    -2.8397815972542847E-020
  -1.7049999999999999E-002    -8.5674091836561120E-020
  -1.7000000000000001E-002    -1.3321045961585841E-019
  -1.6950000000000000E-002    -1.5691307145475458E-019
  -1.6899999999999998E-002    -1.4583058228172367E-019
  -1.6850000000000000E-002    -9.5698237730316745E-020
  -1.6799999999999999E-002    -1.1468816868145669E-020
  -1.6750000000000001E-002     9.2086889151405201E-020
  -1.6700000000000000E-002     1.9228550319989488E-019
  -1.6649999999999998E-002     2.6293428873871920E-019
  -1.6600000000000000E-002     2.8052191269653931E-019
  -1.6549999999999999E-002     2.3085192506257305E-019
  -1.6500000000000001E-002     1.1440566906626430E-019
  -1.6449999999999999E-002    -5.1225195812879643E-020
  -1.6400000000000001E-002    -2.3297014706148570E-019
  -1.6350000000000000E-002    -3.8818608095731540E-019
  -1.6299999999999999E-002    -4.7393879892113604E-019
  -1.6250000000000001E-002    -4.5774463363118683E-019
  -1.6199999999999999E-002    -3.2722868368748304E-019
  -1.6150000000000001E-002    -9.6122900564631308E-020
  -1.6100000000000000E-002     1.9534504493909248E-019
  -1.6049999999999998E-002     4.8644333050149993E-019
  -1.6000000000000000E-002     7.0760865684457661E-019
  -1.5949999999999999E-002     7.9568363666429334E-019
  -1.5900000000000001E-002     7.0957660551567434E-019
  -1.5850000000000000E-002     4.4281766182720988E-019
  -1.5799999999999998E-002     2.9850167603712789E-020
  -1.5750000000000000E-002    -4.5604809998953509E-019
  -1.5699999999999999E-002    -9.1376148132857240E-019
  -1.5650000000000001E-002    -1.2330119237867532E-018
  -1.5599999999999999E-002    -1.3177637473587190E-018
  -1.5550000000000001E-002    -1.1100653538595467E-018
  -1.5500000000000000E-002    -6.0931239770550459E-019
  -1.5449999999999998E-002     1.1796415127645770E-019
  -1.5400000000000000E-002     9.4159869346308531E-019
  -1.5349999999999999E-002     1.6863034610777865E-018
  -1.5300000000000001E-002     2.1639835287627404E-018
  -1.5250000000000000E-002     2.2152594001375901E-018
  -1.5199999999999998E-002     1.7524085655612304E-018
  -1.5150000000000000E-002     7.9379898621945613E-019
  -1.5099999999999999E-002    -5.2035208933107679E-019
  -1.5050000000000001E-002    -1.9387523426163901E-018
  -1.4999999999999999E-002    -3.1392616381294873E-018
  -1.4949999999999998E-002    -3.7945741147952240E-018
  -1.4900000000000000E-002    -3.6518620317293198E-018
  -1.4849999999999999E-002    -2.6087906682883286E-018
  -1.4800000000000001E-002    -7.6567541113062524E-019
  -1.4749999999999999E-002     1.5641335701827363E-018
  -1.4700000000000001E-002     3.8958812188297388E-018
  -1.4650000000000000E-002     5.6653921756247951E-018
  -1.4599999999999998E-002     6.3561686754108221E-018
  -1.4550000000000000E-002     5.6346179212926186E-018
  -1.4499999999999999E-002     3.4600812834565294E-018
  -1.4450000000000001E-002     1.3797501831922014E-019
  -1.4400000000000000E-002    -3.7053850513874462E-018
  -1.4349999999999998E-002    -7.2304408141837719E-018
  -1.4300000000000000E-002    -9.5582879063097027E-018
  -1.4249999999999999E-002    -9.9760211777859108E-018
  -1.4200000000000001E-002    -8.1271543717576445E-018
  -1.4149999999999999E-002    -4.1396458725306563E-018
  -1.4099999999999998E-002     1.3454664967538509E-018
  -1.4050000000000000E-002     7.2615375919512022E-018
  -1.3999999999999999E-002     1.2311010486986666E-017
  -1.3950000000000001E-002     1.5233230916253055E-017
  -1.3899999999999999E-002     1.5092275499321848E-017
  -1.3850000000000001E-002     1.1523280157850576E-017
  -1.3800000000000000E-002     4.8800359636894470E-018
  -1.3749999999999998E-002    -3.7571563610919923E-018
  -1.3700000000000000E-002    -1.2729000984152254E-017
  -1.3649999999999999E-002    -2.0085734847681992E-017
  -1.3600000000000001E-002    -2.3972829839263921E-017
  -1.3550000000000000E-002    -2.3046018211873229E-017
  -1.3499999999999998E-002    -1.6833687935373165E-017
  -1.3450000000000000E-002    -5.9639412337405550E-018
  -1.3399999999999999E-002     7.8115738856777581E-018
  -1.3350000000000001E-002     2.1834357988467014E-017
  -1.3299999999999999E-002     3.2989539238907033E-017
  -1.3249999999999998E-002     3.8331567080794274E-017
  -1.3200000000000000E-002     3.5776461871395345E-017
  -1.3149999999999998E-002     2.4715181618164678E-017
  -1.3100000000000001E-002     6.3920306827346298E-018
  -1.3049999999999999E-002    -1.6083662680836003E-017
  -1.3000000000000001E-002    -3.8161906140729245E-017
  -1.2950000000000000E-002    -5.4688763983451911E-017
  -1.2899999999999998E-002    -6.1025229029387143E-017
  -1.2850000000000000E-002    -5.4223819151770920E-017
  -1.2799999999999999E-002    -3.3983931403494824E-017