  -4.0000000000000001E-002     0.0000000000000000     
  -3.9949999999999999E-002     0.0000000000000000     
  -3.9899999999999998E-002     0.0000000000000000     
  -3.9850000000000003E-002     0.0000000000000000     
  -3.9800000000000002E-002     0.0000000000000000     
  -3.9750000000000001E-002     0.0000000000000000     
  -3.9699999999999999E-002     0.0000000000000000     
  -3.9649999999999998E-002     0.0000000000000000     
  -3.9600000000000003E-002     0.0000000000000000     
  -3.9550000000000002E-002     0.0000000000000000     
  -3.9500000000000000E-002     0.0000000000000000     
  -3.9449999999999999E-002     0.0000000000000000     
  -3.9399999999999998E-002     0.0000000000000000     
  -3.9350000000000003E-002     0.0000000000000000     
  -3.9300000000000002E-002     0.0000000000000000     
  -3.9250000000000000E-002     0.0000000000000000     
  -3.9199999999999999E-002     0.0000000000000000     
  -3.9150000000000004E-002     0.0000000000000000     
  -3.9100000000000003E-002     0.0000000000000000     
  -3.9050000000000001E-002     0.0000000000000000     
  -3.9000000000000000E-002     0.0000000000000000     
  -3.8949999999999999E-002     0.0000000000000000     
  -3.8900000000000004E-002    -2.4755382963068949E-039
  -3.8850000000000003E-002    -1.3762278367069662E-038
  -3.8800000000000001E-002    -5.3266838508363511E-038
  -3.8750000000000000E-002    -1.4234810359101676E-037
  -3.8699999999999998E-002    -2.7825565849059908E-037
  -3.8650000000000004E-002    -1.5072684173664581E-037
  -3.8600000000000002E-002     1.5986732375146570E-036
  -3.8550000000000001E-002     8.6013411552796888E-036
  -3.8500000000000000E-002     2.7302365755912417E-035
  -3.8449999999999998E-002     6.2268938801942122E-035
  -3.8400000000000004E-002     9.6687090917620276E-035
  -3.8350000000000002E-002     4.6866052529304881E-035
  -3.8300000000000001E-002    -3.0409121901457184E-034
  -3.8249999999999999E-002    -1.3316093653016372E-033
  -3.8199999999999998E-002    -3.3837785643325138E-033
  -3.8150000000000003E-002    -6.1018593083304832E-033
  -3.8100000000000002E-002    -7.0201625025475875E-033
  -3.8050000000000000E-002     2.4429935617778075E-034
  -3.7999999999999999E-002     2.6579426204350740E-032
  -3.7949999999999998E-002     8.3160776199575681E-032
  -3.7900000000000003E-002     1.6758977130563143E-031
  -3.7850000000000002E-002     2.3793354892915069E-031
  -3.7800000000000000E-002     1.8207759247291961E-031
  -3.7749999999999999E-002    -1.9123145390759889E-031
  -3.7699999999999997E-002    -1.0913199467707648E-030
  -3.7650000000000003E-002    -2.5603736420737981E-030
  -3.7600000000000001E-002    -4.1513870622528786E-030
  -3.7550000000000000E-002    -4.5727724381131976E-030
  -3.7499999999999999E-002    -1.5852879228564949E-030
  -3.7449999999999997E-002     7.3990827047172135E-030
  -3.7400000000000003E-002     2.3595193769058202E-029
  -3.7350000000000001E-002     4.4011357229916274E-029
  -3.7300000000000000E-002     5.8455395230792837E-029
  -3.7249999999999998E-002     4.8561110610005112E-029
  -3.7200000000000004E-002    -8.1479121806457550E-030
  -3.7150000000000002E-002    -1.2676052332541161E-028
  -3.7100000000000001E-002    -2.9667638193915836E-028
  -3.7050000000000000E-002    -4.6256813731248994E-028
  -3.6999999999999998E-002    -5.1674693477348479E-028
  -3.6950000000000004E-002    -3.1806379211144153E-028
  -3.6900000000000002E-002     2.5215248780328879E-028
  -3.6850000000000001E-002     1.2016871558632778E-027
  -3.6799999999999999E-002     2.3345439239290843E-027
  -3.6749999999999998E-002     3.2043220191309394E-027
  -3.6700000000000003E-002     3.1721350990187114E-027
  -3.6650000000000002E-002     1.6051265891591723E-027
  -3.6600000000000001E-002    -1.8052721609840927E-027
  -3.6549999999999999E-002    -6.7043103425568408E-027
  -3.6499999999999998E-002    -1.1878007609772955E-026
  -3.6450000000000003E-002    -1.5369754737936533E-026
  -3.6400000000000002E-002    -1.4989614979199437E-026
  -3.6350000000000000E-002    -9.1176161630730007E-027
  -3.6299999999999999E-002     2.5001687704835906E-027
  -3.6249999999999998E-002     1.8369660169924631E-026
  -3.6200000000000003E-002     3.5572961822069084E-026
  -3.6150000000000002E-002     5.0715636349315968E-026
  -3.6100000000000000E-002     6.0909912841210233E-026
  -3.6049999999999999E-002     6.3894160871506710E-026
  -3.6000000000000004E-002     5.6664609227118881E-026
  -3.5950000000000003E-002     3.3062722803217264E-026
  -3.5900000000000001E-002    -1.7672700346171247E-026
  -3.5850000000000000E-002    -1.0825610500853464E-025
  -3.5799999999999998E-002    -2.4411673113291562E-025
  -3.5750000000000004E-002    -4.0840743774881631E-025
  -3.5700000000000003E-002    -5.4760529243228513E-025
  -3.5650000000000001E-002    -5.6914621375385196E-025
  -3.5600000000000000E-002    -3.6305770713253311E-025
  -3.5549999999999998E-002     1.4815642120368075E-025
  -3.5500000000000004E-002     9.4309629688965015E-025
  -3.5450000000000002E-002     1.8485833123288356E-024
  -3.5400000000000001E-002     2.5398846563603718E-024
  -3.5349999999999999E-002     2.6227212831099124E-024
  -3.5299999999999998E-002     1.7906439762093037E-024
  -3.5250000000000004E-002     2.9788518762669610E-027
  -3.5200000000000002E-002    -2.4074733657777382E-024
  -3.5150000000000001E-002    -4.7817005240871726E-024
  -3.5099999999999999E-002    -6.3583596012615522E-024
  -3.5049999999999998E-002    -6.5937920320590909E-024
  -3.5000000000000003E-002    -5.4096938466055389E-024
  -3.4950000000000002E-002    -3.1934414526019045E-024
  -3.4900000000000000E-002    -4.9034843131568936E-025
  -3.4849999999999999E-002     2.4673952396106733E-024
  -3.4799999999999998E-002     6.0630856511236413E-024
  -3.4750000000000003E-002     1.1074816407510243E-023
  -3.4700000000000002E-002     1.7815737513692391E-023
  -3.4650000000000000E-002     2.4969969149154708E-023
  -3.4599999999999999E-002     2.8897122937753219E-023
  -3.4549999999999997E-002     2.4280487721285789E-023
  -3.4500000000000003E-002     6.5185721125723577E-024
  -3.4450000000000001E-002    -2.4746638456641826E-023
  -3.4400000000000000E-002    -6.2676241791561418E-023
  -3.4349999999999999E-002    -9.3075994470182968E-023
  -3.4299999999999997E-002    -9.8555070636991482E-023
  -3.4250000000000003E-002    -6.6534425157091522E-023
  -3.4200000000000001E-002     1.9348175277547709E-024
  -3.4150000000000000E-002     8.7362773135270389E-023
  -3.4099999999999998E-002     1.5540627739890309E-022
  -3.4049999999999997E-002     1.6997908805950759E-022
  -3.4000000000000002E-002     1.1185280727863899E-022
  -3.3950000000000001E-002    -5.9493869702042589E-024
  -3.3900000000000000E-002    -1.3583856018908943E-022
  -3.3849999999999998E-002    -2.1203547357671416E-022
  -3.3799999999999997E-002    -1.8218381166885015E-022
  -3.3750000000000002E-002    -4.0632980898198754E-023
  -3.3700000000000001E-002     1.5568234283377507E-022
  -3.3649999999999999E-002     3.0384087344530949E-022
  -3.3599999999999998E-002     3.0467903525982658E-022
  -3.3550000000000003E-002     1.2647744927781659E-022
  -3.3500000000000002E-002    -1.5202171793768513E-022
  -3.3450000000000001E-002    -3.5405157414660327E-022
  -3.3399999999999999E-002    -2.8680362625313145E-022
  -3.3349999999999998E-002     1.3000948110189441E-022
  -3.3300000000000003E-002     7.4973472414853354E-022
  -3.3250000000000002E-002     1.1760669174525371E-021
  -3.3200000000000000E-002     8.8798802330640659E-022
  -3.3149999999999999E-002    -4.9401487745836099E-022
  -3.3099999999999997E-002    -2.8903002048955774E-021
  -3.3050000000000003E-002    -5.5495084941257069E-021
  -3.3000000000000002E-002    -7.1053183442682539E-021
  -3.2950000000000000E-002    -5.9903917316272040E-021
  -3.2899999999999999E-002    -1.1450254861519579E-021
  -3.2850000000000004E-002     7.2146806599807091E-021
  -3.2800000000000003E-002     1.7120333750398119E-020
  -3.2750000000000001E-002     2.5001977439130586E-020
  -3.2700000000000000E-002     2.6621192895238300E-020
  -3.2649999999999998E-002     1.8633793137931489E-020
  -3.2600000000000004E-002     3.0143108852057089E-022
  -3.2550000000000003E-002    -2.5332091725830237E-020
  -3.2500000000000001E-002    -5.1440337630830941E-020
  -3.2450000000000000E-002    -6.8900260618878022E-020
  -3.2399999999999998E-002    -6.9040273787675422E-020
  -3.2350000000000004E-002    -4.6872985424796234E-020
  -3.2300000000000002E-002    -3.6948749572835727E-021
  -3.2250000000000001E-002     5.2014964044397350E-020
  -3.2199999999999999E-002     1.0598810889908428E-019
  -3.2149999999999998E-002     1.4167912960281769E-019
  -3.2100000000000004E-002     1.4495241254795893E-019
  -3.2050000000000002E-002     1.0852850368368883E-019
  -3.2000000000000001E-002     3.4811185342114065E-020
  -3.1949999999999999E-002    -6.3743398817868306E-020
  -3.1899999999999998E-002    -1.6673737012125920E-019
  -3.1850000000000003E-002    -2.4970675728769916E-019
  -3.1800000000000002E-002    -2.8871584232840367E-019
  -3.1750000000000000E-002    -2.6481096629143961E-019
  -3.1699999999999999E-002    -1.6800436605421341E-019
  -3.1649999999999998E-002    -9.2094712965455259E-022
  -3.1600000000000003E-002     2.1779855573684946E-019
  -3.1550000000000002E-002     4.5097509037317297E-019
  -3.1500000000000000E-002     6.4305896698238287E-019
  -3.1449999999999999E-002     7.2569398024945607E-019
  -3.1399999999999997E-002     6.3111350730139225E-019
  -3.1350000000000003E-002     3.1370802079343983E-019
  -3.1300000000000001E-002    -2.2372824599349939E-019
  -3.1250000000000000E-002    -9.0702829886714621E-019
  -3.1199999999999999E-002    -1.5820752942322834E-018
  -3.1150000000000001E-002    -2.0313984664058805E-018
  -3.1100000000000003E-002    -2.0214696855601067E-018
  -3.1050000000000001E-002    -1.3762818732640699E-018
  -3.1000000000000000E-002    -6.0547048839014159E-020
  -3.0949999999999998E-002     1.7544489981449578E-018
  -3.0900000000000000E-002     3.6727639018366142E-018
  -3.0850000000000002E-002     5.1269181344444475E-018
  -3.0800000000000001E-002     5.5075088264665225E-018
  -3.0750000000000000E-002     4.3488629087275818E-018
  -3.0699999999999998E-002     1.5243461770408062E-018
  -3.0650000000000000E-002    -2.6117809491620595E-018
  -3.0600000000000002E-002    -7.1981496261808609E-018
  -3.0550000000000001E-002    -1.0995267720476277E-017
  -3.0499999999999999E-002    -1.2667750634978372E-017
  -3.0449999999999998E-002    -1.1167279417236569E-017
  -3.0400000000000000E-002    -6.1194328369713299E-018
  -3.0350000000000002E-002     1.9047812006736735E-018
  -3.0300000000000001E-002     1.1340593167163088E-017
  -3.0249999999999999E-002     1.9864917295519414E-017
  -3.0200000000000001E-002     2.4901688652584454E-017
  -3.0150000000000000E-002     2.4300236389007475E-017
  -3.0100000000000002E-002     1.7022575172932469E-017
  -3.0050000000000000E-002     3.6461780295833962E-018
  -2.9999999999999999E-002    -1.3488918078189945E-017
  -2.9950000000000001E-002    -3.0586167170533273E-017
  -2.9899999999999999E-002    -4.3139432550460129E-017
  -2.9850000000000002E-002    -4.6989127203680262E-017
  -2.9800000000000000E-002    -3.9458224486505320E-017
  -2.9749999999999999E-002    -2.0290176653333313E-017
  -2.9700000000000001E-002     7.8728456208518902E-018
  -2.9650000000000003E-002     3.9651916571963768E-017
  -2.9600000000000001E-002     6.7783071873266062E-017
  -2.9550000000000000E-002     8.4555079391318363E-017
  -2.9499999999999998E-002     8.3585378863603994E-017
  -2.9450000000000000E-002     6.1581353426446934E-017
  -2.9400000000000003E-002     1.9689794515858232E-017
  -2.9350000000000001E-002    -3.5932534142033510E-017
  -2.9300000000000000E-002    -9.4590033170968422E-017
  -2.9249999999999998E-002    -1.4265139436203315E-016
  -2.9200000000000000E-002    -1.6615415337965928E-016
  -2.9150000000000002E-002    -1.5403766979075224E-016
  -2.9100000000000001E-002    -1.0140853927162771E-016
  -2.9049999999999999E-002    -1.2090693633856269E-017
  -2.8999999999999998E-002     1.0031358344132548E-016
  -2.8950000000000000E-002     2.1347612714082648E-016
  -2.8900000000000002E-002     2.9978569884265376E-016
  -2.8850000000000001E-002     3.3193570548753735E-016
  -2.8799999999999999E-002     2.8979639022685180E-016
  -2.8749999999999998E-002     1.6714150779091407E-016
  -2.8700000000000000E-002    -2.3547881204462580E-017
  -2.8650000000000002E-002    -2.4993983442337789E-016
  -2.8600000000000000E-002    -4.6356911283297969E-016
  -2.8549999999999999E-002    -6.0860575264538827E-016
  -2.8500000000000001E-002    -6.3453252516475519E-016
  -2.8450000000000000E-002    -5.1024804581611695E-016
  -2.8400000000000002E-002    -2.3614598189484866E-016
  -2.8350000000000000E-002     1.4949919368045305E-016
  -2.8299999999999999E-002     5.7274208643615720E-016
  -2.8250000000000001E-002     9.3593042658595686E-016
  -2.8200000000000003E-002     1.1381523310718404E-015
  -2.8150000000000001E-002     1.1003479596567708E-015
  -2.8100000000000000E-002     7.8929772388316469E-016
  -2.8049999999999999E-002     2.3398352839867869E-016
  -2.8000000000000001E-002    -4.7123791385046521E-016
  -2.7950000000000003E-002    -1.1795977753254119E-015
  -2.7900000000000001E-002    -1.7201575217140681E-015
  -2.7850000000000000E-002    -1.9363540625127066E-015
  -2.7799999999999998E-002    -1.7265211263990828E-015
  -2.7750000000000000E-002    -1.0764801353729305E-015
  -2.7700000000000002E-002    -7.5089335395261049E-017
  -2.7650000000000001E-002     1.0931256087155393E-015
  -2.7600000000000000E-002     2.1791220966259333E-015
  -2.7549999999999998E-002     2.9194416528253287E-015
  -2.7500000000000000E-002     3.0954483883861907E-015
  -2.7450000000000002E-002     2.5889082874683079E-015
  -2.7400000000000001E-002     1.4208905363206518E-015
  -2.7349999999999999E-002    -2.3627123669774361E-016
  -2.7299999999999998E-002    -2.0790682265666868E-015
  -2.7250000000000000E-002    -3.7235713581651565E-015
  -2.7200000000000002E-002    -4.7789572390506891E-015
  -2.7150000000000001E-002    -4.9307002815714545E-015
  -2.7099999999999999E-002    -4.0173796376026011E-015
  -2.7049999999999998E-002    -2.0849097133786110E-015
  -2.7000000000000000E-002     5.9523429056484278E-016
  -2.6950000000000002E-002     3.5518666690349830E-015
  -2.6900000000000000E-002     6.1847766437357582E-015
  -2.6849999999999999E-002     7.8725748115001460E-015
  -2.6800000000000001E-002     8.1016453258048569E-015
  -2.6749999999999999E-002     6.5932473726141723E-015
  -2.6700000000000002E-002     3.4018732372754074E-015
  -2.6650000000000000E-002    -1.0412509902225313E-015
  -2.6599999999999999E-002    -5.9592042369905717E-015
  -2.6550000000000001E-002    -1.0342286690335361E-014
  -2.6500000000000003E-002    -1.3133191301011124E-014
  -2.6450000000000001E-002    -1.3456142428429311E-014
  -2.6400000000000000E-002    -1.0845476246601024E-014
  -2.6349999999999998E-002    -5.4202947191220021E-015
  -2.6300000000000000E-002     2.0458460469036861E-015
  -2.6250000000000002E-002     1.0195522433430600E-014
  -2.6200000000000001E-002     1.7305904617238646E-014
  -2.6150000000000000E-002     2.1627791574641402E-014
  -2.6099999999999998E-002     2.1783646682954697E-014
  -2.6050000000000000E-002     1.7138522645967137E-014
  -2.6000000000000002E-002     8.0511701655501273E-015
  -2.5950000000000001E-002    -4.0716415864792646E-015
  -2.5899999999999999E-002    -1.6957078200281390E-014
  -2.5849999999999998E-002    -2.7871639299099844E-014
  -2.5800000000000000E-002    -3.4181505497791703E-014
  -2.5750000000000002E-002    -3.3954254739136807E-014
  -2.5700000000000001E-002    -2.6466450728765060E-014
  -2.5649999999999999E-002    -1.2490563995185631E-014
  -2.5599999999999998E-002     5.7248953373807945E-015
  -2.5550000000000000E-002     2.4803947162154021E-014
  -2.5500000000000002E-002     4.0868422744543836E-014
  -2.5450000000000000E-002     5.0321620423684689E-014
  -2.5399999999999999E-002     5.0629351678936866E-014
  -2.5349999999999998E-002     4.0929413404687519E-014
  -2.5300000000000000E-002     2.2329814062660080E-014
  -2.5250000000000002E-002    -2.1832755765763297E-015
  -2.5200000000000000E-002    -2.8227929397815168E-014
  -2.5149999999999999E-002    -5.0819339764416394E-014
  -2.5100000000000001E-002    -6.5328464682567272E-014
  -2.5049999999999999E-002    -6.8424995670463476E-014
  -2.5000000000000001E-002    -5.8820475622823625E-014
  -2.4950000000000000E-002    -3.7658458731143487E-014
  -2.4899999999999999E-002    -8.4566343216740917E-015
  -2.4850000000000001E-002     2.3418331060817509E-014
  -2.4800000000000003E-002     5.1680878439393978E-014
  -2.4750000000000001E-002     7.0322472352034272E-014
  -2.4700000000000000E-002     7.4873826209679247E-014
  -2.4649999999999998E-002     6.3498577138366157E-014
  -2.4600000000000000E-002     3.7683376646394085E-014
  -2.4550000000000002E-002     2.3298358308290494E-015
  -2.4500000000000001E-002    -3.4861856096979136E-014
  -2.4450000000000000E-002    -6.4705193617123220E-014
  -2.4399999999999998E-002    -7.8376818751818592E-014
  -2.4350000000000000E-002    -6.9500482945941876E-014
  -2.4299999999999999E-002    -3.6052647090017478E-014
  -2.4250000000000001E-002     1.8363336490907702E-014
  -2.4199999999999999E-002     8.4273680716570244E-014
  -2.4150000000000001E-002     1.4736201231328737E-013
  -2.4100000000000000E-002     1.9076485767841083E-013
  -2.4049999999999998E-002     1.9834119575822426E-013
  -2.4000000000000000E-002     1.5835272114962580E-013
  -2.3949999999999999E-002     6.6809742857435212E-014
  -2.3900000000000001E-002    -7.0295619152014532E-014
  -2.3850000000000000E-002    -2.3650175507771514E-013
  -2.3800000000000002E-002    -4.0645807779630150E-013
  -2.3750000000000000E-002    -5.4947649487366366E-013
  -2.3699999999999999E-002    -6.3451819987655418E-013
  -2.3650000000000001E-002    -6.3572899291334688E-013
  -2.3599999999999999E-002    -5.3746277427479464E-013
  -2.3550000000000001E-002    -3.3779114686067184E-013
  -2.3500000000000000E-002    -4.9778418219231575E-014
  -2.3449999999999999E-002     2.9974639253605616E-013
  -2.3400000000000001E-002     6.7368086151182361E-013
  -2.3349999999999999E-002     1.0297135418890802E-012
  -2.3300000000000001E-002     1.3259879525422264E-012
  -2.3250000000000000E-002     1.5263365839919329E-012
  -2.3199999999999998E-002     1.6042289239180434E-012
  -2.3150000000000000E-002     1.5449217850475422E-012
  -2.3099999999999999E-002     1.3457282847716510E-012
  -2.3050000000000001E-002     1.0147167373758018E-012
  -2.3000000000000000E-002     5.6843704969388366E-013
  -2.2950000000000002E-002     2.9394559873071827E-014
  -2.2900000000000000E-002    -5.7604870426982454E-013
  -2.2849999999999999E-002    -1.2188392221025320E-012
  -2.2800000000000001E-002    -1.8672064776090537E-012
  -2.2749999999999999E-002    -2.4854807920453822E-012
  -2.2700000000000001E-002    -3.0320684023561205E-012
  -2.2650000000000000E-002    -3.4571723712158245E-012
  -2.2599999999999999E-002    -3.7010841409673911E-012
  -2.2550000000000001E-002    -3.6940393122351413E-012
  -2.2499999999999999E-002    -3.3586981819106941E-012
  -2.2450000000000001E-002    -2.6161993436037990E-012
  -2.2400000000000000E-002    -1.3963537145554941E-012
  -2.2349999999999998E-002     3.4805911938694455E-013
  -2.2300000000000000E-002     2.6238166741842615E-012
  -2.2249999999999999E-002     5.3784539427430656E-012
  -2.2200000000000001E-002     8.4828483928968828E-012
  -2.2150000000000000E-002     1.1718361066684750E-011
  -2.2100000000000002E-002     1.4771635011536773E-011
  -2.2050000000000000E-002     1.7239386440713867E-011
  -2.1999999999999999E-002     1.8644163087945431E-011
  -2.1950000000000001E-002     1.8460248046417390E-011
  -2.1899999999999999E-002     1.6147113941545688E-011
  -2.1850000000000001E-002     1.1186354001897201E-011
  -2.1800000000000000E-002     3.1173407040744761E-012
  -2.1749999999999999E-002    -8.4329602742876172E-012
  -2.1700000000000001E-002    -2.3729462697616416E-011
  -2.1649999999999999E-002    -4.2919395416724092E-011
  -2.1600000000000001E-002    -6.6033407587013917E-011
  -2.1550000000000000E-002    -9.2995218468781200E-011
  -2.1499999999999998E-002    -1.2363660883898379E-010
  -2.1450000000000000E-002    -1.5771427287329629E-010
  -2.1399999999999999E-002    -1.9492571461028927E-010
  -2.1350000000000001E-002    -2.3492226087125299E-010
  -2.1299999999999999E-002    -2.7731941295490182E-010
  -2.1250000000000002E-002    -3.2170503881985258E-010
  -2.1200000000000000E-002    -3.6764764240070639E-010
  -2.1149999999999999E-002    -4.1470622946168923E-010
  -2.1100000000000001E-002    -4.6244299487562379E-010
  -2.1049999999999999E-002    -5.1043958292968920E-010
  -2.1000000000000001E-002    -5.5831540069068979E-010
  -2.0950000000000000E-002    -6.0574743216376307E-010
  -2.0899999999999998E-002    -6.5248881509708265E-010
  -2.0850000000000000E-002    -6.9838462968158362E-010
  -2.0799999999999999E-002    -7.4338290575683147E-010
  -2.0750000000000001E-002    -7.8753929136904119E-010
  -2.0700000000000000E-002    -8.3101428456842893E-010
  -2.0649999999999998E-002    -8.7406193834273262E-010
  -2.0600000000000000E-002    -9.1700982482211240E-010
  -2.0549999999999999E-002    -9.6023059016951562E-010
  -2.0500000000000001E-002    -1.0041062857158916E-009
  -2.0449999999999999E-002    -1.0489896461214607E-009
  -2.0400000000000001E-002    -1.0951660704452284E-009
  -2.0350000000000000E-002    -1.1428224336702275E-009
  -2.0299999999999999E-002    -1.1920294207353677E-009
  -2.0250000000000001E-002    -1.2427411537862804E-009
  -2.0199999999999999E-002    -1.2948151580702545E-009
  -2.0150000000000001E-002    -1.3480494876476167E-009
  -2.0100000000000000E-002    -1.4022324107177200E-009
  -2.0049999999999998E-002    -1.4571947571217176E-009
  -2.0000000000000000E-002    -1.5128554383130520E-009
  -1.9949999999999999E-002    -1.5692495525246098E-009
  -1.9900000000000001E-002    -1.6265337367167612E-009
  -1.9850000000000000E-002    -1.6849667526176329E-009
  -1.9799999999999998E-002    -1.7448701521126284E-009
  -1.9750000000000000E-002    -1.8065759769110181E-009
  -1.9699999999999999E-002    -1.8703733547399776E-009
  -1.9650000000000001E-002    -1.9364639131889579E-009
  -1.9599999999999999E-002    -2.0049350993893153E-009
  -1.9550000000000001E-002    -2.0757558670932239E-009
  -1.9500000000000000E-002    -2.1487925286651004E-009
  -1.9449999999999999E-002    -2.2238433217086168E-009
  -1.9400000000000001E-002    -2.3006815785841290E-009
  -1.9349999999999999E-002    -2.3791000462942910E-009
  -1.9300000000000001E-002    -2.4589482437555043E-009
  -1.9250000000000000E-002    -2.5401592607835998E-009
  -1.9199999999999998E-002    -2.6227608827040046E-009
  -1.9150000000000000E-002    -2.7068732962000712E-009
  -1.9099999999999999E-002    -2.7926939182208771E-009
  -1.9050000000000001E-002    -2.8804768242533291E-009
  -1.9000000000000000E-002    -2.9705069681554909E-009
  -1.8949999999999998E-002    -3.0630747443825674E-009
  -1.8900000000000000E-002    -3.1584537914851285E-009
  -1.8849999999999999E-002    -3.2568848729144063E-009
  -1.8800000000000001E-002    -3.3585632910436542E-009
  -1.8749999999999999E-002    -3.4636345162595317E-009
  -1.8700000000000001E-002    -3.5721931568950186E-009
  -1.8650000000000000E-002    -3.6842881141622479E-009
  -1.8599999999999998E-002    -3.7999348447650758E-009
  -1.8550000000000001E-002    -3.9191292764458750E-009
  -1.8499999999999999E-002    -4.0418639156349001E-009
  -1.8450000000000001E-002    -4.1681415196747623E-009
  -1.8400000000000000E-002    -4.2979849159249291E-009
  -1.8349999999999998E-002    -4.4314331867820683E-009
  -1.8300000000000000E-002    -4.5685269886392591E-009
  -1.8249999999999999E-002    -4.7092874073209554E-009
  -1.8200000000000001E-002    -4.8536921397827415E-009
  -1.8149999999999999E-002    -5.0016588454478120E-009
  -1.8100000000000002E-002    -5.1530506683553449E-009
  -1.8050000000000000E-002    -5.3077063022649356E-009
  -1.7999999999999999E-002    -5.4654990255834803E-009
  -1.7950000000000001E-002    -5.6264093237546006E-009
  -1.7899999999999999E-002    -5.7905945859886773E-009
  -1.7850000000000001E-002    -5.9584342916860976E-009
  -1.7800000000000000E-002    -6.1305352945912574E-009
  -1.7749999999999998E-002    -6.3076772987184564E-009
  -1.7700000000000000E-002    -6.4907174479343531E-009
  -1.7649999999999999E-002    -6.6804619067400174E-009
  -1.7600000000000001E-002    -6.8775374950684222E-009
  -1.7550000000000000E-002    -7.0822968620160719E-009
  -1.7499999999999998E-002    -7.2947771760995280E-009
  -1.7450000000000000E-002    -7.5147197523746211E-009
  -1.7399999999999999E-002    -7.7416446090339075E-009
  -1.7350000000000001E-002    -7.9749615415943333E-009
  -1.7299999999999999E-002    -8.2140853307042916E-009
  -1.7250000000000001E-002    -8.4585317563038892E-009
  -1.7200000000000000E-002    -8.7079822529651375E-009
  -1.7149999999999999E-002    -8.9623180720454262E-009
  -1.7100000000000001E-002    -9.2216225631382977E-009
  -1.7049999999999999E-002    -9.4861706774079698E-009
  -1.7000000000000001E-002    -9.7564152830055411E-009
  -1.6950000000000000E-002    -1.0032966158514279E-008
  -1.6899999999999998E-002    -1.0316555522196665E-008
  -1.6850000000000000E-002    -1.0607992312027538E-008
  -1.6799999999999999E-002    -1.0908087004744495E-008
  -1.6750000000000001E-002    -1.1217565381691487E-008
  -1.6700000000000000E-002    -1.1536983885157964E-008
  -1.6649999999999998E-002    -1.1866671570173360E-008
  -1.6600000000000000E-002    -1.2206708698561946E-008
  -1.6549999999999999E-002    -1.2556972913446427E-008
  -1.6500000000000001E-002    -1.2917223201402826E-008
  -1.6449999999999999E-002    -1.3287208619471503E-008
  -1.6400000000000001E-002    -1.3666777119365462E-008
  -1.6350000000000000E-002    -1.4055937405856816E-008
  -1.6299999999999999E-002    -1.4454876468106233E-008
  -1.6250000000000001E-002    -1.4863920637283450E-008
  -1.6199999999999999E-002    -1.5283467016153711E-008
  -1.6150000000000001E-002    -1.5713900547487864E-008
  -1.6100000000000000E-002    -1.6155544228768613E-008
  -1.6049999999999998E-002    -1.6608636149546952E-008
  -1.6000000000000000E-002    -1.7073340320244952E-008
  -1.5949999999999999E-002    -1.7549795755714013E-008
  -1.5900000000000001E-002    -1.8038155390913830E-008
  -1.5850000000000000E-002    -1.8538633687182144E-008
  -1.5799999999999998E-002    -1.9051536695890124E-008
  -1.5750000000000000E-002    -1.9577284185317556E-008
  -1.5699999999999999E-002    -2.0116420065821145E-008
  -1.5650000000000001E-002    -2.0669616371326012E-008
  -1.5599999999999999E-002    -2.1237664278342656E-008
  -1.5550000000000001E-002    -2.1821436030771808E-008
  -1.5500000000000000E-002    -2.2421809011463555E-008
  -1.5449999999999998E-002    -2.3039552400152449E-008
  -1.5400000000000000E-002    -2.3675204404399963E-008
  -1.5349999999999999E-002    -2.4328975891390469E-008
  -1.5300000000000001E-002    -2.5000701785531328E-008
  -1.5250000000000000E-002    -2.5689889272015586E-008
  -1.5199999999999998E-002    -2.6395869064667784E-008
  -1.5150000000000000E-002    -2.7118011032588195E-008
  -1.5099999999999999E-002    -2.7855943595222956E-008
  -1.5050000000000001E-002    -2.8609723496357989E-008
  -1.4999999999999999E-002    -2.9379905930003175E-008
  -1.4949999999999998E-002    -3.0167493687469393E-008
  -1.4900000000000000E-002    -3.0973786293439385E-008
  -1.4849999999999999E-002    -3.1800178106313955E-008
  -1.4800000000000001E-002    -3.2647979918274220E-008
  -1.4749999999999999E-002    -3.3518317043282849E-008
  -1.4700000000000001E-002    -3.4412091264185027E-008
  -1.4650000000000000E-002    -3.5330025324409130E-008
  -1.4599999999999998E-002    -3.6272714796926956E-008
  -1.4550000000000000E-002    -3.7240660871234088E-008
  -1.4499999999999999E-002    -3.8234250268468976E-008
  -1.4450000000000001E-002    -3.9253682645206000E-008
  -1.4400000000000000E-002    -4.0298924475998554E-008
  -1.4349999999999998E-002    -4.1369721791160946E-008
  -1.4300000000000000E-002    -4.2465704458524838E-008
  -1.4249999999999999E-002    -4.3586594753450644E-008
  -1.4200000000000001E-002    -4.4732426827722465E-008
  -1.4149999999999999E-002    -4.5903740919311905E-008
  -1.4099999999999998E-002    -4.7101658249753618E-008
  -1.4050000000000000E-002    -4.8327767490007458E-008
  -1.3999999999999999E-002    -4.9583892106442800E-008
  -1.3950000000000001E-002    -5.0871755047014370E-008
  -1.3899999999999999E-002    -5.2192703354320530E-008
  -1.3850000000000001E-002    -5.3547568295681036E-008
  -1.3800000000000000E-002    -5.4936691658358980E-008
  -1.3749999999999998E-002    -5.6360104369101346E-008
  -1.3700000000000000E-002    -5.7817805860298439E-008
  -1.3649999999999999E-002    -5.9310004827929318E-008
  -1.3600000000000001E-002    -6.0837228547508237E-008
  -1.3550000000000000E-002    -6.2400320104185607E-008
  -1.3499999999999998E-002    -6.4000254249987625E-008
  -1.3450000000000000E-002    -6.5637955533525715E-008
  -1.3399999999999999E-002    -6.7314154427540905E-008
  -1.3350000000000001E-002    -6.9029351795328685E-008
  -1.3299999999999999E-002    -7.0783927507561684E-008
  -1.3249999999999998E-002    -7.2578273455331945E-008
  -1.3200000000000000E-002    -7.4412988785416967E-008
  -1.3149999999999998E-002    -7.6288904541926278E-008
  -1.3100000000000001E-002    -7.8207062328561374E-008
  -1.3049999999999999E-002    -8.0168582122828010E-008
  -1.3000000000000001E-002    -8.2174523935941704E-008
  -1.2950000000000000E-002    -8.4225822219317733E-008
  -1.2899999999999998E-002    -8.6323351458512567E-008
  -1.2850000000000000E-002    -8.8468107606529390E-008
  -1.2799999999999999E-002    -9.0661441582877708E-008