  -4.0000000000000001E-002     0.0000000000000000     
  -3.9949999999999999E-002     0.0000000000000000     
  -3.9899999999999998E-002     0.0000000000000000     
  -3.9850000000000003E-002     0.0000000000000000     
  -3.9800000000000002E-002     0.0000000000000000     
  -3.9750000000000001E-002     0.0000000000000000     
  -3.9699999999999999E-002     0.0000000000000000     
  -3.9649999999999998E-002     0.0000000000000000     
  -3.9600000000000003E-002     0.0000000000000000     
  -3.9550000000000002E-002     0.0000000000000000     
  -3.9500000000000000E-002     0.0000000000000000     
  -3.9449999999999999E-002     0.0000000000000000     
  -3.9399999999999998E-002     0.0000000000000000     
  -3.9350000000000003E-002     0.0000000000000000     
  -3.9300000000000002E-002     0.0000000000000000     
  -3.9250000000000000E-002     0.0000000000000000     
  -3.9199999999999999E-002     0.0000000000000000     
  -3.9150000000000004E-002     0.0000000000000000     
  -3.9100000000000003E-002     0.0000000000000000     
  -3.9050000000000001E-002     0.0000000000000000     
  -3.9000000000000000E-002     0.0000000000000000     
  -3.8949999999999999E-002     0.0000000000000000     
  -3.8900000000000004E-002     0.0000000000000000     
  -3.8850000000000003E-002     0.0000000000000000     
  -3.8800000000000001E-002     0.0000000000000000     
  -3.8750000000000000E-002     0.0000000000000000     
  -3.8699999999999998E-002     0.0000000000000000     
  -3.8650000000000004E-002     0.0000000000000000     
  -3.8600000000000002E-002     0.0000000000000000     
  -3.8550000000000001E-002     0.0000000000000000     
  -3.8500000000000000E-002     0.0000000000000000     
  -3.8449999999999998E-002     0.0000000000000000     
  -3.8400000000000004E-002     0.0000000000000000     
  -3.8350000000000002E-002     0.0000000000000000     
  -3.8300000000000001E-002     0.0000000000000000     
  -3.8249999999999999E-002     0.0000000000000000     
  -3.8199999999999998E-002     0.0000000000000000     
  -3.8150000000000003E-002     0.0000000000000000     
  -3.8100000000000002E-002     0.0000000000000000     
  -3.8050000000000000E-002     0.0000000000000000     
  -3.7999999999999999E-002     0.0000000000000000     
  -3.7949999999999998E-002     0.0000000000000000     
  -3.7900000000000003E-002     0.0000000000000000     
  -3.7850000000000002E-002     0.0000000000000000     
  -3.7800000000000000E-002     0.0000000000000000     
  -3.7749999999999999E-002     0.0000000000000000     
  -3.7699999999999997E-002     0.0000000000000000     
  -3.7650000000000003E-002     0.0000000000000000     
  -3.7600000000000001E-002     0.0000000000000000     
  -3.7550000000000000E-002     0.0000000000000000     
  -3.7499999999999999E-002     0.0000000000000000     
  -3.7449999999999997E-002     0.0000000000000000     
  -3.7400000000000003E-002     0.0000000000000000     
  -3.7350000000000001E-002     0.0000000000000000     
  -3.7300000000000000E-002     0.0000000000000000     
  -3.7249999999999998E-002     0.0000000000000000     
  -3.7200000000000004E-002     0.0000000000000000     
  -3.7150000000000002E-002     0.0000000000000000     
  -3.7100000000000001E-002     0.0000000000000000     
  -3.7050000000000000E-002     0.0000000000000000     
  -3.6999999999999998E-002     0.0000000000000000     
  -3.6950000000000004E-002     0.0000000000000000     
  -3.6900000000000002E-002     0.0000000000000000     
  -3.6850000000000001E-002     0.0000000000000000     
  -3.6799999999999999E-002     0.0000000000000000     
  -3.6749999999999998E-002     0.0000000000000000     
  -3.6700000000000003E-002     0.0000000000000000     
  -3.6650000000000002E-002     0.0000000000000000     
  -3.6600000000000001E-002     0.0000000000000000     
  -3.6549999999999999E-002     0.0000000000000000     
  -3.6499999999999998E-002     0.0000000000000000     
  -3.6450000000000003E-002     0.0000000000000000     
  -3.6400000000000002E-002     0.0000000000000000     
  -3.6350000000000000E-002     0.0000000000000000     
  -3.6299999999999999E-002     0.0000000000000000     
  -3.6249999999999998E-002     0.0000000000000000     
  -3.6200000000000003E-002     0.0000000000000000     
  -3.6150000000000002E-002     0.0000000000000000     
  -3.6100000000000000E-002     0.0000000000000000     
  -3.6049999999999999E-002     0.0000000000000000     
  -3.6000000000000004E-002     0.0000000000000000     
  -3.5950000000000003E-002     0.0000000000000000     
  -3.5900000000000001E-002     0.0000000000000000     
  -3.5850000000000000E-002     0.0000000000000000     
  -3.5799999999999998E-002     0.0000000000000000     
  -3.5750000000000004E-002     0.0000000000000000     
  -3.5700000000000003E-002     0.0000000000000000     
  -3.5650000000000001E-002     0.0000000000000000     
  -3.5600000000000000E-002     0.0000000000000000     
  -3.5549999999999998E-002     0.0000000000000000     
  -3.5500000000000004E-002     0.0000000000000000     
  -3.5450000000000002E-002     0.0000000000000000     
  -3.5400000000000001E-002     0.0000000000000000     
  -3.5349999999999999E-002     0.0000000000000000     
  -3.5299999999999998E-002     0.0000000000000000     
  -3.5250000000000004E-002     0.0000000000000000     
  -3.5200000000000002E-002     0.0000000000000000     
  -3.5150000000000001E-002     0.0000000000000000     
  -3.5099999999999999E-002     0.0000000000000000     
  -3.5049999999999998E-002     0.0000000000000000     
  -3.5000000000000003E-002     0.0000000000000000     
  -3.4950000000000002E-002     0.0000000000000000     
  -3.4900000000000000E-002     0.0000000000000000     
  -3.4849999999999999E-002     0.0000000000000000     
  -3.4799999999999998E-002     0.0000000000000000     
  -3.4750000000000003E-002     0.0000000000000000     
  -3.4700000000000002E-002     0.0000000000000000     
  -3.4650000000000000E-002     0.0000000000000000     
  -3.4599999999999999E-002     0.0000000000000000     
  -3.4549999999999997E-002     0.0000000000000000     
  -3.4500000000000003E-002     0.0000000000000000     
  -3.4450000000000001E-002     0.0000000000000000     
  -3.4400000000000000E-002     0.0000000000000000     
  -3.4349999999999999E-002     0.0000000000000000     
  -3.4299999999999997E-002     0.0000000000000000     
  -3.4250000000000003E-002     0.0000000000000000     
  -3.4200000000000001E-002     0.0000000000000000     
  -3.4150000000000000E-002     0.0000000000000000     
  -3.4099999999999998E-002     0.0000000000000000     
  -3.4049999999999997E-002     0.0000000000000000     
  -3.4000000000000002E-002     0.0000000000000000     
  -3.3950000000000001E-002     0.0000000000000000     
  -3.3900000000000000E-002     0.0000000000000000     
  -3.3849999999999998E-002     0.0000000000000000     
  -3.3799999999999997E-002     0.0000000000000000     
  -3.3750000000000002E-002     0.0000000000000000     
  -3.3700000000000001E-002    -1.6304266448198549E-039
  -3.3649999999999999E-002    -3.9845287694955699E-039
  -3.3599999999999998E-002    -5.6225586911009954E-039
  -3.3550000000000003E-002    -1.6451637316748857E-039
  -3.3500000000000002E-002     7.8729878077774162E-039
  -3.3450000000000001E-002     2.1139443561152555E-038
  -3.3399999999999999E-002     3.3813566934927438E-038
  -3.3349999999999998E-002     3.6428017220116074E-038
  -3.3300000000000003E-002    -8.4003895250501260E-039
  -3.3250000000000002E-002    -8.4356768289023587E-038
  -3.3200000000000000E-002    -1.8932629979498210E-037
  -3.3149999999999999E-002    -2.7685755199139057E-037
  -3.3099999999999997E-002    -2.8830328226707586E-037
  -3.3050000000000003E-002    -1.6200058509468489E-037
  -3.3000000000000002E-002     1.3396864833659696E-037
  -3.2950000000000000E-002     5.8464610773982139E-037
  -3.2899999999999999E-002     1.1166301468277126E-036
  -3.2850000000000004E-002     1.5696925428990989E-036
  -3.2800000000000003E-002     1.6952665730126402E-036
  -3.2750000000000001E-002     1.1755495618877891E-036
  -3.2700000000000000E-002    -2.8489948716838457E-037
  -3.2649999999999998E-002    -2.7805763073983310E-036
  -3.2600000000000004E-002    -5.9759034595240516E-036
  -3.2550000000000003E-002    -8.8953164316848430E-036
  -3.2500000000000001E-002    -9.8911436673099927E-036
  -3.2450000000000000E-002    -6.9636255153565414E-036
  -3.2399999999999998E-002     1.4552201240811206E-036
  -3.2350000000000004E-002     1.5329038127689051E-035
  -3.2300000000000002E-002     3.1830230625749839E-035
  -3.2250000000000001E-002     4.4801542787481961E-035
  -3.2199999999999999E-002     4.5630475961551777E-035
  -3.2149999999999998E-002     2.6016512634263430E-035
  -3.2100000000000004E-002    -1.7648804750849654E-035
  -3.2050000000000002E-002    -7.9644907399526468E-035
  -3.2000000000000001E-002    -1.4233395197251960E-034
  -3.1949999999999999E-002    -1.7810944052778365E-034
  -3.1899999999999998E-002    -1.5723257630071778E-034
  -3.1850000000000003E-002    -6.0431563351094264E-035
  -3.1800000000000002E-002     1.0787013625562789E-034
  -3.1750000000000000E-002     3.1187723726201040E-034
  -3.1699999999999999E-002     4.8788010456399299E-034
  -3.1649999999999998E-002     5.6050901062067485E-034
  -3.1600000000000003E-002     4.6733904695250071E-034
  -3.1550000000000002E-002     1.8223186365788467E-034
  -3.1500000000000000E-002    -2.7264526271724004E-034
  -3.1449999999999999E-002    -8.2992760658214715E-034
  -3.1399999999999997E-002    -1.3884505548758429E-033
  -3.1350000000000003E-002    -1.8182470575254729E-033
  -3.1300000000000001E-002    -1.9484436231190358E-033
  -3.1250000000000000E-002    -1.5477344676619043E-033
  -3.1199999999999999E-002    -3.3693075937811257E-034
  -3.1150000000000001E-002     1.9085773523765353E-033
  -3.1100000000000003E-002     5.1296800473247379E-033
  -3.1050000000000001E-002     8.6688358252380123E-033
  -3.1000000000000000E-002     1.1030692762116486E-032
  -3.0949999999999998E-002     9.9808329417504068E-033
  -3.0900000000000000E-002     3.2367982040816927E-033
  -3.0850000000000002E-002    -1.0194951623042183E-032
  -3.0800000000000001E-002    -2.8378436952352061E-032
  -3.0750000000000000E-002    -4.5308628274688047E-032
  -3.0699999999999998E-002    -5.1344776949782528E-032
  -3.0650000000000000E-002    -3.6055721774458187E-032
  -3.0600000000000002E-002     6.5906391834119377E-033
  -3.0550000000000001E-002     7.2195685958046853E-032
  -3.0499999999999999E-002     1.4195716731486970E-031
  -3.0449999999999998E-002     1.8415789539300859E-031
  -3.0400000000000000E-002     1.6332963292593598E-031
  -3.0350000000000002E-002     5.6220761666008043E-032
  -3.0300000000000001E-002    -1.3047191614141116E-031
  -3.0249999999999999E-002    -3.4904920521922879E-031
  -3.0200000000000001E-002    -5.1521836166836258E-031
  -3.0150000000000000E-002    -5.3244675696168735E-031
  -3.0100000000000002E-002    -3.3216660597081216E-031
  -3.0050000000000000E-002     8.4132004547272325E-032
  -2.9999999999999999E-002     6.2107962750692721E-031
  -2.9950000000000001E-002     1.1017039730535726E-030
  -2.9899999999999999E-002     1.3209030837566717E-030
  -2.9850000000000002E-002     1.1255287206527260E-030
  -2.9800000000000000E-002     4.8862244837910239E-031
  -2.9749999999999999E-002    -4.5982635732516693E-031
  -2.9700000000000001E-002    -1.4685099085043193E-030
  -2.9650000000000003E-002    -2.2574845674538484E-030
  -2.9600000000000001E-002    -2.6230287445257347E-030
  -2.9550000000000000E-002    -2.4926739239018147E-030
  -2.9499999999999998E-002    -1.8879540004193780E-030
  -2.9450000000000000E-002    -8.0987005585530751E-031
  -2.9400000000000003E-002     8.6673017935253614E-031
  -2.9350000000000001E-002     3.3638942241678213E-030
  -2.9300000000000000E-002     6.7477888180591290E-030
  -2.9249999999999998E-002     1.0493977000846581E-029
  -2.9200000000000000E-002     1.3095201905670025E-029
  -2.9150000000000002E-002     1.2073564194150264E-029
  -2.9100000000000001E-002     4.7289308043577874E-030
  -2.9049999999999999E-002    -1.0321424604501039E-029
  -2.8999999999999998E-002    -3.1244307137539592E-029
  -2.8950000000000000E-002    -5.1674959348342718E-029
  -2.8900000000000002E-002    -6.1154672865618747E-029
  -2.8850000000000001E-002    -4.8150004581580720E-029
  -2.8799999999999999E-002    -5.4691960149089882E-030
  -2.8749999999999998E-002     6.3550502383696875E-029
  -2.8700000000000000E-002     1.4097950398919216E-028
  -2.8650000000000002E-002     1.9556091781631051E-028
  -2.8600000000000000E-002     1.9124548388380870E-028
  -2.8549999999999999E-002     1.0208046350679493E-028
  -2.8500000000000001E-002    -7.1091938565359011E-029
  -2.8450000000000000E-002    -2.8949356407918562E-028
  -2.8400000000000002E-002    -4.7843439542037225E-028
  -2.8350000000000000E-002    -5.4664795859341489E-028
  -2.8299999999999999E-002    -4.2029822224968179E-028
  -2.8250000000000001E-002    -8.1121302383991938E-029
  -2.8200000000000003E-002     4.0730068267597014E-028
  -2.8150000000000001E-002     9.0067824719598140E-028
  -2.8100000000000000E-002     1.2101042850896435E-027
  -2.8049999999999999E-002     1.1667434863252836E-027
  -2.8000000000000001E-002     6.9410986200717458E-028
  -2.7950000000000003E-002    -1.4156658336063167E-028
  -2.7900000000000001E-002    -1.1289569004823182E-027
  -2.7850000000000000E-002    -1.9667688719697990E-027
  -2.7799999999999998E-002    -2.3614913603202326E-027
  -2.7750000000000000E-002    -2.1310538075896585E-027
  -2.7700000000000002E-002    -1.2703596883902138E-027
  -2.7650000000000001E-002     5.1405763308377984E-029
  -2.7600000000000000E-002     1.5597104213065997E-027
  -2.7549999999999998E-002     2.9717958918971099E-027
  -2.7500000000000000E-002     4.0641677995957689E-027
  -2.7450000000000002E-002     4.6655843833776108E-027
  -2.7400000000000001E-002     4.5779479994789395E-027
  -2.7349999999999999E-002     3.4898648586659968E-027
  -2.7299999999999998E-002     9.8921254785041811E-028
  -2.7250000000000000E-002    -3.2352865185929424E-027
  -2.7200000000000002E-002    -9.0040866866320229E-027
  -2.7150000000000001E-002    -1.5211143947182108E-026
  -2.7099999999999999E-002    -1.9614399551211035E-026
  -2.7049999999999998E-002    -1.9154232111398501E-026
  -2.7000000000000000E-002    -1.0965145673924214E-026
  -2.6950000000000002E-002     6.0593837851656924E-027
  -2.6900000000000000E-002     2.9672221644740939E-026
  -2.6849999999999999E-002     5.3459302338145777E-026
  -2.6800000000000001E-002     6.7615934643058807E-026
  -2.6749999999999999E-002     6.1702526859442573E-026
  -2.6700000000000002E-002     2.8975020008009607E-026
  -2.6650000000000000E-002    -2.9040962475839202E-026
  -2.6599999999999999E-002    -9.9719793314008544E-026
  -2.6550000000000001E-002    -1.6020786961466369E-025
  -2.6500000000000003E-002    -1.8300873190371286E-025
  -2.6450000000000001E-002    -1.4555119991272503E-025
  -2.6400000000000000E-002    -4.1013507277715455E-026
  -2.6349999999999998E-002     1.1374924748846334E-025
  -2.6300000000000000E-002     2.7736845439487283E-025
  -2.6250000000000002E-002     3.9264501905242789E-025
  -2.6200000000000001E-002     4.0388483515956568E-025
  -2.6150000000000000E-002     2.7822607828572768E-025
  -2.6099999999999998E-002     2.3525425914446548E-026
  -2.6050000000000000E-002    -3.0494962954810984E-025
  -2.6000000000000002E-002    -6.1395577239549405E-025
  -2.5950000000000001E-002    -7.9736190749277185E-025
  -2.5899999999999999E-002    -7.7021108669307196E-025
  -2.5849999999999998E-002    -5.0056114235095831E-025
  -2.5800000000000000E-002    -2.7272694797002227E-026
  -2.5750000000000002E-002     5.4401027359528624E-025
  -2.5700000000000001E-002     1.0667906972170275E-024
  -2.5649999999999999E-002     1.3933719955462213E-024
  -2.5599999999999998E-002     1.4147294277295534E-024
  -2.5550000000000000E-002     1.0874227054234276E-024
  -2.5500000000000002E-002     4.4060397186679861E-025
  -2.5450000000000000E-002    -4.3443476390624993E-025
  -2.5399999999999999E-002    -1.4019752237998022E-024
  -2.5349999999999998E-002    -2.2952377294236995E-024
  -2.5300000000000000E-002    -2.9206534462432323E-024
  -2.5250000000000002E-002    -3.0608119476870649E-024
  -2.5200000000000000E-002    -2.4949803429071179E-024
  -2.5149999999999999E-002    -1.0572458968706287E-024
  -2.5100000000000001E-002     1.2622515697848896E-024
  -2.5049999999999999E-002     4.1962854064265848E-024
  -2.5000000000000001E-002     7.1151276396319646E-024
  -2.4950000000000000E-002     9.0501319518441234E-024
  -2.4899999999999999E-002     8.8860817434176681E-024
  -2.4850000000000001E-002     5.7290296010641873E-024
  -2.4800000000000003E-002    -6.2664016069388818E-025
  -2.4750000000000001E-002    -9.2925833119585592E-024
  -2.4700000000000000E-002    -1.8148233468754066E-023
  -2.4649999999999998E-002    -2.4144777081578127E-023
  -2.4600000000000000E-002    -2.4104234176523980E-023
  -2.4550000000000002E-002    -1.5875375907366624E-023
  -2.4500000000000001E-002     4.9123559274087170E-025
  -2.4450000000000000E-002     2.2010630649377475E-023
  -2.4399999999999998E-002     4.2905858012977167E-023
  -2.4350000000000000E-002     5.5842315921010915E-023
  -2.4299999999999999E-002     5.4104422217352093E-023
  -2.4250000000000001E-002     3.4156450067719464E-023
  -2.4199999999999999E-002    -2.2656120813880102E-024
  -2.4150000000000001E-002    -4.7419668538379621E-023
  -2.4100000000000000E-002    -8.8769034611417442E-023
  -2.4049999999999998E-002    -1.1213686768785718E-022
  -2.4000000000000000E-002    -1.0608751170380395E-022
  -2.3949999999999999E-002    -6.6236222439900547E-023
  -2.3900000000000001E-002     2.0149105670564644E-024
  -2.3850000000000000E-002     8.3501785894919026E-023
  -2.3800000000000002E-002     1.5647632581854910E-022
  -2.3750000000000000E-002     1.9829114806993639E-022
  -2.3699999999999999E-002     1.9202190240123255E-022
  -2.3650000000000001E-002     1.3201090878039715E-022
  -2.3599999999999999E-002     2.6548835766755178E-023
  -2.3550000000000001E-002    -1.0321726509098443E-022
  -2.3500000000000000E-002    -2.2786076577653499E-022
  -2.3449999999999999E-002    -3.1637095972846520E-022
  -2.3400000000000001E-002    -3.4307315854016512E-022
  -2.3349999999999999E-002    -2.9309138116556383E-022
  -2.3300000000000001E-002    -1.6548251572346682E-022
  -2.3250000000000000E-002     2.5860598142536286E-023
  -2.3199999999999998E-002     2.5285092640512645E-022
  -2.3150000000000000E-002     4.7486353384558546E-022
  -2.3099999999999999E-002     6.4171868682720054E-022
  -2.3050000000000001E-002     6.9930443982778579E-022
  -2.3000000000000000E-002     5.9948039777699814E-022
  -2.2950000000000002E-002     3.1485281237975151E-022
  -2.2900000000000000E-002    -1.4357456986150891E-022
  -2.2849999999999999E-002    -7.1124319765919535E-022
  -2.2800000000000001E-002    -1.2653728834907412E-021
  -2.2749999999999999E-002    -1.6388070021265865E-021
  -2.2700000000000001E-002    -1.6565066621730651E-021
  -2.2650000000000000E-002    -1.1911091543052071E-021
  -2.2599999999999999E-002    -2.2437881396305042E-022
  -2.2550000000000001E-002     1.1065374044008960E-021
  -2.2499999999999999E-002     2.5012682423146346E-021
  -2.2450000000000001E-002     3.5434196600999144E-021
  -2.2400000000000000E-002     3.8039444989420491E-021
  -2.2349999999999998E-002     2.9809076978935737E-021
  -2.2300000000000000E-002     1.0363214976135759E-021
  -2.2249999999999999E-002    -1.7193665515366496E-021
  -2.2200000000000001E-002    -4.6387690106347772E-021
  -2.2150000000000000E-002    -6.8651750435372354E-021
  -2.2100000000000002E-002    -7.5599279504094018E-021
  -2.2050000000000000E-002    -6.1744442043769419E-021
  -2.1999999999999999E-002    -2.6846120532712704E-021
  -2.1950000000000001E-002     2.2979129826061176E-021
  -2.1899999999999999E-002     7.5967042291709680E-021
  -2.1850000000000001E-002     1.1731621478510184E-020
  -2.1800000000000000E-002     1.3315567932984852E-020
  -2.1749999999999999E-002     1.1480230147382893E-020
  -2.1700000000000001E-002     6.2013077503248110E-021
  -2.1649999999999999E-002    -1.5881648431652978E-021
  -2.1600000000000001E-002    -1.0150864191315648E-020
  -2.1550000000000000E-002    -1.7339909902308482E-020
  -2.1499999999999998E-002    -2.1135026231169661E-020
  -2.1450000000000000E-002    -2.0174087419288676E-020
  -2.1399999999999999E-002    -1.4134531086726582E-020
  -2.1350000000000001E-002    -3.8656854656824529E-021
  -2.1299999999999999E-002     8.7516422694932250E-021
  -2.1250000000000002E-002     2.1166575534033584E-020
  -2.1200000000000000E-002     3.0640740919664711E-020
  -2.1149999999999999E-002     3.4746210096743595E-020
  -2.1100000000000001E-002     3.1804048822163497E-020
  -2.1049999999999999E-002     2.1233499153366376E-020
  -2.1000000000000001E-002     3.8098829979732095E-021
  -2.0950000000000000E-002    -1.8180997573903049E-020
  -2.0899999999999998E-002    -4.0951437196527399E-020
  -2.0850000000000000E-002    -5.9497949760384921E-020
  -2.0799999999999999E-002    -6.8295116532051962E-020
  -2.0750000000000001E-002    -6.2459509538896375E-020
  -2.0700000000000000E-002    -3.9281309008799482E-020
  -2.0649999999999998E-002     2.0592961201599322E-022
  -2.0600000000000000E-002     5.0150756285388578E-020
  -2.0549999999999999E-002     9.9909352941409931E-020
  -2.0500000000000001E-002     1.3562237392864252E-019
  -2.0449999999999999E-002     1.4339209384640683E-019
  -2.0400000000000001E-002     1.1353281023578198E-019
  -2.0350000000000000E-002     4.4793041427256987E-020
  -2.0299999999999999E-002    -5.2895646727323084E-020
  -2.0250000000000001E-002    -1.5849957109823781E-019
  -2.0199999999999999E-002    -2.4353791923072139E-019
  -2.0150000000000001E-002    -2.7901444184328099E-019
  -2.0100000000000000E-002    -2.4413396273396839E-019
  -2.0049999999999998E-002    -1.3436617046065344E-019
  -2.0000000000000000E-002     3.3885704272943855E-020
  -1.9949999999999999E-002     2.2417374327173980E-019
  -1.9900000000000001E-002     3.8719137618601147E-019
  -1.9850000000000000E-002     4.7307430452836279E-019
  -1.9799999999999998E-002     4.4579787119316830E-019
  -1.9750000000000000E-002     2.9554702075977669E-019
  -1.9699999999999999E-002     4.5032675768431532E-020
  -1.9650000000000001E-002    -2.5285060341130225E-019
  -1.9599999999999999E-002    -5.2622220676666862E-019
  -1.9550000000000001E-002    -7.0177836065372816E-019
  -1.9500000000000000E-002    -7.2413308989928598E-019
  -1.9449999999999999E-002    -5.7157739794057690E-019
  -1.9400000000000001E-002    -2.6376051138333597E-019
  -1.9349999999999999E-002     1.4093679186080439E-019
  -1.9300000000000001E-002     5.5763131980267322E-019
  -1.9250000000000000E-002     8.9344461073432006E-019
  -1.9199999999999998E-002     1.0675057620009292E-018
  -1.9150000000000000E-002     1.0277932925560956E-018
  -1.9099999999999999E-002     7.6166150285874774E-019
  -1.9050000000000001E-002     2.9902919460527606E-019
  -1.9000000000000000E-002    -2.9095879107493466E-019
  -1.8949999999999998E-002    -9.0819602740463894E-019
  -1.8900000000000000E-002    -1.4336091154400410E-018
  -1.8849999999999999E-002    -1.7447446501573428E-018
  -1.8800000000000001E-002    -1.7355215827349129E-018
  -1.8749999999999999E-002    -1.3400849766975424E-018
  -1.8700000000000001E-002    -5.5833171645214411E-019
  -1.8650000000000000E-002     5.2283225282505888E-019
  -1.8599999999999998E-002     1.7214918459639155E-018
  -1.8550000000000001E-002     2.7755287142969456E-018
  -1.8499999999999999E-002     3.3861982295707946E-018
  -1.8450000000000001E-002     3.2884744092835994E-018
  -1.8400000000000000E-002     2.3354545429341961E-018
  -1.8349999999999998E-002     5.7417702428465623E-019
  -1.8300000000000000E-002    -1.7146964442516905E-018
  -1.8249999999999999E-002    -4.0371394748143197E-018
  -1.8200000000000001E-002    -5.7762819820607624E-018
  -1.8149999999999999E-002    -6.3426050210644962E-018
  -1.8100000000000002E-002    -5.3506456844787565E-018
  -1.8050000000000000E-002    -2.7725900895947919E-018
  -1.7999999999999999E-002     9.8407862077803672E-019
  -1.7950000000000001E-002     5.1137419902458916E-018
  -1.7899999999999999E-002     8.5739501960521839E-018
  -1.7850000000000001E-002     1.0342433603921167E-017
  -1.7800000000000000E-002     9.7068651647665505E-018
  -1.7749999999999998E-002     6.5052056059389839E-018
  -1.7700000000000000E-002     1.2391044022122201E-018
  -1.7649999999999999E-002    -4.9873266207100996E-018
  -1.7600000000000001E-002    -1.0702969935556278E-017
  -1.7550000000000000E-002    -1.4426688721746145E-017
  -1.7499999999999998E-002    -1.5053226091530880E-017
  -1.7450000000000000E-002    -1.2161695435813174E-017
  -1.7399999999999999E-002    -6.1585736785517591E-018
  -1.7350000000000001E-002     1.7871843903809308E-018
  -1.7299999999999999E-002     1.0000436239420177E-017
  -1.7250000000000001E-002     1.6677913030714796E-017
  -1.7200000000000000E-002     2.0288098598853970E-017
  -1.7149999999999999E-002     1.9894627806123520E-017
  -1.7100000000000001E-002     1.5335916562355939E-017
  -1.7049999999999999E-002     7.2410159311778688E-018
  -1.7000000000000001E-002    -3.0934407480800888E-018
  -1.6950000000000000E-002    -1.3914501481655911E-017
  -1.6899999999999998E-002    -2.3262056903615394E-017
  -1.6850000000000000E-002    -2.9227046752481025E-017
  -1.6799999999999999E-002    -3.0216618272219237E-017
  -1.6750000000000001E-002    -2.5236820690878031E-017
  -1.6700000000000000E-002    -1.4188866803246907E-017
  -1.6649999999999998E-002     1.8660241522228864E-018
  -1.6600000000000000E-002     2.0568012449871631E-017
  -1.6549999999999999E-002     3.8370894231128332E-017
  -1.6500000000000001E-002     5.1010731651453958E-017
  -1.6449999999999999E-002     5.4354281900028835E-017
  -1.6400000000000001E-002     4.5516695004196113E-017
  -1.6350000000000000E-002     2.3991482494365512E-017
  -1.6299999999999999E-002    -7.5658136900825823E-018
  -1.6250000000000001E-002    -4.3259663785960568E-017
  -1.6199999999999999E-002    -7.4810817301817288E-017
  -1.6150000000000001E-002    -9.3325650185440145E-017
  -1.6100000000000000E-002    -9.1649832264025906E-017
  -1.6049999999999998E-002    -6.6710540656474741E-017
  -1.6000000000000000E-002    -2.1127181079793072E-017
  -1.5949999999999999E-002     3.6537957135315547E-017
  -1.5900000000000001E-002     9.3201732360240175E-017
  -1.5850000000000000E-002     1.3419606811939749E-016
  -1.5799999999999998E-002     1.4706579614791039E-016
  -1.5750000000000000E-002     1.2522283897695217E-016
  -1.5699999999999999E-002     7.0371563274055773E-017
  -1.5650000000000001E-002    -7.1249513566723613E-018
  -1.5599999999999999E-002    -9.0229072433288038E-017
  -1.5550000000000001E-002    -1.5917738674840063E-016
  -1.5500000000000000E-002    -1.9640154954372370E-016
  -1.5449999999999998E-002    -1.9109281434560256E-016
  -1.5400000000000000E-002    -1.4213906826904346E-016
  -1.5349999999999999E-002    -5.8611014125413698E-017
  -1.5300000000000001E-002     4.2321680187566406E-017
  -1.5250000000000000E-002     1.3942710496739353E-016
  -1.5199999999999998E-002     2.1225586596710386E-016
  -1.5150000000000000E-002     2.4549875881054870E-016
  -1.5099999999999999E-002     2.3182738851819193E-016
  -1.5050000000000001E-002     1.7274957336809742E-016
  -1.4999999999999999E-002     7.7656808639797410E-017
  -1.4949999999999998E-002    -3.8285407023078378E-017
  -1.4900000000000000E-002    -1.5661368186079737E-016
  -1.4849999999999999E-002    -2.5784147539791401E-016
  -1.4800000000000001E-002    -3.2341167641462596E-016
  -1.4749999999999999E-002    -3.3762718020679085E-016
  -1.4700000000000001E-002    -2.9000620290639762E-016
  -1.4650000000000000E-002    -1.7824663513278570E-016
  -1.4599999999999998E-002    -1.1363180115086248E-017
  -1.4550000000000000E-002     1.8814276179660461E-016
  -1.4499999999999999E-002     3.8464867043690104E-016
  -1.4450000000000001E-002     5.3368364264216946E-016
  -1.4400000000000000E-002     5.9052457133281407E-016
  -1.4349999999999998E-002     5.2199372771163476E-016
  -1.4300000000000000E-002     3.1868246321495956E-016
  -1.4249999999999999E-002     3.7195267983432064E-018
  -1.4200000000000001E-002    -3.6577029665452676E-016
  -1.4149999999999999E-002    -7.0692430404900024E-016
  -1.4099999999999998E-002    -9.2885070147656930E-016
  -1.4050000000000000E-002    -9.5633896522659089E-016
  -1.3999999999999999E-002    -7.5344781042495508E-016
  -1.3950000000000001E-002    -3.3973530808234741E-016
  -1.3899999999999999E-002     2.0700243856189470E-016
  -1.3850000000000001E-002     7.6432330499438860E-016
  -1.3800000000000000E-002     1.1931933982958904E-015
  -1.3749999999999998E-002     1.3739175250550801E-015
  -1.3700000000000000E-002     1.2401926162755008E-015
  -1.3649999999999999E-002     8.0114152052694524E-016
  -1.3600000000000001E-002     1.4398045835976248E-016
  -1.3550000000000000E-002    -5.8469008026601250E-016
  -1.3499999999999998E-002    -1.2146381762089710E-015
  -1.3450000000000000E-002    -1.5951522281413296E-015
  -1.3399999999999999E-002    -1.6334393235974322E-015
  -1.3350000000000001E-002    -1.3173848359398535E-015
  -1.3299999999999999E-002    -7.1652478242878241E-016
  -1.3249999999999998E-002     3.8227318356288911E-017
  -1.3200000000000000E-002     7.8911831622126614E-016
  -1.3149999999999998E-002     1.3894266157675853E-015
  -1.3100000000000001E-002     1.7336038411633364E-015
  -1.3049999999999999E-002     1.7723006267635166E-015
  -1.3000000000000001E-002     1.5109292796003193E-015
  -1.2950000000000000E-002     9.9645529120598618E-016
  -1.2899999999999998E-002     3.0073256093985992E-016
  -1.2850000000000000E-002    -4.9156891377277877E-016
  -1.2799999999999999E-002    -1.2864436282505039E-015