  -4.0000000000000001E-002     0.0000000000000000     
  -3.9949999999999999E-002     0.0000000000000000     
  -3.9899999999999998E-002     0.0000000000000000     
  -3.9850000000000003E-002     0.0000000000000000     
  -3.9800000000000002E-002     0.0000000000000000     
  -3.9750000000000001E-002     0.0000000000000000     
  -3.9699999999999999E-002     0.0000000000000000     
  -3.9649999999999998E-002     0.0000000000000000     
  -3.9600000000000003E-002     0.0000000000000000     
  -3.9550000000000002E-002     0.0000000000000000     
  -3.9500000000000000E-002     0.0000000000000000     
  -3.9449999999999999E-002     0.0000000000000000     
  -3.9399999999999998E-002     0.0000000000000000     
  -3.9350000000000003E-002     0.0000000000000000     
  -3.9300000000000002E-002     0.0000000000000000     
  -3.9250000000000000E-002     0.0000000000000000     
  -3.9199999999999999E-002     0.0000000000000000     
  -3.9150000000000004E-002     0.0000000000000000     
  -3.9100000000000003E-002     0.0000000000000000     
  -3.9050000000000001E-002     0.0000000000000000     
  -3.9000000000000000E-002     0.0000000000000000     
  -3.8949999999999999E-002     0.0000000000000000     
  -3.8900000000000004E-002     0.0000000000000000     
  -3.8850000000000003E-002     0.0000000000000000     
  -3.8800000000000001E-002     0.0000000000000000     
  -3.8750000000000000E-002     0.0000000000000000     
  -3.8699999999999998E-002     0.0000000000000000     
  -3.8650000000000004E-002     0.0000000000000000     
  -3.8600000000000002E-002     0.0000000000000000     
  -3.8550000000000001E-002     0.0000000000000000     
  -3.8500000000000000E-002     0.0000000000000000     
  -3.8449999999999998E-002     0.0000000000000000     
  -3.8400000000000004E-002     0.0000000000000000     
  -3.8350000000000002E-002     0.0000000000000000     
  -3.8300000000000001E-002     0.0000000000000000     
  -3.8249999999999999E-002     0.0000000000000000     
  -3.8199999999999998E-002     0.0000000000000000     
  -3.8150000000000003E-002     0.0000000000000000     
  -3.8100000000000002E-002     0.0000000000000000     
  -3.8050000000000000E-002     0.0000000000000000     
  -3.7999999999999999E-002     0.0000000000000000     
  -3.7949999999999998E-002     0.0000000000000000     
  -3.7900000000000003E-002     0.0000000000000000     
  -3.7850000000000002E-002     0.0000000000000000     
  -3.7800000000000000E-002     0.0000000000000000     
  -3.7749999999999999E-002     0.0000000000000000     
  -3.7699999999999997E-002     0.0000000000000000     
  -3.7650000000000003E-002     0.0000000000000000     
  -3.7600000000000001E-002     0.0000000000000000     
  -3.7550000000000000E-002     0.0000000000000000     
  -3.7499999999999999E-002     0.0000000000000000     
  -3.7449999999999997E-002     0.0000000000000000     
  -3.7400000000000003E-002     0.0000000000000000     
  -3.7350000000000001E-002     0.0000000000000000     
  -3.7300000000000000E-002     0.0000000000000000     
  -3.7249999999999998E-002     0.0000000000000000     
  -3.7200000000000004E-002     0.0000000000000000     
  -3.7150000000000002E-002     0.0000000000000000     
  -3.7100000000000001E-002     0.0000000000000000     
  -3.7050000000000000E-002     0.0000000000000000     
  -3.6999999999999998E-002     0.0000000000000000     
  -3.6950000000000004E-002     0.0000000000000000     
  -3.6900000000000002E-002     0.0000000000000000     
  -3.6850000000000001E-002     0.0000000000000000     
  -3.6799999999999999E-002     0.0000000000000000     
  -3.6749999999999998E-002     0.0000000000000000     
  -3.6700000000000003E-002     0.0000000000000000     
  -3.6650000000000002E-002     0.0000000000000000     
  -3.6600000000000001E-002     0.0000000000000000     
  -3.6549999999999999E-002     0.0000000000000000     
  -3.6499999999999998E-002     0.0000000000000000     
  -3.6450000000000003E-002     0.0000000000000000     
  -3.6400000000000002E-002     0.0000000000000000     
  -3.6350000000000000E-002     0.0000000000000000     
  -3.6299999999999999E-002     0.0000000000000000     
  -3.6249999999999998E-002     0.0000000000000000     
  -3.6200000000000003E-002     0.0000000000000000     
  -3.6150000000000002E-002     0.0000000000000000     
  -3.6100000000000000E-002     0.0000000000000000     
  -3.6049999999999999E-002     0.0000000000000000     
  -3.6000000000000004E-002     0.0000000000000000     
  -3.5950000000000003E-002     0.0000000000000000     
  -3.5900000000000001E-002    -1.6777135081344606E-039
  -3.5850000000000000E-002    -4.1116032058999197E-039
  -3.5799999999999998E-002    -5.8059922889020297E-039
  -3.5750000000000004E-002    -3.8766472811872994E-039
  -3.5700000000000003E-002     4.1913344173953878E-039
  -3.5650000000000001E-002     2.4333305613527748E-038
  -3.5600000000000000E-002     4.5876758689507684E-038
  -3.5549999999999998E-002     6.7040155779784633E-038
  -3.5500000000000004E-002     5.8247866567074124E-038
  -3.5450000000000002E-002     9.4774587011863109E-039
  -3.5400000000000001E-002    -1.0253796729097878E-037
  -3.5349999999999999E-002    -2.8963575460500072E-037
  -3.5299999999999998E-002    -4.5674781268027145E-037
  -3.5250000000000004E-002    -5.1839289230923452E-037
  -3.5200000000000002E-002    -3.4265561794650756E-037
  -3.5150000000000001E-002     1.3626472408652743E-037
  -3.5099999999999999E-002     8.8113274419872558E-037
  -3.5049999999999998E-002     1.7135251819803301E-036
  -3.5000000000000003E-002     2.3329776384499571E-036
  -3.4950000000000002E-002     2.4060470089128932E-036
  -3.4900000000000000E-002     1.6395977218630966E-036
  -3.4849999999999999E-002    -5.5247607378294434E-038
  -3.4799999999999998E-002    -2.5124509763411329E-036
  -3.4750000000000003E-002    -5.3954844462229382E-036
  -3.4700000000000002E-002    -8.3975503497159509E-036
  -3.4650000000000000E-002    -1.1366226098290896E-035
  -3.4599999999999999E-002    -1.4073966656888549E-035
  -3.4549999999999997E-002    -1.5503118516931107E-035
  -3.4500000000000003E-002    -1.2876997532593536E-035
  -3.4450000000000001E-002    -1.2298953408022737E-036
  -3.4400000000000000E-002     2.5376552819969134E-035
  -3.4349999999999999E-002     7.0185966053707557E-035
  -3.4299999999999997E-002     1.2798948859525914E-034
  -3.4250000000000003E-002     1.7951345643534635E-034
  -3.4200000000000001E-002     1.8980529392782755E-034
  -3.4150000000000000E-002     1.1481233250079650E-034
  -3.4099999999999998E-002    -8.1817133856608945E-035
  -3.4049999999999997E-002    -4.0422959111605523E-034
  -3.4000000000000002E-002    -8.0013507903639948E-034
  -3.3950000000000001E-002    -1.1484491091218407E-033
  -3.3900000000000000E-002    -1.2695390938812379E-033
  -3.3849999999999998E-002    -9.6276453643780585E-034
  -3.3799999999999997E-002    -6.7162831704411305E-035
  -3.3750000000000002E-002     1.4657984023185183E-033
  -3.3700000000000001E-002     3.4996386119833894E-033
  -3.3649999999999999E-002     5.6491800325719983E-033
  -3.3599999999999998E-002     7.2342946814380713E-033
  -3.3550000000000003E-002     7.2740800766474938E-033
  -3.3500000000000002E-002     4.5781752636445473E-033
  -3.3450000000000001E-002    -1.9699254394452683E-033
  -3.3399999999999999E-002    -1.2840619967497600E-032
  -3.3349999999999998E-002    -2.6988769474009522E-032
  -3.3300000000000003E-002    -4.0893714803698831E-032
  -3.3250000000000002E-002    -4.8022817149096871E-032
  -3.3200000000000000E-002    -3.9493843571476125E-032
  -3.3149999999999999E-002    -6.6912303016042536E-033
  -3.3099999999999997E-002     5.3952195556357709E-032
  -3.3050000000000003E-002     1.3494956488566782E-031
  -3.3000000000000002E-002     2.1298496501256939E-031
  -3.2950000000000000E-002     2.4902348893520748E-031
  -3.2899999999999999E-002     1.9687735631602992E-031
  -3.2850000000000004E-002     2.1570006975841682E-032
  -3.2800000000000003E-002    -2.7568453373610581E-031
  -3.2750000000000001E-002    -6.3476865166817304E-031
  -3.2700000000000000E-002    -9.2945980951742601E-031
  -3.2649999999999998E-002    -9.8875652862503600E-031
  -3.2600000000000004E-002    -6.5238648954483320E-031
  -3.2550000000000003E-002     1.4828282606274432E-031
  -3.2500000000000001E-002     1.3102040078318831E-030
  -3.2450000000000000E-002     2.5185315090611348E-030
  -3.2399999999999998E-002     3.2845441799944537E-030
  -3.2350000000000004E-002     3.0792247922270711E-030
  -3.2300000000000002E-002     1.5421713536997914E-030
  -3.2250000000000001E-002    -1.2977287820064371E-030
  -3.2199999999999999E-002    -4.8819965242674684E-030
  -3.2149999999999998E-002    -8.1492738824464952E-030
  -3.2100000000000004E-002    -9.7679795466006515E-030
  -3.2050000000000002E-002    -8.5357447023697150E-030
  -3.2000000000000001E-002    -3.8296219529061201E-030
  -3.1949999999999999E-002     4.0452238521324764E-030
  -3.1899999999999998E-002     1.3730866104945487E-029
  -3.1850000000000003E-002     2.2951154413318732E-029
  -3.1800000000000002E-002     2.8843833157987186E-029
  -3.1750000000000000E-002     2.8389420026602475E-029
  -3.1699999999999999E-002     1.8898852967235520E-029
  -3.1649999999999998E-002    -1.3404252125239111E-030
  -3.1600000000000003E-002    -3.2060929193481238E-029
  -3.1550000000000002E-002    -6.9556295390143091E-029
  -3.1500000000000000E-002    -1.0507959058485866E-028
  -3.1449999999999999E-002    -1.2405839460107856E-028
  -3.1399999999999997E-002    -1.0764660013812469E-028
  -3.1350000000000003E-002    -3.8083656501840026E-029
  -3.1300000000000001E-002     9.1807087894233517E-029
  -3.1250000000000000E-002     2.6696745951821784E-028
  -3.1199999999999999E-002     4.4115827741332051E-028
  -3.1150000000000001E-002     5.3760557819227122E-028
  -3.1100000000000003E-002     4.6554354413307350E-028
  -3.1050000000000001E-002     1.5445097202415095E-028
  -3.1000000000000000E-002    -4.0047664916815655E-028
  -3.0949999999999998E-002    -1.0976971622736153E-027
  -3.0900000000000000E-002    -1.7161975451117013E-027
  -3.0850000000000002E-002    -1.9510387504519558E-027
  -3.0800000000000001E-002    -1.5058699216582414E-027
  -3.0750000000000000E-002    -2.2751411223922616E-028
  -3.0699999999999998E-002     1.7590590875478274E-027
  -3.0650000000000000E-002     3.9759556423702089E-027
  -3.0600000000000002E-002     5.6370058582274751E-027
  -3.0550000000000001E-002     5.8419624996486311E-027
  -3.0499999999999999E-002     3.8964282629397239E-027
  -3.0449999999999998E-002    -3.2940986705636703E-028
  -3.0400000000000000E-002    -6.1372387711050243E-027
  -3.0350000000000002E-002    -1.1971191517791554E-026
  -3.0300000000000001E-002    -1.5709403331208649E-026
  -3.0249999999999999E-002    -1.5260681643030751E-026
  -3.0200000000000001E-002    -9.3272957346677725E-027
  -3.0150000000000000E-002     1.9023243078614266E-027
  -3.0100000000000002E-002     1.6393592072084731E-026
  -3.0050000000000000E-002     3.0433739264043850E-026
  -2.9999999999999999E-002     3.9374953735705996E-026
  -2.9950000000000001E-002     3.8819686764285739E-026
  -2.9899999999999999E-002     2.5968273506883697E-026
  -2.9850000000000002E-002     7.8857605769406896E-028
  -2.9800000000000000E-002    -3.3292240223220514E-026
  -2.9749999999999999E-002    -6.9366765024721059E-026
  -2.9700000000000001E-002    -9.7778751744234561E-026
  -2.9650000000000003E-002    -1.0762344034059817E-025
  -2.9600000000000001E-002    -8.9009970223017020E-026
  -2.9550000000000000E-002    -3.6023249733613507E-026
  -2.9499999999999998E-002     4.9878380764718543E-026
  -2.9450000000000000E-002     1.5670879666488185E-025
  -2.9400000000000003E-002     2.6028183163452866E-025
  -2.9350000000000001E-002     3.2570113923288361E-025
  -2.9300000000000000E-002     3.1360531985916491E-025
  -2.9249999999999998E-002     1.9175599982097338E-025
  -2.9200000000000000E-002    -4.9482335924403940E-026
  -2.9150000000000002E-002    -3.8190054493831411E-025
  -2.9100000000000001E-002    -7.3091422307564908E-025
  -2.9049999999999999E-002    -9.8088004583221398E-025
  -2.8999999999999998E-002    -9.9915709801232320E-025
  -2.8950000000000000E-002    -6.7824849716439977E-025
  -2.8900000000000002E-002     1.2569861842165091E-026
  -2.8850000000000001E-002     9.8255742295615225E-025
  -2.8799999999999999E-002     2.0024363740764701E-024
  -2.8749999999999998E-002     2.7329982900478595E-024
  -2.8700000000000000E-002     2.8063813670054811E-024
  -2.8650000000000002E-002     1.9489203742576585E-024
  -2.8600000000000000E-002     1.1429949992141436E-025
  -2.8549999999999999E-002    -2.4190982931099266E-024
  -2.8500000000000001E-002    -5.0346141187453987E-024
  -2.8450000000000000E-002    -6.8796038146600057E-024
  -2.8400000000000002E-002    -7.0830080115037448E-024
  -2.8350000000000000E-002    -5.0457756965076383E-024
  -2.8299999999999999E-002    -7.2402840094177080E-025
  -2.8250000000000001E-002     5.1939045767390500E-024
  -2.8200000000000003E-002     1.1303990368538267E-023
  -2.8150000000000001E-002     1.5739714845217002E-023
  -2.8100000000000000E-002     1.6637035320444740E-023
  -2.8049999999999999E-002     1.2712549419442565E-023
  -2.8000000000000001E-002     3.8011040107803092E-024
  -2.7950000000000003E-002    -8.8175893530538189E-024
  -2.7900000000000001E-002    -2.2441440486726657E-023
  -2.7850000000000000E-002    -3.3379032509331615E-023
  -2.7799999999999998E-002    -3.7751776877203007E-023
  -2.7750000000000000E-002    -3.2520574460792283E-023
  -2.7700000000000002E-002    -1.6515179297475074E-023
  -2.7650000000000001E-002     8.7891871326324077E-024
  -2.7600000000000000E-002     3.8986935238544591E-023
  -2.7549999999999998E-002     6.7123828393992560E-023
  -2.7500000000000000E-002     8.4816640760634741E-023
  -2.7450000000000002E-002     8.4044969120692135E-023
  -2.7400000000000001E-002     5.9386173279772825E-023
  -2.7349999999999999E-002     1.0286102428931379E-023
  -2.7299999999999998E-002    -5.7204051033998268E-023
  -2.7250000000000000E-002    -1.2988870914579157E-022
  -2.7200000000000002E-002    -1.8870148012200695E-022
  -2.7150000000000001E-002    -2.1214058958272814E-022
  -2.7099999999999999E-002    -1.8170362854758341E-022
  -2.7049999999999998E-002    -8.8449155657215886E-023
  -2.7000000000000000E-002     6.0928044973613696E-023
  -2.6950000000000002E-002     2.4063550034167634E-022
  -2.6900000000000000E-002     4.0705147965913169E-022
  -2.6849999999999999E-002     5.0607514703166336E-022
  -2.6800000000000001E-002     4.8636739982510074E-022
  -2.6749999999999999E-002     3.1622897753828462E-022
  -2.6700000000000002E-002    -1.5932589499850443E-025
  -2.6650000000000000E-002    -4.1265097508595032E-022
  -2.6599999999999999E-002    -8.2646410832123251E-022
  -2.6550000000000001E-002    -1.1180434951119390E-021
  -2.6500000000000003E-002    -1.1647118151236814E-021
  -2.6450000000000001E-002    -8.8261494361426613E-022
  -2.6400000000000000E-002    -2.6322152992277615E-022
  -2.6349999999999998E-002     6.0353822669875853E-022
  -2.6300000000000000E-002     1.5302306955066303E-021
  -2.6250000000000002E-002     2.2627726269185091E-021
  -2.6200000000000001E-002     2.5390104954990994E-021
  -2.6150000000000000E-002     2.1637871387263696E-021
  -2.6099999999999998E-002     1.0817441415327804E-021
  -2.6050000000000000E-002    -5.7417051008374861E-022
  -2.6000000000000002E-002    -2.4777657901841785E-021
  -2.5950000000000001E-002    -4.1585299515626496E-021
  -2.5899999999999999E-002    -5.1011644631481223E-021
  -2.5849999999999998E-002    -4.8776615550743137E-021
  -2.5800000000000000E-002    -3.2818220740661678E-021
  -2.5750000000000002E-002    -4.3054196425393582E-022
  -2.5700000000000001E-002     3.2006658040321898E-021
  -2.5649999999999999E-002     6.8285219994085926E-021
  -2.5599999999999998E-002     9.5012713692862700E-021
  -2.5550000000000000E-002     1.0307224298660360E-020
  -2.5500000000000002E-002     8.6139097502682837E-021
  -2.5450000000000000E-002     4.2860647553408411E-021
  -2.5399999999999999E-002    -2.1732287889316191E-021
  -2.5349999999999998E-002    -9.6066384059077157E-021
  -2.5300000000000000E-002    -1.6341887522291260E-020
  -2.5250000000000002E-002    -2.0488061314900876E-020
  -2.5200000000000000E-002    -2.0355689796729218E-020
  -2.5149999999999999E-002    -1.4930681460369537E-020
  -2.5100000000000001E-002    -4.3006101177146986E-021
  -2.5049999999999999E-002     1.0085542371080189E-020
  -2.5000000000000001E-002     2.5436575452393451E-020
  -2.4950000000000000E-002     3.7991970864190181E-020
  -2.4899999999999999E-002     4.3752525158749745E-020
  -2.4850000000000001E-002     3.9476799146376439E-020
  -2.4800000000000003E-002     2.3749291783588897E-020
  -2.4750000000000001E-002    -2.1537540716119843E-021
  -2.4700000000000000E-002    -3.3900392159920300E-020
  -2.4649999999999998E-002    -6.4484363764277390E-020
  -2.4600000000000000E-002    -8.5450128378217281E-020
  -2.4550000000000002E-002    -8.8841323614334544E-020
  -2.4500000000000001E-002    -6.9508695983661115E-020
  -2.4450000000000000E-002    -2.7211997733523612E-020
  -2.4399999999999998E-002     3.2134924868685225E-020
  -2.4350000000000000E-002     9.6637552774323351E-020
  -2.4299999999999999E-002     1.5029767177013811E-019
  -2.4250000000000001E-002     1.7645108790001830E-019
  -2.4199999999999999E-002     1.6214434868415891E-019
  -2.4150000000000001E-002     1.0242654807917445E-019
  -2.4100000000000000E-002     3.3477602931220011E-021
  -2.4049999999999998E-002    -1.1741896057996634E-019
  -2.4000000000000000E-002    -2.3295734360030730E-019
  -2.3949999999999999E-002    -3.1240049838860847E-019
  -2.3900000000000001E-002    -3.2823791932433224E-019
  -2.3850000000000000E-002    -2.6404949933145291E-019
  -2.3800000000000002E-002    -1.2071500387484649E-019
  -2.3750000000000000E-002     8.0748042702596515E-020
  -2.3699999999999999E-002     3.0096330027753423E-019
  -2.3650000000000001E-002     4.8884181192730880E-019
  -2.3599999999999999E-002     5.9217041202081408E-019
  -2.3550000000000001E-002     5.7013968261058015E-019
  -2.3500000000000000E-002     4.0509445517753760E-019
  -2.3449999999999999E-002     1.1063421100755287E-019
  -2.3400000000000001E-002    -2.6633363081258083E-019
  -2.3349999999999999E-002    -6.5093200064784770E-019
  -2.3300000000000001E-002    -9.5295154524653147E-019
  -2.3250000000000000E-002    -1.0851018394512550E-018
  -2.3199999999999998E-002    -9.8375819002268513E-019
  -2.3150000000000000E-002    -6.2805679940683273E-019
  -2.3099999999999999E-002    -5.2830243553551638E-020
  -2.3050000000000001E-002     6.4865593077902190E-019
  -2.3000000000000000E-002     1.3348229964081772E-018
  -2.2950000000000002E-002     1.8391584982417797E-018
  -2.2900000000000000E-002     2.0043733496180387E-018
  -2.2849999999999999E-002     1.7217730788456865E-018
  -2.2800000000000001E-002     9.6768818602488264E-019
  -2.2749999999999999E-002    -1.7253934889168026E-019
  -2.2700000000000001E-002    -1.5018326674134028E-018
  -2.2650000000000000E-002    -2.7356465030999772E-018
  -2.2599999999999999E-002    -3.5534584344566095E-018
  -2.2550000000000001E-002    -3.6707283535144964E-018
  -2.2499999999999999E-002    -2.9175548457124943E-018
  -2.2450000000000001E-002    -1.3052058838125152E-018
  -2.2400000000000000E-002     9.3944035153433697E-019
  -2.2349999999999998E-002     3.3874376178918268E-018
  -2.2300000000000000E-002     5.4758154036830439E-018
  -2.2249999999999999E-002     6.6234180205230964E-018
  -2.2200000000000001E-002     6.3737171093539275E-018
  -2.2150000000000000E-002     4.5325308583484641E-018
  -2.2100000000000002E-002     1.2639580171647575E-018
  -2.2050000000000000E-002    -2.8876668566355479E-018
  -2.1999999999999999E-002    -7.0679983557778328E-018
  -2.1950000000000001E-002    -1.0272218241315494E-017
  -2.1899999999999999E-002    -1.1567423461941201E-017
  -2.1850000000000001E-002    -1.0331433976507185E-017
  -2.1800000000000000E-002    -6.4509497737086984E-018
  -2.1749999999999999E-002    -4.2465906374388130E-019
  -2.1700000000000001E-002     6.6663309646022935E-018
  -2.1649999999999999E-002     1.3330497276059595E-017
  -2.1600000000000001E-002     1.7956902842012294E-017
  -2.1550000000000000E-002     1.9171283507452982E-017
  -2.1499999999999998E-002     1.6182831301684275E-017
  -2.1450000000000000E-002     9.0421953041462284E-018
  -2.1399999999999999E-002    -1.2564855000867034E-018
  -2.1350000000000001E-002    -1.2868967991033448E-017
  -2.1299999999999999E-002    -2.3391555876354602E-017
  -2.1250000000000002E-002    -3.0309843798156325E-017
  -2.1200000000000000E-002    -3.1530556242149592E-017
  -2.1149999999999999E-002    -2.5896773347097207E-017
  -2.1100000000000001E-002    -1.3578276724020040E-017
  -2.1049999999999999E-002     3.7607995039608016E-018
  -2.1000000000000001E-002     2.3085381789509580E-017
  -2.0950000000000000E-002     4.0425466058762344E-017
  -2.0899999999999998E-002     5.1587210228819263E-017
  -2.0850000000000000E-002     5.3037848580709994E-017
  -2.0799999999999999E-002     4.2805997133830149E-017
  -2.0750000000000001E-002     2.1202213010331500E-017
  -2.0700000000000000E-002    -8.8377905845493231E-018
  -2.0649999999999998E-002    -4.1942551038646482E-017
  -2.0600000000000000E-002    -7.1092162261138112E-017
  -2.0549999999999999E-002    -8.8940756570041247E-017
  -2.0500000000000001E-002    -8.9467813360707942E-017
  -2.0449999999999999E-002    -6.9626613870790853E-017
  -2.0400000000000001E-002    -3.0589092212049633E-017
  -2.0350000000000000E-002     2.1794703167381943E-017
  -2.0299999999999999E-002     7.7581701846514218E-017
  -2.0250000000000001E-002     1.2441004339125261E-016
  -2.0199999999999999E-002     1.5003885995853607E-016
  -2.0150000000000001E-002     1.4527231336340922E-016
  -2.0100000000000000E-002     1.0660882549530800E-016
  -2.0049999999999998E-002     3.7921374829580536E-017
  -2.0000000000000000E-002    -4.9384724545109486E-017
  -1.9949999999999999E-002    -1.3798979639912985E-016
  -1.9900000000000001E-002    -2.0789799227875933E-016
  -1.9850000000000000E-002    -2.4072341777329659E-016
  -1.9799999999999998E-002    -2.2412866580822724E-016
  -1.9750000000000000E-002    -1.5538604097324025E-016
  -1.9699999999999999E-002    -4.3137003700610202E-017
  -1.9650000000000001E-002     9.3237557646960752E-017
  -1.9599999999999999E-002     2.2672256063365454E-016
  -1.9550000000000001E-002     3.2777812805245311E-016
  -1.9500000000000000E-002     3.7050167764394177E-016
  -1.9449999999999999E-002     3.3859614834187327E-016
  -1.9400000000000001E-002     2.2986085261774537E-016
  -1.9349999999999999E-002     5.8151188605859879E-017
  -1.9300000000000001E-002    -1.4779583349713637E-016
  -1.9250000000000000E-002    -3.4869126325378028E-016
  -1.9199999999999998E-002    -5.0159539916536263E-016
  -1.9150000000000000E-002    -5.6828362887437553E-016
  -1.9099999999999999E-002    -5.2361146132092508E-016
  -1.9050000000000001E-002    -3.6227589570931512E-016
  -1.9000000000000000E-002    -1.0248587558233926E-016
  -1.8949999999999998E-002     2.1457323999697853E-016
  -1.8900000000000000E-002     5.2998273200807550E-016
  -1.8849999999999999E-002     7.7673159271278222E-016
  -1.8800000000000001E-002     8.9253447612530763E-016
  -1.8749999999999999E-002     8.3373370825705636E-016
  -1.8700000000000001E-002     5.8754582149061758E-016
  -1.8650000000000000E-002     1.7971200280655248E-016
  -1.8599999999999998E-002    -3.2497985503065793E-016
  -1.8550000000000001E-002    -8.3073933286097396E-016
  -1.8499999999999999E-002    -1.2271279179896632E-015
  -1.8450000000000001E-002    -1.4114564240487853E-015
  -1.8400000000000000E-002    -1.3130777634134809E-015
  -1.8349999999999998E-002    -9.1419660671824472E-016
  -1.8300000000000000E-002    -2.6169786804580919E-016
  -1.8249999999999999E-002     5.3424465036095014E-016
  -1.8200000000000001E-002     1.3164643944219031E-015
  -1.8149999999999999E-002     1.9102920135895839E-015
  -1.8100000000000002E-002     2.1610408505936975E-015
  -1.8050000000000000E-002     1.9716218861656642E-015
  -1.7999999999999999E-002     1.3314026838658269E-015
  -1.7950000000000001E-002     3.2848862932464848E-016
  -1.7899999999999999E-002    -8.5923517060768896E-016
  -1.7850000000000001E-002    -1.9943643599593977E-015
  -1.7800000000000000E-002    -2.8265422683529901E-015
  -1.7749999999999998E-002    -3.1461310205305487E-015
  -1.7700000000000000E-002    -2.8334525410484441E-015
  -1.7649999999999999E-002    -1.8923447912198829E-015
  -1.7600000000000001E-002    -4.5965878785925818E-016
  -1.7550000000000000E-002     1.2127766928074445E-015
  -1.7499999999999998E-002     2.8014217282202818E-015
  -1.7450000000000000E-002     3.9718516482686276E-015
  -1.7399999999999999E-002     4.4456652267928659E-015
  -1.7350000000000001E-002     4.0605383040240566E-015
  -1.7299999999999999E-002     2.8115280238631581E-015
  -1.7250000000000001E-002     8.6493756490911125E-016
  -1.7200000000000000E-002    -1.4592799295750512E-015
  -1.7149999999999999E-002    -3.7353566729531196E-015
  -1.7100000000000001E-002    -5.5034422038443501E-015
  -1.7049999999999999E-002    -6.3545950432644820E-015
  -1.7000000000000001E-002    -6.0153297353669954E-015
  -1.6950000000000000E-002    -4.4165565287257861E-015
  -1.6899999999999998E-002    -1.7323281779952077E-015
  -1.6850000000000000E-002     1.6232368035402229E-015
  -1.6799999999999999E-002     5.0468191892099696E-015
  -1.6750000000000001E-002     7.8424312522092717E-015
  -1.6700000000000000E-002     9.3518463582899402E-015
  -1.6649999999999998E-002     9.0975311214273869E-015
  -1.6600000000000000E-002     6.9095954850803298E-015
  -1.6549999999999999E-002     3.0060564352860998E-015
  -1.6500000000000001E-002    -1.9995590484422426E-015
  -1.6449999999999999E-002    -7.1771910037607634E-015
  -1.6400000000000001E-002    -1.1441637003618462E-014
  -1.6350000000000000E-002    -1.3771713887022094E-014
  -1.6299999999999999E-002    -1.3444577492201129E-014
  -1.6250000000000001E-002    -1.0232405368355568E-014
  -1.6199999999999999E-002    -4.5103465948504535E-015
  -1.6150000000000001E-002     2.7604694859891738E-015
  -1.6100000000000000E-002     1.0185091608037570E-014
  -1.6049999999999998E-002     1.6200588582986742E-014
  -1.6000000000000000E-002     1.9404530127698698E-014
  -1.5949999999999999E-002     1.8875444191152828E-014
  -1.5900000000000001E-002     1.4410909569448782E-014
  -1.5850000000000000E-002     6.6234294906550706E-015
  -1.5799999999999998E-002    -3.1360173540182260E-015
  -1.5750000000000000E-002    -1.3018253366992984E-014
  -1.5699999999999999E-002    -2.1034092844633360E-014
  -1.5650000000000001E-002    -2.5456807616286791E-014
  -1.5599999999999999E-002    -2.5184682199049741E-014
  -1.5550000000000001E-002    -1.9987822728794331E-014
  -1.5500000000000000E-002    -1.0588253447986953E-014
  -1.5449999999999998E-002     1.4429691687538506E-015
  -1.5400000000000000E-002     1.3951969243132660E-014
  -1.5349999999999999E-002     2.4582167480932007E-014
  -1.5300000000000001E-002     3.1200945271790005E-014
  -1.5250000000000000E-002     3.2300412448533740E-014
  -1.5199999999999998E-002     2.7306174133152495E-014
  -1.5150000000000000E-002     1.6742327248622493E-014
  -1.5099999999999999E-002     2.2198859626411479E-015
  -1.5050000000000001E-002    -1.3762607970228143E-014
  -1.4999999999999999E-002    -2.8193581975719836E-014
  -1.4949999999999998E-002    -3.8058720177332468E-014
  -1.4900000000000000E-002    -4.0919558833410981E-014
  -1.4849999999999999E-002    -3.5466630242151520E-014
  -1.4800000000000001E-002    -2.1936288416166403E-014
  -1.4749999999999999E-002    -2.2810105434757735E-015
  -1.4700000000000001E-002     1.9990671327351550E-014
  -1.4650000000000000E-002     4.0333968897189489E-014
  -1.4599999999999998E-002     5.3999520892677053E-014
  -1.4550000000000000E-002     5.7044608793935394E-014
  -1.4499999999999999E-002     4.7321077432090719E-014
  -1.4450000000000001E-002     2.5205023766431236E-014
  -1.4400000000000000E-002    -6.1439840783882390E-015
  -1.4349999999999998E-002    -4.1123448923381875E-014
  -1.4300000000000000E-002    -7.2627348470235454E-014
  -1.4249999999999999E-002    -9.3434780465499332E-014
  -1.4200000000000001E-002    -9.7769292530362418E-014
  -1.4149999999999999E-002    -8.2679583087312602E-014
  -1.4099999999999998E-002    -4.8905034998291789E-014
  -1.4050000000000000E-002    -9.9039590734999892E-016
  -1.3999999999999999E-002     5.3418121046146487E-014
  -1.3950000000000001E-002     1.0496874857897918E-013
  -1.3899999999999999E-002     1.4439654628405841E-013
  -1.3850000000000001E-002     1.6431847156289712E-013
  -1.3800000000000000E-002     1.6063727286986195E-013
  -1.3749999999999998E-002     1.3325851707830361E-013
  -1.3700000000000000E-002     8.5992707272772797E-014
  -1.3649999999999999E-002     2.5705841998087374E-014
  -1.3600000000000001E-002    -3.9055486680844117E-014
  -1.3550000000000000E-002    -9.9644915502675141E-014
  -1.3499999999999998E-002    -1.4877427247614021E-013
  -1.3450000000000000E-002    -1.8158846484973619E-013
  -1.3399999999999999E-002    -1.9620977209743237E-013
  -1.3350000000000001E-002    -1.9372352144615600E-013
  -1.3299999999999999E-002    -1.7767069509251917E-013
  -1.3249999999999998E-002    -1.5316409845701571E-013
  -1.3200000000000000E-002    -1.2576211302431757E-013
  -1.3149999999999998E-002    -1.0023635768444296E-013
  -1.3100000000000001E-002    -7.9380963706772666E-014
  -1.3049999999999999E-002    -6.3042445630645306E-014
  -1.3000000000000001E-002    -4.7589989419881299E-014
  -1.2950000000000000E-002    -2.6063430037818666E-014
  -1.2899999999999998E-002     1.0805310073878962E-014
  -1.2850000000000000E-002     7.2635878562476080E-014
  -1.2799999999999999E-002     1.6666744218360929E-013