  -4.0000000000000001E-002     0.0000000000000000     
  -3.9949999999999999E-002     0.0000000000000000     
  -3.9899999999999998E-002     0.0000000000000000     
  -3.9850000000000003E-002     0.0000000000000000     
  -3.9800000000000002E-002     0.0000000000000000     
  -3.9750000000000001E-002     0.0000000000000000     
  -3.9699999999999999E-002     0.0000000000000000     
  -3.9649999999999998E-002     0.0000000000000000     
  -3.9600000000000003E-002     0.0000000000000000     
  -3.9550000000000002E-002     0.0000000000000000     
  -3.9500000000000000E-002     0.0000000000000000     
  -3.9449999999999999E-002     0.0000000000000000     
  -3.9399999999999998E-002     0.0000000000000000     
  -3.9350000000000003E-002     0.0000000000000000     
  -3.9300000000000002E-002    -1.0933785698218891E-038
  -3.9250000000000000E-002    -1.7262885622009700E-037
  -3.9199999999999999E-002    -9.5344287258000850E-037
  -3.9150000000000004E-002    -1.0313000993590386E-036
  -3.9100000000000003E-002     2.4813862084400888E-035
  -3.9050000000000001E-002     2.2633862441015898E-034
  -3.9000000000000000E-002     1.1526821918559306E-033
  -3.8949999999999999E-002     4.1078846725796360E-033
  -3.8900000000000004E-002     1.0514634687226826E-032
  -3.8850000000000003E-002     1.6863848971201274E-032
  -3.8800000000000001E-002    -8.4795726769567790E-034
  -3.8750000000000000E-002    -1.1647514281365486E-031
  -3.8699999999999998E-002    -4.7921555516057706E-031
  -3.8650000000000004E-002    -1.2649201715200054E-030
  -3.8600000000000002E-002    -2.4056086904646939E-030
  -3.8550000000000001E-002    -2.9127614802082173E-030
  -3.8500000000000000E-002     2.3020575772488968E-031
  -3.8449999999999998E-002     1.3043604828236809E-029
  -3.8400000000000004E-002     4.3646237970923760E-029
  -3.8350000000000002E-002     9.6151497033853482E-029
  -3.8300000000000001E-002     1.5526238349639188E-028
  -3.8249999999999999E-002     1.6019216959150521E-028
  -3.8199999999999998E-002    -2.3024445252095952E-029
  -3.8150000000000003E-002    -6.0039711955564757E-028
  -3.8100000000000002E-002    -1.7616457802201778E-027
  -3.8050000000000000E-002    -3.4337674723693568E-027
  -3.7999999999999999E-002    -4.8540066389495704E-027
  -3.7949999999999998E-002    -4.1032092008043975E-027
  -3.7900000000000003E-002     1.9711943628901705E-027
  -3.7850000000000002E-002     1.6721159696434913E-026
  -3.7800000000000000E-002     4.0849638313058519E-026
  -3.7749999999999999E-002     6.7808758545465228E-026
  -3.7699999999999997E-002     7.9263951942962919E-026
  -3.7650000000000003E-002     4.4750001099894302E-026
  -3.7600000000000001E-002    -6.9031730375799807E-026
  -3.7550000000000000E-002    -2.7582566722693040E-025
  -3.7499999999999999E-002    -5.3798671469986276E-025
  -3.7449999999999997E-002    -7.3998855194169176E-025
  -3.7400000000000003E-002    -6.9171692467333566E-025
  -3.7350000000000001E-002    -1.8499210682914270E-025
  -3.7300000000000000E-002     8.9265110082883789E-025
  -3.7249999999999998E-002     2.4194378478184589E-024
  -3.7200000000000004E-002     3.9463601750333505E-024
  -3.7150000000000002E-002     4.7317257418949334E-024
  -3.7100000000000001E-002     3.9475370603941075E-024
  -3.7050000000000000E-002     1.0167102003438182E-024
  -3.6999999999999998E-002    -4.0525788677428578E-024
  -3.6950000000000004E-002    -1.0503687966688726E-023
  -3.6900000000000002E-002    -1.6934750601349965E-023
  -3.6850000000000001E-002    -2.1600727049815927E-023
  -3.6799999999999999E-002    -2.2697295703031509E-023
  -3.6749999999999998E-002    -1.8416048440672229E-023
  -3.6700000000000003E-002    -6.7962130174481655E-024
  -3.6650000000000002E-002     1.4235994159671998E-023
  -3.6600000000000001E-002     4.6030383455654876E-023
  -3.6549999999999999E-002     8.7203029176836487E-023
  -3.6499999999999998E-002     1.3085281195787798E-022
  -3.6450000000000003E-002     1.6239941779136279E-022
  -3.6400000000000002E-002     1.6000926161201375E-022
  -3.6350000000000000E-002     9.9126449556717752E-023
  -3.6299999999999999E-002    -3.8902794670868816E-023
  -3.6249999999999998E-002    -2.5604206880527747E-022
  -3.6200000000000003E-002    -5.2776977098338508E-022
  -3.6150000000000002E-002    -7.9731683617583330E-022
  -3.6100000000000000E-002    -9.7599503452461141E-022
  -3.6049999999999999E-002    -9.5124923731829740E-022
  -3.6000000000000004E-002    -6.0526480071104585E-022
  -3.5950000000000003E-002     1.5125312410433689E-022
  -3.5900000000000001E-002     1.3268264685514142E-021
  -3.5850000000000000E-002     2.7839750658062628E-021
  -3.5799999999999998E-002     4.1836107515377943E-021
  -3.5750000000000004E-002     4.9802742936614600E-021
  -3.5700000000000003E-002     4.5151494035152830E-021
  -3.5650000000000001E-002     2.2312399612582888E-021
  -3.5600000000000000E-002    -2.0204504279741817E-021
  -3.5549999999999998E-002    -7.6873357323298598E-021
  -3.5500000000000004E-002    -1.3390151691005071E-020
  -3.5450000000000002E-002    -1.7111463872405929E-020
  -3.5400000000000001E-002    -1.6746009688893643E-020
  -3.5349999999999999E-002    -1.0898872395396928E-020
  -3.5299999999999998E-002     3.4269763675914544E-022
  -3.5250000000000004E-002     1.5006864037447194E-020
  -3.5200000000000002E-002     2.9462428101892086E-020
  -3.5150000000000001E-002     3.9300428781148508E-020
  -3.5099999999999999E-002     4.0620376136860216E-020
  -3.5049999999999998E-002     3.1278580107698513E-020
  -3.5000000000000003E-002     1.1666569390258884E-020
  -3.4950000000000002E-002    -1.5191955708888783E-020
  -3.4900000000000000E-002    -4.4127342751938862E-020
  -3.4849999999999999E-002    -6.8590732604179771E-020
  -3.4799999999999998E-002    -8.1452063762647219E-020
  -3.4750000000000003E-002    -7.5883957848011040E-020
  -3.4700000000000002E-002    -4.6728142493296437E-020
  -3.4650000000000000E-002     7.2082836766974922E-021
  -3.4599999999999999E-002     7.9976527027070448E-020
  -3.4549999999999997E-002     1.5548608102898539E-019
  -3.4500000000000003E-002     2.0681465436298997E-019
  -3.4450000000000001E-002     2.0036843996809382E-019
  -3.4400000000000000E-002     1.0645522332145833E-019
  -3.4349999999999999E-002    -8.4770187010322766E-020
  -3.4299999999999997E-002    -3.4666422781606344E-019
  -3.4250000000000003E-002    -6.0662793268517750E-019
  -3.4200000000000001E-002    -7.5250030102937020E-019
  -3.4150000000000000E-002    -6.6034221169770158E-019
  -3.4099999999999998E-002    -2.4174055078874406E-019
  -3.4049999999999997E-002     5.0116569673875679E-019
  -3.4000000000000002E-002     1.4335498424866976E-018
  -3.3950000000000001E-002     2.2824117794194030E-018
  -3.3900000000000000E-002     2.6853449507828004E-018
  -3.3849999999999998E-002     2.2949892262023371E-018
  -3.3799999999999997E-002     9.1798733475768827E-019
  -3.3750000000000002E-002    -1.3542357990072033E-018
  -3.3700000000000001E-002    -4.0764891951659989E-018
  -3.3649999999999999E-002    -6.4888857321499896E-018
  -3.3599999999999998E-002    -7.6823926862422973E-018
  -3.3550000000000003E-002    -6.8667250158372539E-018
  -3.3500000000000002E-002    -3.6722224270603740E-018
  -3.3450000000000001E-002     1.6117378653023190E-018
  -3.3399999999999999E-002     7.9589907113961796E-018
  -3.3349999999999998E-002     1.3751374942638323E-017
  -3.3300000000000003E-002     1.7144329393019281E-017
  -3.3250000000000002E-002     1.6577905280769313E-017
  -3.3200000000000000E-002     1.1298626379002973E-017
  -3.3149999999999999E-002     1.7349632475875396E-018
  -3.3099999999999997E-002    -1.0405710229691916E-017
  -3.3050000000000003E-002    -2.2382697772535882E-017
  -3.3000000000000002E-002    -3.0982552183771482E-017
  -3.2950000000000000E-002    -3.3279813432740264E-017
  -3.2899999999999999E-002    -2.7426144808052263E-017
  -3.2850000000000004E-002    -1.3283440061234015E-017
  -3.2800000000000003E-002     7.2529056760135346E-018
  -3.2750000000000001E-002     3.0335751922313157E-017
  -3.2700000000000000E-002     5.0680903115690420E-017
  -3.2649999999999998E-002     6.2480293867676554E-017
  -3.2600000000000004E-002     6.0622894401585311E-017
  -3.2550000000000003E-002     4.2072495954023806E-017
  -3.2500000000000001E-002     7.1772281252202618E-018
  -3.2450000000000000E-002    -3.9398309455644775E-017
  -3.2399999999999998E-002    -8.8490729113412061E-017
  -3.2350000000000004E-002    -1.2736633978001337E-016
  -3.2300000000000002E-002    -1.4197545287740735E-016
  -3.2250000000000001E-002    -1.2043499162586945E-016
  -3.2199999999999999E-002    -5.7193979053376389E-017
  -3.2149999999999998E-002     4.3138384915396090E-017
  -3.2100000000000004E-002     1.6364509964526932E-016
  -3.2050000000000002E-002     2.7595395213722048E-016
  -3.2000000000000001E-002     3.4490635896769976E-016
  -3.1949999999999999E-002     3.3687676898647008E-016
  -3.1899999999999998E-002     2.3030763028201005E-016
  -3.1850000000000003E-002     2.5827056880871250E-017
  -3.1800000000000002E-002    -2.4736351009529647E-016
  -3.1750000000000000E-002    -5.3191413701331546E-016
  -3.1699999999999999E-002    -7.5133180123978365E-016
  -3.1649999999999998E-002    -8.2709259364659899E-016
  -3.1600000000000003E-002    -7.0073183217868089E-016
  -3.1550000000000002E-002    -3.5548707238513073E-016
  -3.1500000000000000E-002     1.6904398935851922E-016
  -3.1449999999999999E-002     7.7509375172866902E-016
  -3.1399999999999997E-002     1.3210197290747367E-015
  -3.1350000000000003E-002     1.6508643880469060E-015
  -3.1300000000000001E-002     1.6337428994018311E-015
  -3.1250000000000000E-002     1.2038296099187218E-015
  -3.1199999999999999E-002     3.8997809669450737E-016
  -3.1150000000000001E-002    -6.7485843313137140E-016
  -3.1100000000000003E-002    -1.7701675144583044E-015
  -3.1050000000000001E-002    -2.6299226521821899E-015
  -3.1000000000000000E-002    -3.0027921896677961E-015
  -3.0949999999999998E-002    -2.7174468924600783E-015
  -3.0900000000000000E-002    -1.7370096287013593E-015
  -3.0850000000000002E-002    -1.8763662241880782E-016
  -3.0800000000000001E-002     1.6489221242871533E-015
  -3.0750000000000000E-002     3.3811263931529962E-015
  -3.0699999999999998E-002     4.5851756439084603E-015
  -3.0650000000000000E-002     4.8995805409166277E-015
  -3.0600000000000002E-002     4.1169152096830940E-015
  -3.0550000000000001E-002     2.2518697597794046E-015
  -3.0499999999999999E-002    -4.3183306626122667E-016
  -3.0449999999999998E-002    -3.4458177572418126E-015
  -3.0400000000000000E-002    -6.1531818202501628E-015
  -3.0350000000000002E-002    -7.8865104568173868E-015
  -3.0300000000000001E-002    -8.0887645775284247E-015
  -3.0249999999999999E-002    -6.4515779481031794E-015
  -3.0200000000000001E-002    -3.0228197230425353E-015
  -3.0150000000000000E-002     1.7429248367331561E-015
  -3.0100000000000002E-002     7.0108061418517641E-015
  -3.0050000000000000E-002     1.1677784186031012E-014
  -2.9999999999999999E-002     1.4563922397881710E-014
  -2.9950000000000001E-002     1.4658975001268181E-014
  -2.9899999999999999E-002     1.1383074527568801E-014
  -2.9850000000000002E-002     4.8070007493210819E-015
  -2.9800000000000000E-002    -4.2272486952326931E-015
  -2.9749999999999999E-002    -1.4137113936087460E-014
  -2.9700000000000001E-002    -2.2810203550262093E-014
  -2.9650000000000003E-002    -2.7987408215065507E-014
  -2.9600000000000001E-002    -2.7765824497005593E-014
  -2.9550000000000000E-002    -2.1125423079371525E-014
  -2.9499999999999998E-002    -8.3538566880019307E-015
  -2.9450000000000000E-002     8.7596368284552331E-015
  -2.9400000000000003E-002     2.7059776798596266E-014
  -2.9350000000000001E-002     4.2524358956883194E-014
  -2.9300000000000000E-002     5.1073093021877595E-014
  -2.9249999999999998E-002     4.9540213456115717E-014
  -2.9200000000000000E-002     3.6594013850641136E-014
  -2.9150000000000002E-002     1.3360868401576088E-014
  -2.9100000000000001E-002    -1.6453149169930266E-014
  -2.9049999999999999E-002    -4.7052878323620049E-014
  -2.8999999999999998E-002    -7.1624876621383130E-014
  -2.8950000000000000E-002    -8.3802443857967660E-014
  -2.8900000000000002E-002    -7.9213818414233491E-014
  -2.8850000000000001E-002    -5.6743646141679425E-014
  -2.8799999999999999E-002    -1.9169247656485260E-014
  -2.8749999999999998E-002     2.7045162514946124E-014
  -2.8700000000000000E-002     7.2825396823348301E-014
  -2.8650000000000002E-002     1.0825554052557090E-013
  -2.8600000000000000E-002     1.2468074441585738E-013
  -2.8549999999999999E-002     1.1668971806573465E-013
  -2.8500000000000001E-002     8.3529804086273018E-014
  -2.8450000000000000E-002     2.9620607569861533E-014
  -2.8400000000000002E-002    -3.5977974196631829E-014
  -2.8350000000000000E-002    -1.0106790313445662E-013
  -2.8299999999999999E-002    -1.5251235564775445E-013
  -2.8250000000000001E-002    -1.7872664163873563E-013
  -2.8200000000000003E-002    -1.7200764328588599E-013
  -2.8150000000000001E-002    -1.3028566153752178E-013
  -2.8100000000000000E-002    -5.7982772471735946E-014
  -2.8049999999999999E-002     3.4202516584820710E-014
  -2.8000000000000001E-002     1.3061708116804377E-013
  -2.7950000000000003E-002     2.1296874473341363E-013
  -2.7900000000000001E-002     2.6338067963264392E-013
  -2.7850000000000000E-002     2.6779153644660653E-013
  -2.7799999999999998E-002     2.1918084171408664E-013
  -2.7750000000000000E-002     1.2000809730205670E-013
  -2.7700000000000002E-002    -1.6758334477744261E-014
  -2.7650000000000001E-002    -1.6853312174873252E-013
  -2.7600000000000000E-002    -3.0616725020009817E-013
  -2.7549999999999998E-002    -3.9898125789502667E-013
  -2.7500000000000000E-002    -4.2108737412468042E-013
  -2.7450000000000002E-002    -3.5782815811042355E-013
  -2.7400000000000001E-002    -2.1085336594739059E-013
  -2.7349999999999999E-002    -3.6625432112012726E-016
  -2.7299999999999998E-002     2.3652879935939584E-013
  -2.7250000000000000E-002     4.5167286480429786E-013
  -2.7200000000000002E-002     5.9518493977946452E-013
  -2.7150000000000001E-002     6.2657337657793129E-013
  -2.7099999999999999E-002     5.2520243585381094E-013
  -2.7049999999999998E-002     2.9750161956967684E-013
  -2.7000000000000000E-002    -2.1228657684845414E-014
  -2.6950000000000002E-002    -3.7148190748482267E-013
  -2.6900000000000000E-002    -6.8027064758725558E-013
  -2.6849999999999999E-002    -8.7598311511671221E-013
  -2.6800000000000001E-002    -9.0427597274328504E-013
  -2.6749999999999999E-002    -7.4142900852005112E-013
  -2.6700000000000002E-002    -4.0195933897767563E-013
  -2.6650000000000000E-002     6.1537650704999831E-014
  -2.6599999999999999E-002     5.6665233161769748E-013
  -2.6550000000000001E-002     1.0160459067099703E-012
  -2.6500000000000003E-002     1.3159902754568382E-012
  -2.6450000000000001E-002     1.3947989983789266E-012
  -2.6400000000000000E-002     1.2174529673783438E-012
  -2.6349999999999998E-002     7.9359084736558095E-013
  -2.6300000000000000E-002     1.7744883197795766E-013
  -2.6250000000000002E-002    -5.4007073486768608E-013
  -2.6200000000000001E-002    -1.2456165327345841E-012
  -2.6150000000000000E-002    -1.8213631329735389E-012
  -2.6099999999999998E-002    -2.1638274307338910E-012
  -2.6050000000000000E-002    -2.2007309412157125E-012
  -2.6000000000000002E-002    -1.9035756670494992E-012
  -2.5950000000000001E-002    -1.2942114609541158E-012
  -2.5899999999999999E-002    -4.4433392345235470E-013
  -2.5849999999999998E-002     5.3247538075917567E-013
  -2.5800000000000000E-002     1.4957913177813127E-012
  -2.5750000000000002E-002     2.2991492735667637E-012
  -2.5700000000000001E-002     2.8141704271289066E-012
  -2.5649999999999999E-002     2.9544078705143964E-012
  -2.5599999999999998E-002     2.6944442048979876E-012
  -2.5550000000000000E-002     2.0795930128513718E-012
  -2.5500000000000002E-002     1.2224564644498331E-012
  -2.5450000000000000E-002     2.8472040146432400E-013
  -2.5399999999999999E-002    -5.5428768965340754E-013
  -2.5349999999999998E-002    -1.1371818320157534E-012
  -2.5300000000000000E-002    -1.3680932290205448E-012
  -2.5250000000000002E-002    -1.2425346050504318E-012
  -2.5200000000000000E-002    -8.5857867246086935E-013
  -2.5149999999999999E-002    -4.0362523382144951E-013
  -2.5100000000000001E-002    -1.1634520455000436E-013
  -2.5049999999999999E-002    -2.2961187862644073E-013
  -2.5000000000000001E-002    -9.0577764138283977E-013
  -2.4950000000000000E-002    -2.1789011025110148E-012
  -2.4899999999999999E-002    -3.9183718770130061E-012
  -2.4850000000000001E-002    -5.8244561364965958E-012
  -2.4800000000000003E-002    -7.4594466509067319E-012
  -2.4750000000000001E-002    -8.3098861166529395E-012
  -2.4700000000000000E-002    -7.8679058506698505E-012
  -2.4649999999999998E-002    -5.7150670480267959E-012
  -2.4600000000000000E-002    -1.5914188142048134E-012
  -2.4550000000000002E-002     4.5639761223419119E-012
  -2.4500000000000001E-002     1.2608198235719180E-011
  -2.4450000000000000E-002     2.2224376396874141E-011
  -2.4399999999999998E-002     3.2978256455163034E-011
  -2.4350000000000000E-002     4.4388698780601878E-011
  -2.4299999999999999E-002     5.5998251939607995E-011
  -2.4250000000000001E-002     6.7432000313390039E-011
  -2.4199999999999999E-002     7.8437111394875664E-011
  -2.4150000000000001E-002     8.8900244068497828E-011
  -2.4100000000000000E-002     9.8843799298875187E-011
  -2.4049999999999998E-002     1.0840450727379102E-010
  -2.4000000000000000E-002     1.1779833125219385E-010
  -2.3949999999999999E-002     1.2727574371872194E-010
  -2.3900000000000001E-002     1.3707127551779856E-010
  -2.3850000000000000E-002     1.4735270738574030E-010
  -2.3800000000000002E-002     1.5817639948476559E-010
  -2.3750000000000000E-002     1.6945768960840264E-010
  -2.3699999999999999E-002     1.8096551889575710E-010
  -2.3650000000000001E-002     1.9234805870846923E-010
  -2.3599999999999999E-002     2.0319113847741551E-010
  -2.3550000000000001E-002     2.1310292904870431E-010
  -2.3500000000000000E-002     2.2180996101316978E-010
  -2.3449999999999999E-002     2.2924337292981735E-010
  -2.3400000000000001E-002     2.3559174210734188E-010
  -2.3349999999999999E-002     2.4130224784530832E-010
  -2.3300000000000001E-002     2.4702168774083995E-010
  -2.3250000000000000E-002     2.5348340807342892E-010
  -2.3199999999999998E-002     2.6136164438179427E-010
  -2.3150000000000000E-002     2.7112511792361055E-010
  -2.3099999999999999E-002     2.8292457166205714E-010
  -2.3050000000000001E-002     2.9654349798464565E-010
  -2.3000000000000000E-002     3.1142784096529038E-010
  -2.2950000000000002E-002     3.2679058639128314E-010
  -2.2900000000000000E-002     3.4177042426936070E-010
  -2.2849999999999999E-002     3.5560862655943181E-010
  -2.2800000000000001E-002     3.6780511103789823E-010
  -2.2749999999999999E-002     3.7821856720888975E-010
  -2.2700000000000001E-002     3.8709093908751034E-010
  -2.2650000000000000E-002     3.9499346285653983E-010
  -2.2599999999999999E-002     4.0270999946493977E-010
  -2.2550000000000001E-002     4.1108586248410133E-010
  -2.2499999999999999E-002     4.2087503581731484E-010
  -2.2450000000000001E-002     4.3261534083600123E-010
  -2.2400000000000000E-002     4.4655101149626294E-010
  -2.2349999999999998E-002     4.6261127472369056E-010
  -2.2300000000000000E-002     4.8044043997517511E-010
  -2.2249999999999999E-002     4.9946914238757684E-010
  -2.2200000000000001E-002     5.1901145415435963E-010
  -2.2150000000000000E-002     5.3837350898751997E-010
  -2.2100000000000002E-002     5.5696060902806985E-010
  -2.2050000000000000E-002     5.7437223664143744E-010
  -2.1999999999999999E-002     5.9047329039663807E-010
  -2.1950000000000001E-002     6.0543134645498748E-010
  -2.1899999999999999E-002     6.1970987922197915E-010
  -2.1850000000000001E-002     6.3401049570042821E-010
  -2.1800000000000000E-002     6.4916568653502166E-010
  -2.1749999999999999E-002     6.6599515578608763E-010
  -2.1700000000000001E-002     6.8514946025296975E-010
  -2.1649999999999999E-002     7.0697368381164117E-010
  -2.1600000000000001E-002     7.3142385908956880E-010
  -2.1550000000000000E-002     7.5806080998037696E-010
  -2.1499999999999998E-002     7.8613081953778738E-010
  -2.1450000000000000E-002     8.1471894521114675E-010
  -2.1399999999999999E-002     8.4294436777835802E-010
  -2.1350000000000001E-002     8.7015295962329501E-010
  -2.1299999999999999E-002     8.9606353587961490E-010
  -2.1250000000000002E-002     9.2083285242194326E-010
  -2.1200000000000000E-002     9.4502501428620994E-010
  -2.1149999999999999E-002     9.6949395876539756E-010
  -2.1100000000000001E-002     9.9520433776021941E-010
  -2.1049999999999999E-002     1.0230331253718201E-009
  -2.1000000000000001E-002     1.0535905289584009E-009
  -2.0950000000000000E-002     1.0870983524242765E-009
  -2.0899999999999998E-002     1.1233445233638264E-009
  -2.0850000000000000E-002     1.1617208008670743E-009
  -2.0799999999999999E-002     1.2013362315061520E-009
  -2.0750000000000001E-002     1.2411863372376979E-009
  -2.0700000000000000E-002     1.2803514319404036E-009
  -2.0649999999999998E-002     1.3181935809719666E-009
  -2.0600000000000000E-002     1.3545150185475167E-009
  -2.0549999999999999E-002     1.3896467259102337E-009
  -2.0500000000000001E-002     1.4244382127167581E-009
  -2.0449999999999999E-002     1.4601412292859713E-009
  -2.0400000000000001E-002     1.4981969807084529E-009
  -2.0350000000000000E-002     1.5399640025892128E-009
  -2.0299999999999999E-002     1.5864392580132908E-009
  -2.0250000000000001E-002     1.6380368374426084E-009
  -2.0199999999999999E-002     1.6944795626836765E-009
  -2.0150000000000001E-002     1.7548362412509565E-009
  -2.0100000000000000E-002     1.8176986534454676E-009
  -2.0049999999999998E-002     1.8814656025057707E-009
  -2.0000000000000000E-002     1.9446643102704489E-009
  -1.9949999999999999E-002     2.0062380878269244E-009
  -1.9900000000000001E-002     2.0657370006079511E-009
  -1.9850000000000000E-002     2.1233756525323523E-009
  -1.9799999999999998E-002     2.1799603692661942E-009
  -1.9750000000000000E-002     2.2367190566768942E-009
  -1.9699999999999999E-002     2.2950765622109904E-009
  -1.9650000000000001E-002     2.3564309688136223E-009
  -1.9599999999999999E-002     2.4219590817147568E-009
  -1.9550000000000001E-002     2.4924696365343306E-009
  -1.9500000000000000E-002     2.5683086292957427E-009
  -1.9449999999999999E-002     2.6493133762294121E-009
  -1.9400000000000001E-002     2.7348195209982132E-009
  -1.9349999999999999E-002     2.8237291481227015E-009
  -1.9300000000000001E-002     2.9146552689663631E-009
  -1.9250000000000000E-002     3.0061409408541928E-009
  -1.9199999999999998E-002     3.0969332447049396E-009
  -1.9150000000000000E-002     3.1862621103648708E-009
  -1.9099999999999999E-002     3.2740636288430361E-009
  -1.9050000000000001E-002     3.3610746674964768E-009
  -1.9000000000000000E-002     3.4487558764493713E-009
  -1.8949999999999998E-002     3.5390392692598107E-009
  -1.8900000000000000E-002     3.6339491295236733E-009
  -1.8849999999999999E-002     3.7351853191309542E-009
  -1.8800000000000001E-002     3.8437741738593146E-009
  -1.8749999999999999E-002     3.9598823435732600E-009
  -1.8700000000000001E-002     4.0828367624527187E-009
  -1.8650000000000000E-002     4.2113386944140593E-009
  -1.8599999999999998E-002     4.3438038115427639E-009
  -1.8550000000000001E-002     4.4787345380745054E-009
  -1.8499999999999999E-002     4.6150348204885266E-009
  -1.8450000000000001E-002     4.7521972071389642E-009
  -1.8400000000000000E-002     4.8903516315600314E-009
  -1.8349999999999998E-002     5.0301761885701491E-009
  -1.8300000000000000E-002     5.1727306049815988E-009
  -1.8249999999999999E-002     5.3192479496988095E-009
  -1.8200000000000001E-002     5.4709222026620796E-009
  -1.8149999999999999E-002     5.6287122980201420E-009
  -1.8100000000000002E-002     5.7931736296021621E-009
  -1.8050000000000000E-002     5.9643302642499387E-009
  -1.7999999999999999E-002     6.1416146956575385E-009
  -1.7950000000000001E-002     6.3239025779722916E-009
  -1.7899999999999999E-002     6.5096719815856896E-009
  -1.7850000000000001E-002     6.6972751340778100E-009
  -1.7800000000000000E-002     6.8853044825187913E-009
  -1.7749999999999998E-002     7.0729588121319619E-009
  -1.7700000000000000E-002     7.2603216005437531E-009
  -1.7649999999999999E-002     7.4484555408922364E-009
  -1.7600000000000001E-002     7.6392665102026710E-009
  -1.7550000000000000E-002     7.8351569785367550E-009
  -1.7499999999999998E-002     8.0385588848072598E-009
  -1.7450000000000000E-002     8.2514581714878182E-009
  -1.7399999999999999E-002     8.4750572788571890E-009
  -1.7350000000000001E-002     8.7096525452033095E-009
  -1.7299999999999999E-002     8.9547436648839024E-009
  -1.7250000000000001E-002     9.2093115897795168E-009
  -1.7200000000000000E-002     9.4721722077094348E-009
  -1.7149999999999999E-002     9.7422960555000560E-009
  -1.7100000000000001E-002     1.0019015377137810E-008
  -1.7049999999999999E-002     1.0302108573909941E-008
  -1.7000000000000001E-002     1.0591779032289712E-008
  -1.6950000000000000E-002     1.0888596355480356E-008
  -1.6899999999999998E-002     1.1193425078981034E-008
  -1.6850000000000000E-002     1.1507375135162199E-008
  -1.6799999999999999E-002     1.1831723205640792E-008
  -1.6750000000000001E-002     1.2167802809414115E-008
  -1.6700000000000000E-002     1.2516776872899011E-008
  -1.6649999999999998E-002     1.2879335002478185E-008
  -1.6600000000000000E-002     1.3255367970134472E-008
  -1.6549999999999999E-002     1.3643738537170313E-008
  -1.6500000000000001E-002     1.4042245631130406E-008
  -1.6449999999999999E-002     1.4447876251921685E-008
  -1.6400000000000001E-002     1.4857318541290572E-008
  -1.6350000000000000E-002     1.5267629363851723E-008
  -1.6299999999999999E-002     1.5676881098947415E-008
  -1.6250000000000001E-002     1.6084614047834936E-008
  -1.6199999999999999E-002     1.6491941248004332E-008
  -1.6150000000000001E-002     1.6901293373095995E-008
  -1.6100000000000000E-002     1.7315883596773400E-008
  -1.6049999999999998E-002     1.7739037856528060E-008
  -1.6000000000000000E-002     1.8173585533293861E-008
  -1.5949999999999999E-002     1.8621460541742615E-008
  -1.5900000000000001E-002     1.9083597663673543E-008
  -1.5850000000000000E-002     1.9560105511840677E-008
  -1.5799999999999998E-002     2.0050617864045074E-008
  -1.5750000000000000E-002     2.0554717626147319E-008
  -1.5699999999999999E-002     2.1072277011669140E-008
  -1.5650000000000001E-002     2.1603697335596110E-008
  -1.5599999999999999E-002     2.2149998096076640E-008
  -1.5550000000000001E-002     2.2712801320275184E-008
  -1.5500000000000000E-002     2.3294249460265074E-008
  -1.5449999999999998E-002     2.3896872562743727E-008
  -1.5400000000000000E-002     2.4523429460602228E-008
  -1.5349999999999999E-002     2.5176677147739087E-008
  -1.5300000000000001E-002     2.5859077324937580E-008
  -1.5250000000000000E-002     2.6572467936075696E-008
  -1.5199999999999998E-002     2.7317734421929916E-008
  -1.5150000000000000E-002     2.8094597562516329E-008
  -1.5099999999999999E-002     2.8901551535293485E-008
  -1.5050000000000001E-002     2.9735995508985139E-008
  -1.4999999999999999E-002     3.0594547375133437E-008
  -1.4949999999999998E-002     3.1473489209364370E-008
  -1.4900000000000000E-002     3.2369216344492065E-008
  -1.4849999999999999E-002     3.3278631541835748E-008
  -1.4800000000000001E-002     3.4199384173959376E-008
  -1.4749999999999999E-002     3.5129924587493807E-008
  -1.4700000000000001E-002     3.6069390256611850E-008
  -1.4650000000000000E-002     3.7017433425876588E-008
  -1.4599999999999998E-002     3.7974004639136355E-008
  -1.4550000000000000E-002     3.8939169482193880E-008
  -1.4499999999999999E-002     3.9912993019902047E-008
  -1.4450000000000001E-002     4.0895458012572620E-008
  -1.4400000000000000E-002     4.1886427622668738E-008
  -1.4349999999999998E-002     4.2885707586057941E-008
  -1.4300000000000000E-002     4.3893228988501268E-008
  -1.4249999999999999E-002     4.4909354934784630E-008
  -1.4200000000000001E-002     4.5935243918845733E-008
  -1.4149999999999999E-002     4.6973287094082698E-008
  -1.4099999999999998E-002     4.8027407820759214E-008
  -1.4050000000000000E-002     4.9103208981294346E-008
  -1.3999999999999999E-002     5.0207805900317774E-008
  -1.3950000000000001E-002     5.1349385949931495E-008
  -1.3899999999999999E-002     5.2536552645060606E-008
  -1.3850000000000001E-002     5.3777545565842815E-008
  -1.3800000000000000E-002     5.5079595495704189E-008
  -1.3749999999999998E-002     5.6448499023634119E-008
  -1.3700000000000000E-002     5.7888514420161065E-008
  -1.3649999999999999E-002     5.9402559512682984E-008
  -1.3600000000000001E-002     6.0992618094630613E-008
  -1.3550000000000000E-002     6.2660140755262471E-008
  -1.3499999999999998E-002     6.4406371824089561E-008
  -1.3450000000000000E-002     6.6232467677071744E-008
  -1.3399999999999999E-002     6.8139447704443612E-008
  -1.3350000000000001E-002     7.0128014822516057E-008
  -1.3299999999999999E-002     7.2198305597057342E-008
  -1.3249999999999998E-002     7.4349690335159728E-008
  -1.3200000000000000E-002     7.6580633169787246E-008
  -1.3149999999999998E-002     7.8888656482681998E-008
  -1.3100000000000001E-002     8.1270298769807294E-008
  -1.3049999999999999E-002     8.3721114792589417E-008
  -1.3000000000000001E-002     8.6235604247189822E-008
  -1.2950000000000000E-002     8.8807175669797664E-008
  -1.2899999999999998E-002     9.1428222309675525E-008
  -1.2850000000000000E-002     9.4090417809546930E-008
  -1.2799999999999999E-002     9.6785249032824147E-008