  -4.0000000000000001E-002     0.0000000000000000     
  -3.9949999999999999E-002     0.0000000000000000     
  -3.9899999999999998E-002     0.0000000000000000     
  -3.9850000000000003E-002     0.0000000000000000     
  -3.9800000000000002E-002     0.0000000000000000     
  -3.9750000000000001E-002     0.0000000000000000     
  -3.9699999999999999E-002     0.0000000000000000     
  -3.9649999999999998E-002     0.0000000000000000     
  -3.9600000000000003E-002     0.0000000000000000     
  -3.9550000000000002E-002     0.0000000000000000     
  -3.9500000000000000E-002     0.0000000000000000     
  -3.9449999999999999E-002     0.0000000000000000     
  -3.9399999999999998E-002     0.0000000000000000     
  -3.9350000000000003E-002     0.0000000000000000     
  -3.9300000000000002E-002     0.0000000000000000     
  -3.9250000000000000E-002     0.0000000000000000     
  -3.9199999999999999E-002     0.0000000000000000     
  -3.9150000000000004E-002     0.0000000000000000     
  -3.9100000000000003E-002     0.0000000000000000     
  -3.9050000000000001E-002     0.0000000000000000     
  -3.9000000000000000E-002     0.0000000000000000     
  -3.8949999999999999E-002     0.0000000000000000     
  -3.8900000000000004E-002     0.0000000000000000     
  -3.8850000000000003E-002     0.0000000000000000     
  -3.8800000000000001E-002     0.0000000000000000     
  -3.8750000000000000E-002     0.0000000000000000     
  -3.8699999999999998E-002     0.0000000000000000     
  -3.8650000000000004E-002     0.0000000000000000     
  -3.8600000000000002E-002     0.0000000000000000     
  -3.8550000000000001E-002     0.0000000000000000     
  -3.8500000000000000E-002     0.0000000000000000     
  -3.8449999999999998E-002     0.0000000000000000     
  -3.8400000000000004E-002     0.0000000000000000     
  -3.8350000000000002E-002     0.0000000000000000     
  -3.8300000000000001E-002     0.0000000000000000     
  -3.8249999999999999E-002     0.0000000000000000     
  -3.8199999999999998E-002     0.0000000000000000     
  -3.8150000000000003E-002     0.0000000000000000     
  -3.8100000000000002E-002     0.0000000000000000     
  -3.8050000000000000E-002     0.0000000000000000     
  -3.7999999999999999E-002     0.0000000000000000     
  -3.7949999999999998E-002     0.0000000000000000     
  -3.7900000000000003E-002     0.0000000000000000     
  -3.7850000000000002E-002     0.0000000000000000     
  -3.7800000000000000E-002     0.0000000000000000     
  -3.7749999999999999E-002     0.0000000000000000     
  -3.7699999999999997E-002     0.0000000000000000     
  -3.7650000000000003E-002     0.0000000000000000     
  -3.7600000000000001E-002     0.0000000000000000     
  -3.7550000000000000E-002     0.0000000000000000     
  -3.7499999999999999E-002     0.0000000000000000     
  -3.7449999999999997E-002     0.0000000000000000     
  -3.7400000000000003E-002     0.0000000000000000     
  -3.7350000000000001E-002     0.0000000000000000     
  -3.7300000000000000E-002     0.0000000000000000     
  -3.7249999999999998E-002     0.0000000000000000     
  -3.7200000000000004E-002     0.0000000000000000     
  -3.7150000000000002E-002     0.0000000000000000     
  -3.7100000000000001E-002     0.0000000000000000     
  -3.7050000000000000E-002     0.0000000000000000     
  -3.6999999999999998E-002     0.0000000000000000     
  -3.6950000000000004E-002     0.0000000000000000     
  -3.6900000000000002E-002     0.0000000000000000     
  -3.6850000000000001E-002     0.0000000000000000     
  -3.6799999999999999E-002     0.0000000000000000     
  -3.6749999999999998E-002     0.0000000000000000     
  -3.6700000000000003E-002     0.0000000000000000     
  -3.6650000000000002E-002     0.0000000000000000     
  -3.6600000000000001E-002     0.0000000000000000     
  -3.6549999999999999E-002     0.0000000000000000     
  -3.6499999999999998E-002     0.0000000000000000     
  -3.6450000000000003E-002     0.0000000000000000     
  -3.6400000000000002E-002     0.0000000000000000     
  -3.6350000000000000E-002     0.0000000000000000     
  -3.6299999999999999E-002     0.0000000000000000     
  -3.6249999999999998E-002     0.0000000000000000     
  -3.6200000000000003E-002     0.0000000000000000     
  -3.6150000000000002E-002     0.0000000000000000     
  -3.6100000000000000E-002     0.0000000000000000     
  -3.6049999999999999E-002     0.0000000000000000     
  -3.6000000000000004E-002     0.0000000000000000     
  -3.5950000000000003E-002     0.0000000000000000     
  -3.5900000000000001E-002     0.0000000000000000     
  -3.5850000000000000E-002     0.0000000000000000     
  -3.5799999999999998E-002     0.0000000000000000     
  -3.5750000000000004E-002     0.0000000000000000     
  -3.5700000000000003E-002     0.0000000000000000     
  -3.5650000000000001E-002     0.0000000000000000     
  -3.5600000000000000E-002     0.0000000000000000     
  -3.5549999999999998E-002     0.0000000000000000     
  -3.5500000000000004E-002     0.0000000000000000     
  -3.5450000000000002E-002     0.0000000000000000     
  -3.5400000000000001E-002     0.0000000000000000     
  -3.5349999999999999E-002     0.0000000000000000     
  -3.5299999999999998E-002     0.0000000000000000     
  -3.5250000000000004E-002     0.0000000000000000     
  -3.5200000000000002E-002     0.0000000000000000     
  -3.5150000000000001E-002     0.0000000000000000     
  -3.5099999999999999E-002     0.0000000000000000     
  -3.5049999999999998E-002     0.0000000000000000     
  -3.5000000000000003E-002     0.0000000000000000     
  -3.4950000000000002E-002     0.0000000000000000     
  -3.4900000000000000E-002     0.0000000000000000     
  -3.4849999999999999E-002     0.0000000000000000     
  -3.4799999999999998E-002     0.0000000000000000     
  -3.4750000000000003E-002     0.0000000000000000     
  -3.4700000000000002E-002     0.0000000000000000     
  -3.4650000000000000E-002     0.0000000000000000     
  -3.4599999999999999E-002     0.0000000000000000     
  -3.4549999999999997E-002     0.0000000000000000     
  -3.4500000000000003E-002     0.0000000000000000     
  -3.4450000000000001E-002     0.0000000000000000     
  -3.4400000000000000E-002     0.0000000000000000     
  -3.4349999999999999E-002     0.0000000000000000     
  -3.4299999999999997E-002     0.0000000000000000     
  -3.4250000000000003E-002     0.0000000000000000     
  -3.4200000000000001E-002     0.0000000000000000     
  -3.4150000000000000E-002     0.0000000000000000     
  -3.4099999999999998E-002     0.0000000000000000     
  -3.4049999999999997E-002     0.0000000000000000     
  -3.4000000000000002E-002     0.0000000000000000     
  -3.3950000000000001E-002     0.0000000000000000     
  -3.3900000000000000E-002     0.0000000000000000     
  -3.3849999999999998E-002     0.0000000000000000     
  -3.3799999999999997E-002     0.0000000000000000     
  -3.3750000000000002E-002     0.0000000000000000     
  -3.3700000000000001E-002     0.0000000000000000     
  -3.3649999999999999E-002     0.0000000000000000     
  -3.3599999999999998E-002     0.0000000000000000     
  -3.3550000000000003E-002     0.0000000000000000     
  -3.3500000000000002E-002     0.0000000000000000     
  -3.3450000000000001E-002     0.0000000000000000     
  -3.3399999999999999E-002     0.0000000000000000     
  -3.3349999999999998E-002     0.0000000000000000     
  -3.3300000000000003E-002     0.0000000000000000     
  -3.3250000000000002E-002     0.0000000000000000     
  -3.3200000000000000E-002     0.0000000000000000     
  -3.3149999999999999E-002     0.0000000000000000     
  -3.3099999999999997E-002     0.0000000000000000     
  -3.3050000000000003E-002     0.0000000000000000     
  -3.3000000000000002E-002     0.0000000000000000     
  -3.2950000000000000E-002     0.0000000000000000     
  -3.2899999999999999E-002     0.0000000000000000     
  -3.2850000000000004E-002     0.0000000000000000     
  -3.2800000000000003E-002     0.0000000000000000     
  -3.2750000000000001E-002     0.0000000000000000     
  -3.2700000000000000E-002     0.0000000000000000     
  -3.2649999999999998E-002     0.0000000000000000     
  -3.2600000000000004E-002     0.0000000000000000     
  -3.2550000000000003E-002     0.0000000000000000     
  -3.2500000000000001E-002     0.0000000000000000     
  -3.2450000000000000E-002     0.0000000000000000     
  -3.2399999999999998E-002     0.0000000000000000     
  -3.2350000000000004E-002     0.0000000000000000     
  -3.2300000000000002E-002     0.0000000000000000     
  -3.2250000000000001E-002     0.0000000000000000     
  -3.2199999999999999E-002     0.0000000000000000     
  -3.2149999999999998E-002     0.0000000000000000     
  -3.2100000000000004E-002     0.0000000000000000     
  -3.2050000000000002E-002     0.0000000000000000     
  -3.2000000000000001E-002     0.0000000000000000     
  -3.1949999999999999E-002     0.0000000000000000     
  -3.1899999999999998E-002     0.0000000000000000     
  -3.1850000000000003E-002     0.0000000000000000     
  -3.1800000000000002E-002     0.0000000000000000     
  -3.1750000000000000E-002     0.0000000000000000     
  -3.1699999999999999E-002     0.0000000000000000     
  -3.1649999999999998E-002     0.0000000000000000     
  -3.1600000000000003E-002     0.0000000000000000     
  -3.1550000000000002E-002     0.0000000000000000     
  -3.1500000000000000E-002     0.0000000000000000     
  -3.1449999999999999E-002     0.0000000000000000     
  -3.1399999999999997E-002     0.0000000000000000     
  -3.1350000000000003E-002     0.0000000000000000     
  -3.1300000000000001E-002     0.0000000000000000     
  -3.1250000000000000E-002     0.0000000000000000     
  -3.1199999999999999E-002     0.0000000000000000     
  -3.1150000000000001E-002     0.0000000000000000     
  -3.1100000000000003E-002     0.0000000000000000     
  -3.1050000000000001E-002     0.0000000000000000     
  -3.1000000000000000E-002     0.0000000000000000     
  -3.0949999999999998E-002     0.0000000000000000     
  -3.0900000000000000E-002     0.0000000000000000     
  -3.0850000000000002E-002     0.0000000000000000     
  -3.0800000000000001E-002     0.0000000000000000     
  -3.0750000000000000E-002     0.0000000000000000     
  -3.0699999999999998E-002     0.0000000000000000     
  -3.0650000000000000E-002     0.0000000000000000     
  -3.0600000000000002E-002     0.0000000000000000     
  -3.0550000000000001E-002     0.0000000000000000     
  -3.0499999999999999E-002     0.0000000000000000     
  -3.0449999999999998E-002     0.0000000000000000     
  -3.0400000000000000E-002     0.0000000000000000     
  -3.0350000000000002E-002     0.0000000000000000     
  -3.0300000000000001E-002     0.0000000000000000     
  -3.0249999999999999E-002     0.0000000000000000     
  -3.0200000000000001E-002     0.0000000000000000     
  -3.0150000000000000E-002     0.0000000000000000     
  -3.0100000000000002E-002     0.0000000000000000     
  -3.0050000000000000E-002     0.0000000000000000     
  -2.9999999999999999E-002     0.0000000000000000     
  -2.9950000000000001E-002     0.0000000000000000     
  -2.9899999999999999E-002     0.0000000000000000     
  -2.9850000000000002E-002     0.0000000000000000     
  -2.9800000000000000E-002     0.0000000000000000     
  -2.9749999999999999E-002     0.0000000000000000     
  -2.9700000000000001E-002     0.0000000000000000     
  -2.9650000000000003E-002     0.0000000000000000     
  -2.9600000000000001E-002     0.0000000000000000     
  -2.9550000000000000E-002     0.0000000000000000     
  -2.9499999999999998E-002     0.0000000000000000     
  -2.9450000000000000E-002     0.0000000000000000     
  -2.9400000000000003E-002     0.0000000000000000     
  -2.9350000000000001E-002     0.0000000000000000     
  -2.9300000000000000E-002     0.0000000000000000     
  -2.9249999999999998E-002     0.0000000000000000     
  -2.9200000000000000E-002     0.0000000000000000     
  -2.9150000000000002E-002     0.0000000000000000     
  -2.9100000000000001E-002     0.0000000000000000     
  -2.9049999999999999E-002     0.0000000000000000     
  -2.8999999999999998E-002     0.0000000000000000     
  -2.8950000000000000E-002     0.0000000000000000     
  -2.8900000000000002E-002     0.0000000000000000     
  -2.8850000000000001E-002     0.0000000000000000     
  -2.8799999999999999E-002     0.0000000000000000     
  -2.8749999999999998E-002     0.0000000000000000     
  -2.8700000000000000E-002     0.0000000000000000     
  -2.8650000000000002E-002     0.0000000000000000     
  -2.8600000000000000E-002     0.0000000000000000     
  -2.8549999999999999E-002     0.0000000000000000     
  -2.8500000000000001E-002     0.0000000000000000     
  -2.8450000000000000E-002     0.0000000000000000     
  -2.8400000000000002E-002     0.0000000000000000     
  -2.8350000000000000E-002     0.0000000000000000     
  -2.8299999999999999E-002     0.0000000000000000     
  -2.8250000000000001E-002     0.0000000000000000     
  -2.8200000000000003E-002     0.0000000000000000     
  -2.8150000000000001E-002     0.0000000000000000     
  -2.8100000000000000E-002     0.0000000000000000     
  -2.8049999999999999E-002     0.0000000000000000     
  -2.8000000000000001E-002     0.0000000000000000     
  -2.7950000000000003E-002     0.0000000000000000     
  -2.7900000000000001E-002     0.0000000000000000     
  -2.7850000000000000E-002     0.0000000000000000     
  -2.7799999999999998E-002     0.0000000000000000     
  -2.7750000000000000E-002     0.0000000000000000     
  -2.7700000000000002E-002     0.0000000000000000     
  -2.7650000000000001E-002     0.0000000000000000     
  -2.7600000000000000E-002     0.0000000000000000     
  -2.7549999999999998E-002     0.0000000000000000     
  -2.7500000000000000E-002     0.0000000000000000     
  -2.7450000000000002E-002     0.0000000000000000     
  -2.7400000000000001E-002     2.0492520867171042E-040
  -2.7349999999999999E-002     5.7754586244966003E-040
  -2.7299999999999998E-002     9.2397025697004015E-040
  -2.7250000000000000E-002     3.9845570122731297E-040
  -2.7200000000000002E-002    -9.9835113381040370E-040
  -2.7150000000000001E-002    -3.1735441781576052E-039
  -2.7099999999999999E-002    -4.2354429805738117E-039
  -2.7049999999999998E-002    -3.6223594948630410E-039
  -2.7000000000000000E-002     7.9276913995517536E-040
  -2.6950000000000002E-002    -6.7267891611231000E-039
  -2.6900000000000000E-002    -1.8876107517797746E-038
  -2.6849999999999999E-002    -4.7541259117074646E-039
  -2.6800000000000001E-002     2.4084868881969797E-038
  -2.6749999999999999E-002     7.0588294270488011E-038
  -2.6700000000000002E-002     1.1838270871001507E-037
  -2.6650000000000000E-002     9.3607263702579390E-038
  -2.6599999999999999E-002     5.2137099021006865E-039
  -2.6550000000000001E-002    -8.5539904415802569E-038
  -2.6500000000000003E-002    -1.4639536061560426E-037
  -2.6450000000000001E-002    -1.4239770726476423E-037
  -2.6400000000000000E-002    -9.4929785363293931E-038
  -2.6349999999999998E-002    -4.3735973687115876E-038
  -2.6300000000000000E-002     1.2596697757734214E-038
  -2.6250000000000002E-002     2.1205589747669008E-038
  -2.6200000000000001E-002    -6.1340316823595850E-038
  -2.6150000000000000E-002    -2.1219529456705082E-037
  -2.6099999999999998E-002    -3.3716334888687460E-037
  -2.6050000000000000E-002    -2.6744939006695938E-037
  -2.6000000000000002E-002     1.7354113847023922E-037
  -2.5950000000000001E-002     1.0315196473870179E-036
  -2.5899999999999999E-002     2.0755112283748732E-036
  -2.5849999999999998E-002     2.7348804119295249E-036
  -2.5800000000000000E-002     2.2360559323569533E-036
  -2.5750000000000002E-002    -2.4822532444224018E-038
  -2.5700000000000001E-002    -3.9793467621477377E-036
  -2.5649999999999999E-002    -8.4968729047554209E-036
  -2.5599999999999998E-002    -1.1406162680741415E-035
  -2.5550000000000000E-002    -1.0129277393575836E-035
  -2.5500000000000002E-002    -2.8779102745710965E-036
  -2.5450000000000000E-002     9.9664246041570385E-036
  -2.5399999999999999E-002     2.4940558840658736E-035
  -2.5349999999999998E-002     3.5756237355509432E-035
  -2.5300000000000000E-002     3.5126042971054254E-035
  -2.5250000000000002E-002     1.7926810303504484E-035
  -2.5200000000000000E-002    -1.5329412168071555E-035
  -2.5149999999999999E-002    -5.6339496132715675E-035
  -2.5100000000000001E-002    -8.9790993820807185E-035
  -2.5049999999999999E-002    -9.7854063496963576E-035
  -2.5000000000000001E-002    -6.7564869281673759E-035
  -2.4950000000000000E-002     1.4928093392005672E-036
  -2.4899999999999999E-002     9.2878239392979673E-035
  -2.4850000000000001E-002     1.7557137118489145E-034
  -2.4800000000000003E-002     2.1375891656399445E-034
  -2.4750000000000001E-002     1.8151475063433840E-034
  -2.4700000000000000E-002     7.6473228578068472E-035
  -2.4649999999999998E-002    -7.4570014159716608E-035
  -2.4600000000000000E-002    -2.2289882645022813E-034
  -2.4550000000000002E-002    -3.1711040223353240E-034
  -2.4500000000000001E-002    -3.2663437725556905E-034
  -2.4450000000000000E-002    -2.5725404544772758E-034
  -2.4399999999999998E-002    -1.4753714097322828E-034
  -2.4350000000000000E-002    -4.3420376130255454E-035
  -2.4299999999999999E-002     3.8660113036907316E-035
  -2.4250000000000001E-002     1.3791902371687085E-034
  -2.4199999999999999E-002     3.3996794282793984E-034
  -2.4150000000000001E-002     7.1989540369802337E-034
  -2.4100000000000000E-002     1.2518549470431736E-033
  -2.4049999999999998E-002     1.7299518436764131E-033
  -2.4000000000000000E-002     1.7631522801500377E-033
  -2.3949999999999999E-002     8.9507226974752679E-034
  -2.3900000000000001E-002    -1.1496948306544260E-033
  -2.3850000000000000E-002    -4.1668635256834069E-033
  -2.3800000000000002E-002    -7.2670042019960181E-033
  -2.3750000000000000E-002    -8.9334893689417566E-033
  -2.3699999999999999E-002    -7.4556446693894585E-033
  -2.3650000000000001E-002    -1.7014983919181181E-033
  -2.3599999999999999E-002     8.0028555203716051E-033
  -2.3550000000000001E-002     1.9285019382936824E-032
  -2.3500000000000000E-002     2.7859294608075591E-032
  -2.3449999999999999E-002     2.8639023532548070E-032
  -2.3400000000000001E-002     1.7714532690866454E-032
  -2.3349999999999999E-002    -5.3813051057911127E-033
  -2.3300000000000001E-002    -3.6060291896441802E-032
  -2.3250000000000000E-002    -6.4705673532781166E-032
  -2.3199999999999998E-002    -7.8920801102218160E-032
  -2.3150000000000000E-002    -6.7766591026713381E-032
  -2.3099999999999999E-002    -2.6780520622748855E-032
  -2.3050000000000001E-002     3.8154485371703680E-032
  -2.3000000000000000E-002     1.1008260995861723E-031
  -2.2950000000000002E-002     1.6455626064376914E-031
  -2.2900000000000000E-002     1.7712516908297301E-031
  -2.2849999999999999E-002     1.3255457388507786E-031
  -2.2800000000000001E-002     3.2378167847370359E-032
  -2.2749999999999999E-002    -1.0256484253362942E-031
  -2.2700000000000001E-002    -2.3640215611190655E-031
  -2.2650000000000000E-002    -3.2845963424793297E-031
  -2.2599999999999999E-002    -3.4593224390535813E-031
  -2.2550000000000001E-002    -2.7409284690611305E-031
  -2.2499999999999999E-002    -1.1997387081413617E-031
  -2.2450000000000001E-002     9.1528253244744578E-032
  -2.2400000000000000E-002     3.2622820447150566E-031
  -2.2349999999999998E-002     5.4823075792464888E-031
  -2.2300000000000000E-002     7.2122186579033073E-031
  -2.2249999999999999E-002     8.0243460730230900E-031
  -2.2200000000000001E-002     7.3492595163372614E-031
  -2.2150000000000000E-002     4.4936436288885905E-031
  -2.2100000000000002E-002    -1.1331590761703927E-031
  -2.2050000000000000E-002    -9.5513305366778437E-031
  -2.1999999999999999E-002    -1.9622866282507916E-030
  -2.1950000000000001E-002    -2.8635077085897887E-030
  -2.1899999999999999E-002    -3.2437631345458097E-030
  -2.1850000000000001E-002    -2.6435075386029811E-030
  -2.1800000000000000E-002    -7.4430032390691271E-031
  -2.1749999999999999E-002     2.4035421016235297E-030
  -2.1700000000000001E-002     6.2003044992111024E-030
  -2.1649999999999999E-002     9.4734375865923090E-030
  -2.1600000000000001E-002     1.0698333303631099E-029
  -2.1550000000000000E-002     8.4753929625320638E-030
  -2.1499999999999998E-002     2.1637184841355719E-030
  -2.1450000000000000E-002    -7.5389803426068419E-030
  -2.1399999999999999E-002    -1.8338940717137863E-029
  -2.1350000000000001E-002    -2.6640808978361803E-029
  -2.1299999999999999E-002    -2.8470674411639803E-029
  -2.1250000000000002E-002    -2.0867926613210849E-029
  -2.1200000000000000E-002    -3.3419362982411963E-030
  -2.1149999999999999E-002     2.1159742203136880E-029
  -2.1100000000000001E-002     4.6289997377492500E-029
  -2.1049999999999999E-002     6.3611000052403250E-029
  -2.1000000000000001E-002     6.5011615685529269E-029
  -2.0950000000000000E-002     4.5609706258656868E-029
  -2.0899999999999998E-002     6.1957634720819962E-030
  -2.0850000000000000E-002    -4.5745903860459794E-029
  -2.0799999999999999E-002    -9.7058893730361983E-029
  -2.0750000000000001E-002    -1.3196850155507252E-028
  -2.0700000000000000E-002    -1.3644367742614954E-028
  -2.0649999999999998E-002    -1.0261855075590141E-028
  -2.0600000000000000E-002    -3.1912141710271422E-029
  -2.0549999999999999E-002     6.4143790101064634E-029
  -2.0500000000000001E-002     1.6563500621385808E-028
  -2.0449999999999999E-002     2.4803936037085538E-028
  -2.0400000000000001E-002     2.8703182171165325E-028
  -2.0350000000000000E-002     2.6329267177230841E-028
  -2.0299999999999999E-002     1.6671414859906726E-028
  -2.0250000000000001E-002    -6.0200636508548487E-032
  -2.0199999999999999E-002    -2.1862877405233127E-028
  -2.0150000000000001E-002    -4.5268153708724055E-028
  -2.0100000000000000E-002    -6.4808993942671612E-028
  -2.0049999999999998E-002    -7.3771048079787552E-028
  -2.0000000000000000E-002    -6.5356049397669916E-028
  -1.9949999999999999E-002    -3.4743014329510593E-028
  -1.9900000000000001E-002     1.8264904349279746E-028
  -1.9850000000000000E-002     8.6751823391777452E-028
  -1.9799999999999998E-002     1.5551617766427385E-027
  -1.9750000000000000E-002     2.0245243250386659E-027
  -1.9699999999999999E-002     2.0326282996878899E-027
  -1.9650000000000001E-002     1.3922187392456287E-027
  -1.9599999999999999E-002     6.2932554839007157E-029
  -1.9550000000000001E-002    -1.7741153211548021E-027
  -1.9500000000000000E-002    -3.6942136961774583E-027
  -1.9449999999999999E-002    -5.0883777701776047E-027
  -1.9400000000000001E-002    -5.3117855523976520E-027
  -1.9349999999999999E-002    -3.8971207975159798E-027
  -1.9300000000000001E-002    -7.7564743825433270E-028
  -1.9250000000000000E-002     3.5723122844638774E-027
  -1.9199999999999998E-002     8.1132636468016045E-027
  -1.9150000000000000E-002     1.1446587993350259E-026
  -1.9099999999999999E-002     1.2167608410411243E-026
  -1.9050000000000001E-002     9.3279202170847833E-027
  -1.9000000000000000E-002     2.8597180452663906E-027
  -1.8949999999999998E-002    -6.1869385502099351E-027
  -1.8900000000000000E-002    -1.5713168019235435E-026
  -1.8849999999999999E-002    -2.2986508816831781E-026
  -1.8800000000000001E-002    -2.5335483559305620E-026
  -1.8749999999999999E-002    -2.0955617601773723E-026
  -1.8700000000000001E-002    -9.5995107133779556E-027
  -1.8650000000000000E-002     7.0696417200694312E-027
  -1.8599999999999998E-002     2.5605007597184666E-026
  -1.8550000000000001E-002     4.1401835338036164E-026
  -1.8499999999999999E-002     4.9704591974830176E-026
  -1.8450000000000001E-002     4.6774924177642982E-026
  -1.8400000000000000E-002     3.0958831201382501E-026
  -1.8349999999999998E-002     3.4170121127321675E-027
  -1.8300000000000000E-002    -3.1644817829752712E-026
  -1.8249999999999999E-002    -6.7323529936402416E-026
  -1.8200000000000001E-002    -9.4952046378022226E-026
  -1.8149999999999999E-002    -1.0557638083957955E-025
  -1.8100000000000002E-002    -9.1881294499910620E-026
  -1.8050000000000000E-002    -5.0374615303307335E-026
  -1.7999999999999999E-002     1.6519395355874313E-026
  -1.7950000000000001E-002     9.9011804472019746E-026
  -1.7899999999999999E-002     1.7986271479583653E-025
  -1.7850000000000001E-002     2.3636209125895535E-025
  -1.7800000000000000E-002     2.4476609056027245E-025
  -1.7749999999999998E-002     1.8690282943970033E-025
  -1.7700000000000000E-002     5.7728280027392733E-026
  -1.7649999999999999E-002    -1.2831187125049562E-025
  -1.7600000000000001E-002    -3.3477389504372148E-025
  -1.7550000000000000E-002    -5.0693523281260087E-025
  -1.7499999999999998E-002    -5.8280645479050990E-025
  -1.7450000000000000E-002    -5.1029112860880658E-025
  -1.7399999999999999E-002    -2.6676751683014643E-025
  -1.7350000000000001E-002     1.2472896832198896E-025
  -1.7299999999999999E-002     5.8920374127348951E-025
  -1.7250000000000001E-002     1.0083063312430133E-024
  -1.7200000000000000E-002     1.2452082185374125E-024
  -1.7149999999999999E-002     1.1819979479931422E-024
  -1.7100000000000001E-002     7.6068895905381350E-025
  -1.7049999999999999E-002     1.5576607322021464E-026
  -1.7000000000000001E-002    -9.1530939982842181E-025
  -1.6950000000000000E-002    -1.8078276014372246E-024
  -1.6899999999999998E-002    -2.3990107540466638E-024
  -1.6850000000000000E-002    -2.4554244793327261E-024
  -1.6799999999999999E-002    -1.8460064972388875E-024
  -1.6750000000000001E-002    -5.9872850924518544E-025
  -1.6700000000000000E-002     1.0778484290700013E-024
  -1.6649999999999998E-002     2.8194353305180629E-024
  -1.6600000000000000E-002     4.1768338347574513E-024
  -1.6549999999999999E-002     4.7195803239367712E-024
  -1.6500000000000001E-002     4.1493617029011568E-024
  -1.6449999999999999E-002     2.3958669273973276E-024
  -1.6400000000000001E-002    -3.2975729940561226E-025
  -1.6350000000000000E-002    -3.5402600872027176E-024
  -1.6299999999999999E-002    -6.5409947429892866E-024
  -1.6250000000000001E-002    -8.5542077073658119E-024
  -1.6199999999999999E-002    -8.8806873253368791E-024
  -1.6150000000000001E-002    -7.0730203667891580E-024
  -1.6100000000000000E-002    -3.0898346655695631E-024
  -1.6049999999999998E-002     2.6022482695897632E-024
  -1.6000000000000000E-002     9.0122542396572011E-024
  -1.5949999999999999E-002     1.4722488625216947E-023
  -1.5900000000000001E-002     1.8115262408728098E-023
  -1.5850000000000000E-002     1.7719108010615472E-023
  -1.5799999999999998E-002     1.2629005520314999E-023
  -1.5750000000000000E-002     2.9143878144007929E-024
  -1.5699999999999999E-002    -1.0104367589602812E-023
  -1.5650000000000001E-002    -2.3838936702439424E-023
  -1.5599999999999999E-002    -3.4772527363076505E-023
  -1.5550000000000001E-002    -3.9176142071996901E-023
  -1.5500000000000000E-002    -3.4108597353490215E-023
  -1.5449999999999998E-002    -1.8484530717696561E-023
  -1.5400000000000000E-002     6.0973399812245210E-024
  -1.5349999999999999E-002     3.5091260090683573E-023
  -1.5300000000000001E-002     6.1547133472526829E-023
  -1.5250000000000000E-002     7.7509880852374905E-023
  -1.5199999999999998E-002     7.6068698754301037E-023
  -1.5150000000000000E-002     5.3593502198844986E-023
  -1.5099999999999999E-002     1.1526901182453843E-023
  -1.5050000000000001E-002    -4.2904983521832954E-023
  -1.4999999999999999E-002    -9.7504238518931752E-023
  -1.4949999999999998E-002    -1.3750430284442432E-022
  -1.4900000000000000E-002    -1.4916937799280055E-022
  -1.4849999999999999E-002    -1.2377097218218427E-022
  -1.4800000000000001E-002    -6.0877034335866295E-023
  -1.4749999999999999E-002     3.0077045743589533E-023
  -1.4700000000000001E-002     1.3062651452823109E-022
  -1.4650000000000000E-002     2.1663700410897887E-022
  -1.4599999999999998E-002     2.6362777089115090E-022
  -1.4550000000000000E-002     2.5292015151407779E-022
  -1.4499999999999999E-002     1.7715303771907422E-022
  -1.4450000000000001E-002     4.3741562448163701E-023
  -1.4400000000000000E-002    -1.2475418653603432E-022
  -1.4349999999999998E-002    -2.9373970736411357E-022
  -1.4300000000000000E-002    -4.2282232965661473E-022
  -1.4249999999999999E-002    -4.7414925172304524E-022
  -1.4200000000000001E-002    -4.2134434709703169E-022
  -1.4149999999999999E-002    -2.5732050582310405E-022
  -1.4099999999999998E-002     7.2644092486435989E-025
  -1.4050000000000000E-002     3.1057178529520501E-022
  -1.3999999999999999E-002     6.0941203114387664E-022
  -1.3950000000000001E-002     8.2373834703156639E-022
  -1.3899999999999999E-002     8.8388324659835163E-022
  -1.3850000000000001E-002     7.4128580302667283E-022
  -1.3800000000000000E-002     3.8526108746964950E-022
  -1.3749999999999998E-002    -1.4493672390166744E-022
  -1.3700000000000000E-002    -7.5723125419290563E-022
  -1.3649999999999999E-002    -1.3165851648739740E-021
  -1.3600000000000001E-002    -1.6688337220967551E-021
  -1.3550000000000000E-002    -1.6761354035338589E-021
  -1.3499999999999998E-002    -1.2575532995947204E-021
  -1.3450000000000000E-002    -4.2477853310070037E-022
  -1.3399999999999999E-002     6.9849750546455856E-022
  -1.3350000000000001E-002     1.8834112209573965E-021
  -1.3299999999999999E-002     2.8336468904987696E-021
  -1.3249999999999998E-002     3.2507344055543044E-021
  -1.3200000000000000E-002     2.9146323579919710E-021
  -1.3149999999999998E-002     1.7599429023001941E-021
  -1.3100000000000001E-002    -7.4872991235119150E-023
  -1.3049999999999999E-002    -2.2446960197220398E-021
  -1.3000000000000001E-002    -4.2510719197251117E-021
  -1.2950000000000000E-002    -5.5469983168812736E-021
  -1.2899999999999998E-002    -5.6730452065629108E-021
  -1.2850000000000000E-002    -4.3926150679024667E-021
  -1.2799999999999999E-002    -1.7895423408172214E-021