  -4.0000000000000001E-002     0.0000000000000000     
  -3.9949999999999999E-002     0.0000000000000000     
  -3.9899999999999998E-002     0.0000000000000000     
  -3.9850000000000003E-002     0.0000000000000000     
  -3.9800000000000002E-002     0.0000000000000000     
  -3.9750000000000001E-002     0.0000000000000000     
  -3.9699999999999999E-002     0.0000000000000000     
  -3.9649999999999998E-002     0.0000000000000000     
  -3.9600000000000003E-002     0.0000000000000000     
  -3.9550000000000002E-002     0.0000000000000000     
  -3.9500000000000000E-002     0.0000000000000000     
  -3.9449999999999999E-002     0.0000000000000000     
  -3.9399999999999998E-002     0.0000000000000000     
  -3.9350000000000003E-002     0.0000000000000000     
  -3.9300000000000002E-002     0.0000000000000000     
  -3.9250000000000000E-002     0.0000000000000000     
  -3.9199999999999999E-002     0.0000000000000000     
  -3.9150000000000004E-002     0.0000000000000000     
  -3.9100000000000003E-002     0.0000000000000000     
  -3.9050000000000001E-002     0.0000000000000000     
  -3.9000000000000000E-002     0.0000000000000000     
  -3.8949999999999999E-002     0.0000000000000000     
  -3.8900000000000004E-002     0.0000000000000000     
  -3.8850000000000003E-002     0.0000000000000000     
  -3.8800000000000001E-002     0.0000000000000000     
  -3.8750000000000000E-002     0.0000000000000000     
  -3.8699999999999998E-002     0.0000000000000000     
  -3.8650000000000004E-002     0.0000000000000000     
  -3.8600000000000002E-002     0.0000000000000000     
  -3.8550000000000001E-002     0.0000000000000000     
  -3.8500000000000000E-002     0.0000000000000000     
  -3.8449999999999998E-002     0.0000000000000000     
  -3.8400000000000004E-002     0.0000000000000000     
  -3.8350000000000002E-002     0.0000000000000000     
  -3.8300000000000001E-002     0.0000000000000000     
  -3.8249999999999999E-002     0.0000000000000000     
  -3.8199999999999998E-002     0.0000000000000000     
  -3.8150000000000003E-002     0.0000000000000000     
  -3.8100000000000002E-002     0.0000000000000000     
  -3.8050000000000000E-002     0.0000000000000000     
  -3.7999999999999999E-002     0.0000000000000000     
  -3.7949999999999998E-002     0.0000000000000000     
  -3.7900000000000003E-002     0.0000000000000000     
  -3.7850000000000002E-002     0.0000000000000000     
  -3.7800000000000000E-002     0.0000000000000000     
  -3.7749999999999999E-002     0.0000000000000000     
  -3.7699999999999997E-002     0.0000000000000000     
  -3.7650000000000003E-002     0.0000000000000000     
  -3.7600000000000001E-002     0.0000000000000000     
  -3.7550000000000000E-002     0.0000000000000000     
  -3.7499999999999999E-002     0.0000000000000000     
  -3.7449999999999997E-002     0.0000000000000000     
  -3.7400000000000003E-002     0.0000000000000000     
  -3.7350000000000001E-002     0.0000000000000000     
  -3.7300000000000000E-002     0.0000000000000000     
  -3.7249999999999998E-002     0.0000000000000000     
  -3.7200000000000004E-002     0.0000000000000000     
  -3.7150000000000002E-002     0.0000000000000000     
  -3.7100000000000001E-002     0.0000000000000000     
  -3.7050000000000000E-002     0.0000000000000000     
  -3.6999999999999998E-002     0.0000000000000000     
  -3.6950000000000004E-002     0.0000000000000000     
  -3.6900000000000002E-002     0.0000000000000000     
  -3.6850000000000001E-002     0.0000000000000000     
  -3.6799999999999999E-002     0.0000000000000000     
  -3.6749999999999998E-002     0.0000000000000000     
  -3.6700000000000003E-002     0.0000000000000000     
  -3.6650000000000002E-002     0.0000000000000000     
  -3.6600000000000001E-002     0.0000000000000000     
  -3.6549999999999999E-002     0.0000000000000000     
  -3.6499999999999998E-002     0.0000000000000000     
  -3.6450000000000003E-002     0.0000000000000000     
  -3.6400000000000002E-002     0.0000000000000000     
  -3.6350000000000000E-002     0.0000000000000000     
  -3.6299999999999999E-002     0.0000000000000000     
  -3.6249999999999998E-002     0.0000000000000000     
  -3.6200000000000003E-002     0.0000000000000000     
  -3.6150000000000002E-002     0.0000000000000000     
  -3.6100000000000000E-002     0.0000000000000000     
  -3.6049999999999999E-002     0.0000000000000000     
  -3.6000000000000004E-002     0.0000000000000000     
  -3.5950000000000003E-002     0.0000000000000000     
  -3.5900000000000001E-002     0.0000000000000000     
  -3.5850000000000000E-002     0.0000000000000000     
  -3.5799999999999998E-002     0.0000000000000000     
  -3.5750000000000004E-002     0.0000000000000000     
  -3.5700000000000003E-002     0.0000000000000000     
  -3.5650000000000001E-002     0.0000000000000000     
  -3.5600000000000000E-002     0.0000000000000000     
  -3.5549999999999998E-002     0.0000000000000000     
  -3.5500000000000004E-002     0.0000000000000000     
  -3.5450000000000002E-002     0.0000000000000000     
  -3.5400000000000001E-002     0.0000000000000000     
  -3.5349999999999999E-002     0.0000000000000000     
  -3.5299999999999998E-002     0.0000000000000000     
  -3.5250000000000004E-002     0.0000000000000000     
  -3.5200000000000002E-002     0.0000000000000000     
  -3.5150000000000001E-002     0.0000000000000000     
  -3.5099999999999999E-002     0.0000000000000000     
  -3.5049999999999998E-002     0.0000000000000000     
  -3.5000000000000003E-002     0.0000000000000000     
  -3.4950000000000002E-002     0.0000000000000000     
  -3.4900000000000000E-002     0.0000000000000000     
  -3.4849999999999999E-002     0.0000000000000000     
  -3.4799999999999998E-002     0.0000000000000000     
  -3.4750000000000003E-002     0.0000000000000000     
  -3.4700000000000002E-002     0.0000000000000000     
  -3.4650000000000000E-002     0.0000000000000000     
  -3.4599999999999999E-002     0.0000000000000000     
  -3.4549999999999997E-002     0.0000000000000000     
  -3.4500000000000003E-002     0.0000000000000000     
  -3.4450000000000001E-002     0.0000000000000000     
  -3.4400000000000000E-002     0.0000000000000000     
  -3.4349999999999999E-002     0.0000000000000000     
  -3.4299999999999997E-002     0.0000000000000000     
  -3.4250000000000003E-002     0.0000000000000000     
  -3.4200000000000001E-002     0.0000000000000000     
  -3.4150000000000000E-002     0.0000000000000000     
  -3.4099999999999998E-002     0.0000000000000000     
  -3.4049999999999997E-002     0.0000000000000000     
  -3.4000000000000002E-002     0.0000000000000000     
  -3.3950000000000001E-002     0.0000000000000000     
  -3.3900000000000000E-002     0.0000000000000000     
  -3.3849999999999998E-002     0.0000000000000000     
  -3.3799999999999997E-002     0.0000000000000000     
  -3.3750000000000002E-002     0.0000000000000000     
  -3.3700000000000001E-002     0.0000000000000000     
  -3.3649999999999999E-002     0.0000000000000000     
  -3.3599999999999998E-002     0.0000000000000000     
  -3.3550000000000003E-002     0.0000000000000000     
  -3.3500000000000002E-002     0.0000000000000000     
  -3.3450000000000001E-002     0.0000000000000000     
  -3.3399999999999999E-002     0.0000000000000000     
  -3.3349999999999998E-002     0.0000000000000000     
  -3.3300000000000003E-002     0.0000000000000000     
  -3.3250000000000002E-002     0.0000000000000000     
  -3.3200000000000000E-002     0.0000000000000000     
  -3.3149999999999999E-002     0.0000000000000000     
  -3.3099999999999997E-002     0.0000000000000000     
  -3.3050000000000003E-002     0.0000000000000000     
  -3.3000000000000002E-002     0.0000000000000000     
  -3.2950000000000000E-002     0.0000000000000000     
  -3.2899999999999999E-002     0.0000000000000000     
  -3.2850000000000004E-002     0.0000000000000000     
  -3.2800000000000003E-002     0.0000000000000000     
  -3.2750000000000001E-002     0.0000000000000000     
  -3.2700000000000000E-002     0.0000000000000000     
  -3.2649999999999998E-002     0.0000000000000000     
  -3.2600000000000004E-002     0.0000000000000000     
  -3.2550000000000003E-002     0.0000000000000000     
  -3.2500000000000001E-002     0.0000000000000000     
  -3.2450000000000000E-002     0.0000000000000000     
  -3.2399999999999998E-002     0.0000000000000000     
  -3.2350000000000004E-002     0.0000000000000000     
  -3.2300000000000002E-002     0.0000000000000000     
  -3.2250000000000001E-002     0.0000000000000000     
  -3.2199999999999999E-002     0.0000000000000000     
  -3.2149999999999998E-002     0.0000000000000000     
  -3.2100000000000004E-002     0.0000000000000000     
  -3.2050000000000002E-002     0.0000000000000000     
  -3.2000000000000001E-002     0.0000000000000000     
  -3.1949999999999999E-002     0.0000000000000000     
  -3.1899999999999998E-002     0.0000000000000000     
  -3.1850000000000003E-002     0.0000000000000000     
  -3.1800000000000002E-002     0.0000000000000000     
  -3.1750000000000000E-002     0.0000000000000000     
  -3.1699999999999999E-002     0.0000000000000000     
  -3.1649999999999998E-002     0.0000000000000000     
  -3.1600000000000003E-002     0.0000000000000000     
  -3.1550000000000002E-002     0.0000000000000000     
  -3.1500000000000000E-002     0.0000000000000000     
  -3.1449999999999999E-002     0.0000000000000000     
  -3.1399999999999997E-002     0.0000000000000000     
  -3.1350000000000003E-002     0.0000000000000000     
  -3.1300000000000001E-002     0.0000000000000000     
  -3.1250000000000000E-002     0.0000000000000000     
  -3.1199999999999999E-002     0.0000000000000000     
  -3.1150000000000001E-002     0.0000000000000000     
  -3.1100000000000003E-002     0.0000000000000000     
  -3.1050000000000001E-002     0.0000000000000000     
  -3.1000000000000000E-002     0.0000000000000000     
  -3.0949999999999998E-002     0.0000000000000000     
  -3.0900000000000000E-002     0.0000000000000000     
  -3.0850000000000002E-002     0.0000000000000000     
  -3.0800000000000001E-002     0.0000000000000000     
  -3.0750000000000000E-002     0.0000000000000000     
  -3.0699999999999998E-002     0.0000000000000000     
  -3.0650000000000000E-002     0.0000000000000000     
  -3.0600000000000002E-002     0.0000000000000000     
  -3.0550000000000001E-002     0.0000000000000000     
  -3.0499999999999999E-002     0.0000000000000000     
  -3.0449999999999998E-002     0.0000000000000000     
  -3.0400000000000000E-002     0.0000000000000000     
  -3.0350000000000002E-002     0.0000000000000000     
  -3.0300000000000001E-002     0.0000000000000000     
  -3.0249999999999999E-002     0.0000000000000000     
  -3.0200000000000001E-002     0.0000000000000000     
  -3.0150000000000000E-002     0.0000000000000000     
  -3.0100000000000002E-002     0.0000000000000000     
  -3.0050000000000000E-002     0.0000000000000000     
  -2.9999999999999999E-002     0.0000000000000000     
  -2.9950000000000001E-002     0.0000000000000000     
  -2.9899999999999999E-002     0.0000000000000000     
  -2.9850000000000002E-002     0.0000000000000000     
  -2.9800000000000000E-002     0.0000000000000000     
  -2.9749999999999999E-002     0.0000000000000000     
  -2.9700000000000001E-002     0.0000000000000000     
  -2.9650000000000003E-002     0.0000000000000000     
  -2.9600000000000001E-002     0.0000000000000000     
  -2.9550000000000000E-002     0.0000000000000000     
  -2.9499999999999998E-002     0.0000000000000000     
  -2.9450000000000000E-002     0.0000000000000000     
  -2.9400000000000003E-002     0.0000000000000000     
  -2.9350000000000001E-002     0.0000000000000000     
  -2.9300000000000000E-002     0.0000000000000000     
  -2.9249999999999998E-002     0.0000000000000000     
  -2.9200000000000000E-002     0.0000000000000000     
  -2.9150000000000002E-002     0.0000000000000000     
  -2.9100000000000001E-002     0.0000000000000000     
  -2.9049999999999999E-002     0.0000000000000000     
  -2.8999999999999998E-002     0.0000000000000000     
  -2.8950000000000000E-002     0.0000000000000000     
  -2.8900000000000002E-002     0.0000000000000000     
  -2.8850000000000001E-002     0.0000000000000000     
  -2.8799999999999999E-002     0.0000000000000000     
  -2.8749999999999998E-002     0.0000000000000000     
  -2.8700000000000000E-002     0.0000000000000000     
  -2.8650000000000002E-002     0.0000000000000000     
  -2.8600000000000000E-002     0.0000000000000000     
  -2.8549999999999999E-002     0.0000000000000000     
  -2.8500000000000001E-002     0.0000000000000000     
  -2.8450000000000000E-002     0.0000000000000000     
  -2.8400000000000002E-002     0.0000000000000000     
  -2.8350000000000000E-002     0.0000000000000000     
  -2.8299999999999999E-002     0.0000000000000000     
  -2.8250000000000001E-002     0.0000000000000000     
  -2.8200000000000003E-002     0.0000000000000000     
  -2.8150000000000001E-002     0.0000000000000000     
  -2.8100000000000000E-002     0.0000000000000000     
  -2.8049999999999999E-002     0.0000000000000000     
  -2.8000000000000001E-002     0.0000000000000000     
  -2.7950000000000003E-002     0.0000000000000000     
  -2.7900000000000001E-002     0.0000000000000000     
  -2.7850000000000000E-002     0.0000000000000000     
  -2.7799999999999998E-002     0.0000000000000000     
  -2.7750000000000000E-002     0.0000000000000000     
  -2.7700000000000002E-002     0.0000000000000000     
  -2.7650000000000001E-002     0.0000000000000000     
  -2.7600000000000000E-002     0.0000000000000000     
  -2.7549999999999998E-002     0.0000000000000000     
  -2.7500000000000000E-002     0.0000000000000000     
  -2.7450000000000002E-002     0.0000000000000000     
  -2.7400000000000001E-002     0.0000000000000000     
  -2.7349999999999999E-002     0.0000000000000000     
  -2.7299999999999998E-002     0.0000000000000000     
  -2.7250000000000000E-002     0.0000000000000000     
  -2.7200000000000002E-002     0.0000000000000000     
  -2.7150000000000001E-002     0.0000000000000000     
  -2.7099999999999999E-002     0.0000000000000000     
  -2.7049999999999998E-002     0.0000000000000000     
  -2.7000000000000000E-002     0.0000000000000000     
  -2.6950000000000002E-002     0.0000000000000000     
  -2.6900000000000000E-002     0.0000000000000000     
  -2.6849999999999999E-002     0.0000000000000000     
  -2.6800000000000001E-002     0.0000000000000000     
  -2.6749999999999999E-002     0.0000000000000000     
  -2.6700000000000002E-002     0.0000000000000000     
  -2.6650000000000000E-002     0.0000000000000000     
  -2.6599999999999999E-002     0.0000000000000000     
  -2.6550000000000001E-002     0.0000000000000000     
  -2.6500000000000003E-002     0.0000000000000000     
  -2.6450000000000001E-002     0.0000000000000000     
  -2.6400000000000000E-002     0.0000000000000000     
  -2.6349999999999998E-002     0.0000000000000000     
  -2.6300000000000000E-002     0.0000000000000000     
  -2.6250000000000002E-002     0.0000000000000000     
  -2.6200000000000001E-002     0.0000000000000000     
  -2.6150000000000000E-002     0.0000000000000000     
  -2.6099999999999998E-002     0.0000000000000000     
  -2.6050000000000000E-002     0.0000000000000000     
  -2.6000000000000002E-002     0.0000000000000000     
  -2.5950000000000001E-002     0.0000000000000000     
  -2.5899999999999999E-002     0.0000000000000000     
  -2.5849999999999998E-002     0.0000000000000000     
  -2.5800000000000000E-002     0.0000000000000000     
  -2.5750000000000002E-002     0.0000000000000000     
  -2.5700000000000001E-002     0.0000000000000000     
  -2.5649999999999999E-002     0.0000000000000000     
  -2.5599999999999998E-002     0.0000000000000000     
  -2.5550000000000000E-002     0.0000000000000000     
  -2.5500000000000002E-002     0.0000000000000000     
  -2.5450000000000000E-002     0.0000000000000000     
  -2.5399999999999999E-002     0.0000000000000000     
  -2.5349999999999998E-002     0.0000000000000000     
  -2.5300000000000000E-002     0.0000000000000000     
  -2.5250000000000002E-002     0.0000000000000000     
  -2.5200000000000000E-002     0.0000000000000000     
  -2.5149999999999999E-002     0.0000000000000000     
  -2.5100000000000001E-002     0.0000000000000000     
  -2.5049999999999999E-002     0.0000000000000000     
  -2.5000000000000001E-002     0.0000000000000000     
  -2.4950000000000000E-002     0.0000000000000000     
  -2.4899999999999999E-002     0.0000000000000000     
  -2.4850000000000001E-002     0.0000000000000000     
  -2.4800000000000003E-002     0.0000000000000000     
  -2.4750000000000001E-002     0.0000000000000000     
  -2.4700000000000000E-002     0.0000000000000000     
  -2.4649999999999998E-002     0.0000000000000000     
  -2.4600000000000000E-002     2.8768017581485121E-039
  -2.4550000000000002E-002     6.0453022871953390E-039
  -2.4500000000000001E-002     3.6408244134441649E-039
  -2.4450000000000000E-002    -2.6371989364027035E-039
  -2.4399999999999998E-002    -1.3540254333042293E-038
  -2.4350000000000000E-002    -3.0292632883130987E-038
  -2.4299999999999999E-002    -2.7812322276495972E-038
  -2.4250000000000001E-002    -1.1801405189735272E-038
  -2.4199999999999999E-002     1.9714534200069012E-038
  -2.4150000000000001E-002     5.6970924916722187E-038
  -2.4100000000000000E-002     6.7298228364155066E-038
  -2.4049999999999998E-002     3.4045404049922776E-038
  -2.4000000000000000E-002    -1.7133035832507738E-038
  -2.3949999999999999E-002    -6.1689228102291112E-038
  -2.3900000000000001E-002    -7.6906566859308334E-038
  -2.3850000000000000E-002    -4.6926930798971386E-038
  -2.3800000000000002E-002    -1.3821733008019072E-038
  -2.3750000000000000E-002    -8.6512727478090796E-039
  -2.3699999999999999E-002    -6.2917696447368743E-038
  -2.3650000000000001E-002    -1.5641858202424159E-037
  -2.3599999999999999E-002    -1.8322010801343028E-037
  -2.3550000000000001E-002    -3.1535594933716346E-038
  -2.3500000000000000E-002     3.5176522680453532E-037
  -2.3449999999999999E-002     8.6828337018224089E-037
  -2.3400000000000001E-002     1.2523356621970198E-036
  -2.3349999999999999E-002     1.1448771300897821E-036
  -2.3300000000000001E-002     2.5586255305122695E-037
  -2.3250000000000000E-002    -1.4154358078562490E-036
  -2.3199999999999998E-002    -3.4153582802718415E-036
  -2.3150000000000000E-002    -4.8391405158502611E-036
  -2.3099999999999999E-002    -4.5937989322333237E-036
  -2.3050000000000001E-002    -1.8846430973749255E-036
  -2.3000000000000000E-002     3.2116651122043779E-036
  -2.2950000000000002E-002     9.3685478426508191E-036
  -2.2900000000000000E-002     1.4098232216672958E-035
  -2.2849999999999999E-002     1.4475968209292488E-035
  -2.2800000000000001E-002     8.3915870771028239E-036
  -2.2749999999999999E-002    -4.0852491674297777E-036
  -2.2700000000000001E-002    -1.9863580086031463E-035
  -2.2650000000000000E-002    -3.3130283773439462E-035
  -2.2599999999999999E-002    -3.7068818430683300E-035
  -2.2550000000000001E-002    -2.6667173774388474E-035
  -2.2499999999999999E-002    -1.6297158894941404E-036
  -2.2450000000000001E-002     3.1980620044818117E-035
  -2.2400000000000000E-002     6.2556363846392653E-035
  -2.2349999999999998E-002     7.6589577787148378E-035
  -2.2300000000000000E-002     6.4214362249531429E-035
  -2.2249999999999999E-002     2.4512029384079071E-035
  -2.2200000000000001E-002    -3.2058493589798491E-035
  -2.2150000000000000E-002    -8.6037132812288760E-035
  -2.2100000000000002E-002    -1.1615663839753361E-034
  -2.2050000000000000E-002    -1.0887240764480837E-034
  -2.1999999999999999E-002    -6.5840409542057977E-035
  -2.1950000000000001E-002    -4.8611317627865791E-036
  -2.1899999999999999E-002     4.7832336358770199E-035
  -2.1850000000000001E-002     7.1755643901026750E-035
  -2.1800000000000000E-002     6.6156705411468278E-035
  -2.1749999999999999E-002     5.4977532423078586E-035
  -2.1700000000000001E-002     7.6283306984704309E-035
  -2.1649999999999999E-002     1.5672459591892532E-034
  -2.1600000000000001E-002     2.8124990397938276E-034
  -2.1550000000000000E-002     3.7585883785945955E-034
  -2.1499999999999998E-002     3.2141793414688559E-034
  -2.1450000000000000E-002     6.1869728810992858E-036
  -2.1399999999999999E-002    -5.9487501391393866E-034
  -2.1350000000000001E-002    -1.3475903591583394E-033
  -2.1299999999999999E-002    -1.9388265771918274E-033
  -2.1250000000000002E-002    -1.9478861671290518E-033
  -2.1200000000000000E-002    -1.0151965609460407E-033
  -2.1149999999999999E-002     9.3525555458221167E-034
  -2.1100000000000001E-002     3.5114892020323491E-033
  -2.1049999999999999E-002     5.8195359358834906E-033
  -2.1000000000000001E-002     6.6637291895136554E-033
  -2.0950000000000000E-002     4.9823351968377841E-033
  -2.0899999999999998E-002     4.0349648781411378E-034
  -2.0850000000000000E-002    -6.2973945648709511E-033
  -2.0799999999999999E-002    -1.3093593944565597E-032
  -2.0750000000000001E-002    -1.7136493106307365E-032
  -2.0700000000000000E-002    -1.5712060622329477E-032
  -2.0649999999999998E-002    -7.4698236452291894E-033
  -2.0600000000000000E-002     6.5402750537622476E-033
  -2.0549999999999999E-002     2.2548304132840448E-032
  -2.0500000000000001E-002     3.4822884471328519E-032
  -2.0449999999999999E-002     3.7488509552045765E-032
  -2.0400000000000001E-002     2.6901629072406298E-032
  -2.0350000000000000E-002     3.7007004320735054E-033
  -2.0299999999999999E-002    -2.6437244473455400E-032
  -2.0250000000000001E-002    -5.3962199272332036E-032
  -2.0199999999999999E-002    -6.8457895854456370E-032
  -2.0150000000000001E-002    -6.2569131429947219E-032
  -2.0100000000000000E-002    -3.5326092600273348E-032
  -2.0049999999999998E-002     6.6808999374022478E-033
  -2.0000000000000000E-002     5.1119980467310572E-032
  -1.9949999999999999E-002     8.4322038563137127E-032
  -1.9900000000000001E-002     9.6559756979106748E-032
  -1.9850000000000000E-002     8.5781891398832825E-032
  -1.9799999999999998E-002     5.7776157993642516E-032
  -1.9750000000000000E-002     2.2290054518616751E-032
  -1.9699999999999999E-002    -1.3179862611801597E-032
  -1.9650000000000001E-002    -4.8443614231287347E-032
  -1.9599999999999999E-002    -9.0775758075594654E-032
  -1.9550000000000001E-002    -1.4832509891163415E-031
  -1.9500000000000000E-002    -2.1860652636787365E-031
  -1.9449999999999999E-002    -2.7790052870806963E-031
  -1.9400000000000001E-002    -2.7951648995010265E-031
  -1.9349999999999999E-002    -1.6720480575761801E-031
  -1.9300000000000001E-002     9.6059120944307149E-032
  -1.9250000000000000E-002     4.9255765718900322E-031
  -1.9199999999999998E-002     9.2420947902128833E-031
  -1.9150000000000000E-002     1.2159460838724834E-030
  -1.9099999999999999E-002     1.1606444722282112E-030
  -1.9050000000000001E-002     6.0240076018899247E-031
  -1.9000000000000000E-002    -4.6567151194409610E-031
  -1.8949999999999998E-002    -1.8299469015974845E-030
  -1.8900000000000000E-002    -3.0556857195343179E-030
  -1.8849999999999999E-002    -3.5858006841706384E-030
  -1.8800000000000001E-002    -2.9321350375075830E-030
  -1.8749999999999999E-002    -9.0784125822782588E-031
  -1.8700000000000001E-002     2.1867396570220718E-030
  -1.8650000000000000E-002     5.5208213479111779E-030
  -1.8599999999999998E-002     7.8969826650943437E-030
  -1.8550000000000001E-002     8.1167329127513125E-030
  -1.8499999999999999E-002     5.4546014374700129E-030
  -1.8450000000000001E-002     7.5240340141800235E-032
  -1.8400000000000000E-002    -6.7925412059124202E-030
  -1.8349999999999998E-002    -1.3057285895550934E-029
  -1.8300000000000000E-002    -1.6351147529799032E-029
  -1.8249999999999999E-002    -1.4853807154915443E-029
  -1.8200000000000001E-002    -8.0775351965773690E-030
  -1.8149999999999999E-002     2.7038355578756855E-030
  -1.8100000000000002E-002     1.4614799896584393E-029
  -1.8050000000000000E-002     2.3961246616358423E-029
  -1.7999999999999999E-002     2.7422836337659402E-029
  -1.7950000000000001E-002     2.3242194226970532E-029
  -1.7899999999999999E-002     1.1945742524122425E-029
  -1.7850000000000001E-002    -3.7274117235994527E-030
  -1.7800000000000000E-002    -1.9708895276011216E-029
  -1.7749999999999998E-002    -3.1966128357629246E-029
  -1.7700000000000000E-002    -3.7777978112087027E-029
  -1.7649999999999999E-002    -3.6355075379725598E-029
  -1.7600000000000001E-002    -2.8528616869988106E-029
  -1.7550000000000000E-002    -1.5710059528572009E-029
  -1.7499999999999998E-002     1.2248776230877727E-030
  -1.7450000000000000E-002     2.2304550524293748E-029
  -1.7399999999999999E-002     4.7538433725007668E-029
  -1.7350000000000001E-002     7.4862466349019277E-029
  -1.7299999999999999E-002     9.7972569582639894E-029
  -1.7250000000000001E-002     1.0564737219160285E-028
  -1.7200000000000000E-002     8.4031837120880805E-029
  -1.7149999999999999E-002     2.2313855581438573E-029
  -1.7100000000000001E-002    -7.9512856508018860E-029
  -1.7049999999999999E-002    -2.0389307658959091E-028
  -1.7000000000000001E-002    -3.1398121846149880E-028
  -1.6950000000000000E-002    -3.6022809477848170E-028
  -1.6899999999999998E-002    -2.9592460451970407E-028
  -1.6850000000000000E-002    -9.8358862704333586E-029
  -1.6799999999999999E-002     2.1165578273147832E-028
  -1.6750000000000001E-002     5.6110215655291441E-028
  -1.6700000000000000E-002     8.3464613610867110E-028
  -1.6649999999999998E-002     9.0538150994112227E-028
  -1.6600000000000000E-002     6.8056147547494661E-028
  -1.6549999999999999E-002     1.4829765489536346E-028
  -1.6500000000000001E-002    -5.9338589927900362E-028
  -1.6449999999999999E-002    -1.3418322167589550E-027
  -1.6400000000000001E-002    -1.8366672235240916E-027
  -1.6350000000000000E-002    -1.8408202628731927E-027
  -1.6299999999999999E-002    -1.2326778060778405E-027
  -1.6250000000000001E-002    -7.6609108393832133E-029
  -1.6199999999999999E-002     1.3597048413844588E-027
  -1.6150000000000001E-002     2.6586342175161375E-027
  -1.6100000000000000E-002     3.3702619832178878E-027
  -1.6049999999999998E-002     3.1620512139532071E-027
  -1.6000000000000000E-002     1.9504823961915494E-027
  -1.5949999999999999E-002    -3.6300655267041181E-029
  -1.5900000000000001E-002    -2.2967106349655184E-027
  -1.5850000000000000E-002    -4.1922814040653950E-027
  -1.5799999999999998E-002    -5.1421864664639157E-027
  -1.5750000000000000E-002    -4.8093380636474936E-027
  -1.5699999999999999E-002    -3.2099043816654370E-027
  -1.5650000000000001E-002    -7.0433056437809150E-028
  -1.5599999999999999E-002     2.1260120001278785E-027
  -1.5550000000000001E-002     4.6648017036661774E-027
  -1.5500000000000000E-002     6.4301232341254169E-027
  -1.5449999999999998E-002     7.1559278755039445E-027
  -1.5400000000000000E-002     6.7586837337593421E-027
  -1.5349999999999999E-002     5.2257752544649685E-027
  -1.5300000000000001E-002     2.5146676190826808E-027
  -1.5250000000000000E-002    -1.4376896307091124E-027
  -1.5199999999999998E-002    -6.5437003678077223E-027
  -1.5150000000000000E-002    -1.2276527988300459E-026
  -1.5099999999999999E-002    -1.7413545622952129E-026
  -1.5050000000000001E-002    -2.0019996663975534E-026
  -1.4999999999999999E-002    -1.7844961820006696E-026
  -1.4949999999999998E-002    -9.1548061987237106E-027
  -1.4900000000000000E-002     6.1927719395295427E-027
  -1.4849999999999999E-002     2.5843962962572566E-026
  -1.4800000000000001E-002     4.4719084169079839E-026
  -1.4749999999999999E-002     5.5855316526396001E-026
  -1.4700000000000001E-002     5.2387974039393162E-026
  -1.4650000000000000E-002     3.0258631589982078E-026
  -1.4599999999999998E-002    -9.2177789787045534E-027
  -1.4550000000000000E-002    -5.8023004839195559E-026
  -1.4499999999999999E-002    -1.0227225204755198E-025
  -1.4450000000000001E-002    -1.2554390018670993E-025
  -1.4400000000000000E-002    -1.1412253239752314E-025
  -1.4349999999999998E-002    -6.2662063022227240E-026
  -1.4300000000000000E-002     2.1771835289072872E-026
  -1.4249999999999999E-002     1.1919186822402947E-025
  -1.4200000000000001E-002     2.0071312946724712E-025
  -1.4149999999999999E-002     2.3661213599450073E-025
  -1.4099999999999998E-002     2.0630240227044788E-025
  -1.4050000000000000E-002     1.0698477359843500E-025
  -1.3999999999999999E-002    -4.2363075499077935E-026
  -1.3950000000000001E-002    -2.0383311541829589E-025
  -1.3899999999999999E-002    -3.3027468311600399E-025
  -1.3850000000000001E-002    -3.7933258857124684E-025
  -1.3800000000000000E-002    -3.2744571312958586E-025
  -1.3749999999999998E-002    -1.7894322864439307E-025
  -1.3700000000000000E-002     3.3310283409716392E-026
  -1.3649999999999999E-002     2.5647110979321440E-025
  -1.3600000000000001E-002     4.3289843011718611E-025
  -1.3550000000000000E-002     5.1682426588104452E-025
  -1.3499999999999998E-002     4.8668994599622140E-025
  -1.3450000000000000E-002     3.4897772747933565E-025
  -1.3399999999999999E-002     1.3282587406817510E-025
  -1.3350000000000001E-002    -1.2139477303586276E-025
  -1.3299999999999999E-002    -3.7379463923191590E-025
  -1.3249999999999998E-002    -5.9133704415404704E-025
  -1.3200000000000000E-002    -7.4629893648798379E-025
  -1.3149999999999998E-002    -8.0913021419019290E-025
  -1.3100000000000001E-002    -7.4243629586975529E-025
  -1.3049999999999999E-002    -5.0423629387754449E-025
  -1.3000000000000001E-002    -6.5523348102388969E-026
  -1.2950000000000000E-002     5.6018549268810666E-025
  -1.2899999999999998E-002     1.2865248289921657E-024
  -1.2850000000000000E-002     1.9406791676323059E-024
  -1.2799999999999999E-002     2.2835304720994577E-024