  -4.0000000000000001E-002     0.0000000000000000     
  -3.9949999999999999E-002     0.0000000000000000     
  -3.9899999999999998E-002     0.0000000000000000     
  -3.9850000000000003E-002     0.0000000000000000     
  -3.9800000000000002E-002     0.0000000000000000     
  -3.9750000000000001E-002     0.0000000000000000     
  -3.9699999999999999E-002     0.0000000000000000     
  -3.9649999999999998E-002     0.0000000000000000     
  -3.9600000000000003E-002     0.0000000000000000     
  -3.9550000000000002E-002     0.0000000000000000     
  -3.9500000000000000E-002     0.0000000000000000     
  -3.9449999999999999E-002    -5.8565470142713202E-031
  -3.9399999999999998E-002    -1.5857652762988246E-029
  -3.9350000000000003E-002    -1.8185473129254950E-028
  -3.9300000000000002E-002    -1.2639297557135196E-027
  -3.9250000000000000E-002    -6.1029033707717947E-027
  -3.9199999999999999E-002    -2.1723244851571969E-026
  -3.9150000000000004E-002    -5.7540679229250966E-026
  -3.9100000000000003E-002    -1.0591384564155718E-025
  -3.9050000000000001E-002    -8.3799393573729634E-026
  -3.9000000000000000E-002     2.6942893407576851E-025
  -3.8949999999999999E-002     1.4720368330705937E-024
  -3.8900000000000004E-002     4.1618557976860044E-024
  -3.8850000000000003E-002     8.4279753412150700E-024
  -3.8800000000000001E-002     1.2364765967197899E-023
  -3.8750000000000000E-002     1.0033447700580958E-023
  -3.8699999999999998E-002    -1.0116270207020112E-023
  -3.8650000000000004E-002    -6.4156656404657218E-023
  -3.8600000000000002E-002    -1.6561381185178476E-022
  -3.8550000000000001E-002    -3.0866849897720458E-022
  -3.8500000000000000E-002    -4.3951078625268723E-022
  -3.8449999999999998E-002    -4.2047697362667189E-022
  -3.8400000000000004E-002    -7.4484751541947276E-024
  -3.8350000000000002E-002     1.1138964378242523E-021
  -3.8300000000000001E-002     3.1661079096064808E-021
  -3.8249999999999999E-002     5.9416666127432409E-021
  -3.8199999999999998E-002     8.3364134550146431E-021
  -3.8150000000000003E-002     8.0004868456450489E-021
  -3.8100000000000002E-002     1.5777959255017909E-021
  -3.8050000000000000E-002    -1.3936398737017364E-020
  -3.7999999999999999E-002    -3.8553360005667957E-020
  -3.7949999999999998E-002    -6.6102936655347591E-020
  -3.7900000000000003E-002    -8.2414802625574049E-020
  -3.7850000000000002E-002    -6.7456023191725348E-020
  -3.7800000000000000E-002    -3.1755415248296716E-021
  -3.7749999999999999E-002     1.1405750482188761E-019
  -3.7699999999999997E-002     2.6161990865644732E-019
  -3.7650000000000003E-002     3.8752232965736459E-019
  -3.7600000000000001E-002     4.2286667155720148E-019
  -3.7550000000000000E-002     3.0973524712985527E-019
  -3.7499999999999999E-002     3.3817114457471120E-020
  -3.7449999999999997E-002    -3.5686655086705482E-019
  -3.7400000000000003E-002    -7.6368591854072756E-019
  -3.7350000000000001E-002    -1.0807239814072955E-018
  -3.7300000000000000E-002    -1.2477681430287041E-018
  -3.7249999999999998E-002    -1.2747859297862174E-018
  -3.7200000000000004E-002    -1.2063269113276803E-018
  -3.7150000000000002E-002    -1.0294977200476522E-018
  -3.7100000000000001E-002    -5.7901717470401644E-019
  -3.7050000000000000E-002     4.7416463913619548E-019
  -3.6999999999999998E-002     2.4808554845458171E-018
  -3.6950000000000004E-002     5.5249035065932636E-018
  -3.6900000000000002E-002     9.1023624621631333E-018
  -3.6850000000000001E-002     1.1961604893681279E-017
  -3.6799999999999999E-002     1.2284634639314875E-017
  -3.6749999999999998E-002     8.2642217064937780E-018
  -3.6700000000000003E-002    -1.0636291566755449E-018
  -3.6650000000000002E-002    -1.5041582953201039E-017
  -3.6600000000000001E-002    -3.1023187189397139E-017
  -3.6549999999999999E-002    -4.4655027731319979E-017
  -3.6499999999999998E-002    -5.0817275140656269E-017
  -3.6450000000000003E-002    -4.4995217338760987E-017
  -3.6400000000000002E-002    -2.4720593699890201E-017
  -3.6350000000000000E-002     9.2744871671068426E-018
  -3.6299999999999999E-002     5.2455883538176864E-017
  -3.6249999999999998E-002     9.6611300796959715E-017
  -3.6200000000000003E-002     1.3082809005635873E-016
  -3.6150000000000002E-002     1.4341096301116838E-016
  -3.6100000000000000E-002     1.2468031169029722E-016
  -3.6049999999999999E-002     7.0270462109147595E-017
  -3.6000000000000004E-002    -1.5885004429900932E-017
  -3.5950000000000003E-002    -1.2002758618080895E-016
  -3.5900000000000001E-002    -2.1962377152688872E-016
  -3.5850000000000000E-002    -2.8755728296945150E-016
  -3.5799999999999998E-002    -2.9904373794848945E-016
  -3.5750000000000004E-002    -2.3973904378383484E-016
  -3.5700000000000003E-002    -1.1269216174357850E-016
  -3.5650000000000001E-002     5.8401214412399699E-017
  -3.5600000000000000E-002     2.3162547400076350E-016
  -3.5549999999999998E-002     3.5567869014251692E-016
  -3.5500000000000004E-002     3.8409158979499478E-016
  -3.5450000000000002E-002     2.9186881301987390E-016
  -3.5400000000000001E-002     8.9881710057808004E-017
  -3.5349999999999999E-002    -1.6851307557062519E-016
  -3.5299999999999998E-002    -3.9345538020821346E-016
  -3.5250000000000004E-002    -4.7925833545741639E-016
  -3.5200000000000002E-002    -3.3730921896431092E-016
  -3.5150000000000001E-002     6.6515829751765299E-017
  -3.5099999999999999E-002     6.8160344218859523E-016
  -3.5049999999999998E-002     1.3618980067154457E-015
  -3.5000000000000003E-002     1.8834885077777903E-015
  -3.4950000000000002E-002     1.9918602323901104E-015
  -3.4900000000000000E-002     1.4712333371843861E-015
  -3.4849999999999999E-002     2.2076291172693754E-016
  -3.4799999999999998E-002    -1.6816493444139183E-015
  -3.4750000000000003E-002    -3.9467305359736256E-015
  -3.4700000000000002E-002    -6.0868401688580782E-015
  -3.4650000000000000E-002    -7.4819927949618462E-015
  -3.4599999999999999E-002    -7.4974113357007162E-015
  -3.4549999999999997E-002    -5.6404228889524871E-015
  -3.4500000000000003E-002    -1.7320735334013220E-015
  -3.4450000000000001E-002     3.9439725966973656E-015
  -3.4400000000000000E-002     1.0562163733148118E-014
  -3.4349999999999999E-002     1.6792590809642377E-014
  -3.4299999999999997E-002     2.0987804389923682E-014
  -3.4250000000000003E-002     2.1519149851802200E-014
  -3.4200000000000001E-002     1.7216761192704808E-014
  -3.4150000000000000E-002     7.8184249642488345E-015
  -3.4099999999999998E-002    -5.7028559934287071E-015
  -3.4049999999999997E-002    -2.1066981641701225E-014
  -3.4000000000000002E-002    -3.4966275616046469E-014
  -3.3950000000000001E-002    -4.3710091698467152E-014
  -3.3900000000000000E-002    -4.4137955145179611E-014
  -3.3849999999999998E-002    -3.4595417486684224E-014
  -3.3799999999999997E-002    -1.5696116823817052E-014
  -3.3750000000000002E-002     9.4049185214890862E-015
  -3.3700000000000001E-002     3.5410618935780708E-014
  -3.3649999999999999E-002     5.5967427551152985E-014
  -3.3599999999999998E-002     6.5241384614601189E-014
  -3.3550000000000003E-002     5.9603269043397022E-014
  -3.3500000000000002E-002     3.8944426839198493E-014
  -3.3450000000000001E-002     7.1839363003831612E-015
  -3.3399999999999999E-002    -2.8291347671689782E-014
  -3.3349999999999998E-002    -5.8228907264500085E-014
  -3.3300000000000003E-002    -7.3822343366319182E-014
  -3.3250000000000002E-002    -6.9162212036014831E-014
  -3.3200000000000000E-002    -4.3164629585489694E-014
  -3.3149999999999999E-002    -4.0927954384969989E-016
  -3.3099999999999997E-002     4.9423820206806815E-014
  -3.3050000000000003E-002     9.3475832001026216E-014
  -3.3000000000000002E-002     1.1859484477360488E-013
  -3.2950000000000000E-002     1.1453919681204267E-013
  -3.2899999999999999E-002     7.6763031695015194E-014
  -3.2850000000000004E-002     8.1394343576322165E-015
  -3.2800000000000003E-002    -8.0790456518774895E-014
  -3.2750000000000001E-002    -1.7314807628041745E-013
  -3.2700000000000000E-002    -2.4843560368636997E-013
  -3.2649999999999998E-002    -2.8621820625379657E-013
  -3.2600000000000004E-002    -2.7020695251601945E-013
  -3.2550000000000003E-002    -1.9211753498823980E-013
  -3.2500000000000001E-002    -5.4669071732679070E-014
  -3.2450000000000000E-002     1.2688958770431386E-013
  -3.2399999999999998E-002     3.2526932536303121E-013
  -3.2350000000000004E-002     5.0402536961799416E-013
  -3.2300000000000002E-002     6.2290624047722787E-013
  -3.2250000000000001E-002     6.4525397828682496E-013
  -3.2199999999999999E-002     5.4643962965617021E-013
  -3.2149999999999998E-002     3.2173119420345064E-013
  -3.2100000000000004E-002    -8.3796224082874349E-015
  -3.2050000000000002E-002    -3.9730556084666135E-013
  -3.2000000000000001E-002    -7.7724583496738275E-013
  -3.1949999999999999E-002    -1.0699620443116453E-012
  -3.1899999999999998E-002    -1.2020972325194057E-012
  -3.1850000000000003E-002    -1.1222197216637086E-012
  -3.1800000000000002E-002    -8.1577426020926214E-013
  -3.1750000000000000E-002    -3.1396028355237804E-013
  -3.1699999999999999E-002     3.0656269081434651E-013
  -3.1649999999999998E-002     9.3442116023967348E-013
  -3.1600000000000003E-002     1.4435838592216643E-012
  -3.1550000000000002E-002     1.7191621390355571E-012
  -3.1500000000000000E-002     1.6835901162776112E-012
  -3.1449999999999999E-002     1.3171682711546340E-012
  -3.1399999999999997E-002     6.6772195411735069E-013
  -3.1350000000000003E-002    -1.5379585354812625E-013
  -3.1300000000000001E-002    -9.9193017081417034E-013
  -3.1250000000000000E-002    -1.6765225275758300E-012
  -3.1199999999999999E-002    -2.0578937859339064E-012
  -3.1150000000000001E-002    -2.0400291698974282E-012
  -3.1100000000000003E-002    -1.6043699571990921E-012
  -3.1050000000000001E-002    -8.1843131447337236E-013
  -3.1000000000000000E-002     1.7351957815481961E-013
  -3.0949999999999998E-002     1.1767079281452264E-012
  -3.0900000000000000E-002     1.9842168273026539E-012
  -3.0850000000000002E-002     2.4197603556291858E-012
  -3.0800000000000001E-002     2.3758211110253002E-012
  -3.0750000000000000E-002     1.8387685037785095E-012
  -3.0699999999999998E-002     8.9515493541941771E-013
  -3.0650000000000000E-002    -2.8263150283688865E-013
  -3.0600000000000002E-002    -1.4687155571596611E-012
  -3.0550000000000001E-002    -2.4275583713345705E-012
  -3.0499999999999999E-002    -2.9603552682139211E-012
  -3.0449999999999998E-002    -2.9447694283035730E-012
  -3.0400000000000000E-002    -2.3604334632720825E-012
  -3.0350000000000002E-002    -1.2957630845036872E-012
  -3.0300000000000001E-002     6.4693151009820316E-014
  -3.0249999999999999E-002     1.4698217686362480E-012
  -3.0200000000000001E-002     2.6435251557210826E-012
  -3.0150000000000000E-002     3.3321975820982397E-012
  -3.0100000000000002E-002     3.3516420975404637E-012
  -3.0050000000000000E-002     2.6270561247210278E-012
  -2.9999999999999999E-002     1.2198800997120784E-012
  -2.9950000000000001E-002    -6.6441123436344895E-013
  -2.9899999999999999E-002    -2.6925679567912919E-012
  -2.9850000000000002E-002    -4.4465863283105200E-012
  -2.9800000000000000E-002    -5.4920317425766196E-012
  -2.9749999999999999E-002    -5.4643000194087854E-012
  -2.9700000000000001E-002    -4.1589145322040721E-012
  -2.9650000000000003E-002    -1.6067437094355319E-012
  -2.9600000000000001E-002     1.8866076235968254E-012
  -2.9550000000000000E-002     5.7543275699956098E-012
  -2.9499999999999998E-002     9.2425945369400964E-012
  -2.9450000000000000E-002     1.1539655515868663E-011
  -2.9400000000000003E-002     1.1939390448523213E-011
  -2.9350000000000001E-002     1.0007316156301904E-011
  -2.9300000000000000E-002     5.7120107255226316E-012
  -2.9249999999999998E-002    -5.1111296184985777E-013
  -2.9200000000000000E-002    -7.7841925613664209E-012
  -2.9150000000000002E-002    -1.4901302414216389E-011
  -2.9100000000000001E-002    -2.0514612578126368E-011
  -2.9049999999999999E-002    -2.3357420164682452E-011
  -2.8999999999999998E-002    -2.2460273224611527E-011
  -2.8950000000000000E-002    -1.7317491191048973E-011
  -2.8900000000000002E-002    -7.9717829559733389E-012
  -2.8850000000000001E-002     4.9979265517863247E-012
  -2.8799999999999999E-002     2.0580599724429050E-011
  -2.8749999999999998E-002     3.7506421579625027E-011
  -2.8700000000000000E-002     5.4454663001024528E-011
  -2.8650000000000002E-002     7.0257216711056003E-011
  -2.8600000000000000E-002     8.4062812266694209E-011
  -2.8549999999999999E-002     9.5437269198583863E-011
  -2.8500000000000001E-002     1.0438888642383404E-010
  -2.8450000000000000E-002     1.1132213206810349E-010
  -2.8400000000000002E-002     1.1693473966900569E-010
  -2.8350000000000000E-002     1.2208029032123591E-010
  -2.8299999999999999E-002     1.2762066403659844E-010
  -2.8250000000000001E-002     1.3429027334588284E-010
  -2.8200000000000003E-002     1.4258877412132165E-010
  -2.8150000000000001E-002     1.5271320319421022E-010
  -2.8100000000000000E-002     1.6453470530475300E-010
  -2.8049999999999999E-002     1.7762108450725123E-010
  -2.8000000000000001E-002     1.9130351469609508E-010
  -2.7950000000000003E-002     2.0478260753797883E-010
  -2.7900000000000001E-002     2.1726347110284649E-010
  -2.7850000000000000E-002     2.2810324462607667E-010
  -2.7799999999999998E-002     2.3694757267378463E-010
  -2.7750000000000000E-002     2.4382643126763526E-010
  -2.7700000000000002E-002     2.4918220264957824E-010
  -2.7650000000000001E-002     2.5381158286208461E-010
  -2.7600000000000000E-002     2.5872062825449404E-010
  -2.7549999999999998E-002     2.6491564497632680E-010
  -2.7500000000000000E-002     2.7317234585488848E-010
  -2.7450000000000002E-002     2.8383961847566752E-010
  -2.7400000000000001E-002     2.9673122292628307E-010
  -2.7349999999999999E-002     3.1114089082961982E-010
  -2.7299999999999998E-002     3.2598510002479486E-010
  -2.7250000000000000E-002     3.4004415949695499E-010
  -2.7200000000000002E-002     3.5224415051438029E-010
  -2.7150000000000001E-002     3.6191050156730853E-010
  -2.7099999999999999E-002     3.6893185728636979E-010
  -2.7049999999999998E-002     3.7379735418063831E-010
  -2.7000000000000000E-002     3.7750472192676909E-010
  -2.6950000000000002E-002     3.8136727109616686E-010
  -2.6900000000000000E-002     3.8676728486564116E-010
  -2.6849999999999999E-002     3.9490849479406620E-010
  -2.6800000000000001E-002     4.0661038425149343E-010
  -2.6749999999999999E-002     4.2217185303172755E-010
  -2.6700000000000002E-002     4.4131465148922189E-010
  -2.6650000000000000E-002     4.6321008140282061E-010
  -2.6599999999999999E-002     4.8658532758594220E-010
  -2.6550000000000001E-002     5.0990484057322760E-010
  -2.6500000000000003E-002     5.3161480773056269E-010
  -2.6450000000000001E-002     5.5042365110224978E-010
  -2.6400000000000000E-002     5.6557331040707481E-010
  -2.6349999999999998E-002     5.7704091505073052E-010
  -2.6300000000000000E-002     5.8561061555550964E-010
  -2.6250000000000002E-002     5.9277593944528917E-010
  -2.6200000000000001E-002     6.0047450345379616E-010
  -2.6150000000000000E-002     6.1070659640449776E-010
  -2.6099999999999998E-002     6.2512905962819332E-010
  -2.6050000000000000E-002     6.4473326677472187E-010
  -2.6000000000000002E-002     6.6969330081434464E-010
  -2.5950000000000001E-002     6.9941941127638074E-010
  -2.5899999999999999E-002     7.3278710877033859E-010
  -2.5849999999999998E-002     7.6845496632671484E-010
  -2.5800000000000000E-002     8.0516038281075453E-010
  -2.5750000000000002E-002     8.4190443505605117E-010
  -2.5700000000000001E-002     8.7798768255709092E-010
  -2.5649999999999999E-002     9.1292651216434706E-010
  -2.5599999999999998E-002     9.4632934821703429E-010
  -2.5550000000000000E-002     9.7782448804650812E-010
  -2.5500000000000002E-002     1.0070980716037070E-009
  -2.5450000000000000E-002     1.0340365230732118E-009
  -2.5399999999999999E-002     1.0589061849586301E-009
  -2.5349999999999998E-002     1.0824655616303858E-009
  -2.5300000000000000E-002     1.1059243520961104E-009
  -2.5250000000000002E-002     1.1307210723288108E-009
  -2.5200000000000000E-002     1.1581756664824638E-009
  -2.5149999999999999E-002     1.1891377882378151E-009
  -2.5100000000000001E-002     1.2237721946917191E-009
  -2.5049999999999999E-002     1.2615816169514460E-009
  -2.5000000000000001E-002     1.3016747679728269E-009
  -2.4950000000000000E-002     1.3431870060642837E-009
  -2.4899999999999999E-002     1.3856934488742922E-009
  -2.4850000000000001E-002     1.4294473382747697E-009
  -2.4800000000000003E-002     1.4753412935775145E-009
  -2.4750000000000001E-002     1.5245996687340835E-009
  -2.4700000000000000E-002     1.5783176987582692E-009
  -2.4649999999999998E-002     1.6370308442148485E-009
  -2.4600000000000000E-002     1.7004841978973673E-009
  -2.4550000000000002E-002     1.7676938801614028E-009
  -2.4500000000000001E-002     1.8372792176535313E-009
  -2.4450000000000000E-002     1.9079313684500221E-009
  -2.4399999999999998E-002     1.9788393146313865E-009
  -2.4350000000000000E-002     2.0499211217384072E-009
  -2.4299999999999999E-002     2.1217911871929118E-009
  -2.4250000000000001E-002     2.1955035567344794E-009
  -2.4199999999999999E-002     2.2721977632755852E-009
  -2.4150000000000001E-002     2.3527875203654958E-009
  -2.4100000000000000E-002     2.4377928564689455E-009
  -2.4049999999999998E-002     2.5273274584236560E-009
  -2.4000000000000000E-002     2.6211746106952205E-009
  -2.3949999999999999E-002     2.7188458151528039E-009
  -2.3900000000000001E-002     2.8195550338949715E-009
  -2.3850000000000000E-002     2.9221085551256465E-009
  -2.3800000000000002E-002     3.0247975235653257E-009
  -2.3750000000000000E-002     3.1254241417144613E-009
  -2.3699999999999999E-002     3.2215641265764816E-009
  -2.3650000000000001E-002     3.3110769681599095E-009
  -2.3599999999999999E-002     3.3927454179405458E-009
  -2.3550000000000001E-002     3.4668363735335106E-009
  -2.3500000000000000E-002     3.5353620031486344E-009
  -2.3449999999999999E-002     3.6019052185309874E-009
  -2.3400000000000001E-002     3.6710146034124591E-009
  -2.3349999999999999E-002     3.7473419922662288E-009
  -2.3300000000000001E-002     3.8347893749346440E-009
  -2.3250000000000000E-002     3.9359342451916746E-009
  -2.3199999999999998E-002     4.0518846056158964E-009
  -2.3150000000000000E-002     4.1825600760603265E-009
  -2.3099999999999999E-002     4.3272154748308367E-009
  -2.3050000000000001E-002     4.4849643998645661E-009
  -2.3000000000000000E-002     4.6550847621062985E-009
  -2.2950000000000002E-002     4.8370174532408328E-009
  -2.2900000000000000E-002     5.0301354193038605E-009
  -2.2849999999999999E-002     5.2334789835128959E-009
  -2.2800000000000001E-002     5.4456554821058489E-009
  -2.2749999999999999E-002     5.6650346635933602E-009
  -2.2700000000000001E-002     5.8902047683773162E-009
  -2.2650000000000000E-002     6.1204841195205972E-009
  -2.2599999999999999E-002     6.3562546337436743E-009
  -2.2550000000000001E-002     6.5988809971884166E-009
  -2.2499999999999999E-002     6.8501773142770617E-009
  -2.2450000000000001E-002     7.1115682231948085E-009
  -2.2400000000000000E-002     7.3832424618558434E-009
  -2.2349999999999998E-002     7.6636332835278154E-009
  -2.2300000000000000E-002     7.9494428817383778E-009
  -2.2249999999999999E-002     8.2362410225300664E-009
  -2.2200000000000001E-002     8.5194047372283421E-009
  -2.2150000000000000E-002     8.7950926541680019E-009
  -2.2100000000000002E-002     9.0608986980100781E-009
  -2.2050000000000000E-002     9.3160075209652859E-009
  -2.1999999999999999E-002     9.5608845285255484E-009
  -2.1950000000000001E-002     9.7967021162048695E-009
  -2.1899999999999999E-002     1.0024819196985391E-008
  -2.1850000000000001E-002     1.0246566262139822E-008
  -2.1800000000000000E-002     1.0463423905093805E-008
  -2.1749999999999999E-002     1.0677501549594126E-008
  -2.1700000000000001E-002     1.0892067692225282E-008
  -2.1649999999999999E-002     1.1111867870283731E-008
  -2.1600000000000001E-002     1.1343047390255379E-008
  -2.1550000000000000E-002     1.1592717896746763E-008
  -2.1499999999999998E-002     1.1868298344097639E-008
  -2.1450000000000000E-002     1.2176901265092965E-008
  -2.1399999999999999E-002     1.2524952630599273E-008
  -2.1350000000000001E-002     1.2918109248971632E-008
  -2.1299999999999999E-002     1.3361366235642436E-008
  -2.1250000000000002E-002     1.3859135172822334E-008
  -2.1200000000000000E-002     1.4415136639911452E-008
  -2.1149999999999999E-002     1.5032036060347309E-008
  -2.1100000000000001E-002     1.5710929446299815E-008
  -2.1049999999999999E-002     1.6450966811021317E-008
  -2.1000000000000001E-002     1.7249298878141417E-008
  -2.0950000000000000E-002     1.8101548704407833E-008
  -2.0899999999999998E-002     1.9002683870894543E-008
  -2.0850000000000000E-002     1.9948048546325481E-008
  -2.0799999999999999E-002     2.0934191269361691E-008
  -2.0750000000000001E-002     2.1959147389338796E-008
  -2.0700000000000000E-002     2.3022103334824351E-008
  -2.0649999999999998E-002     2.4122551067762288E-008
  -2.0600000000000000E-002     2.5259289770929172E-008
  -2.0549999999999999E-002     2.6429651356352224E-008
  -2.0500000000000001E-002     2.7629198484646622E-008
  -2.0449999999999999E-002     2.8851964373188821E-008
  -2.0400000000000001E-002     3.0091051428371429E-008
  -2.0350000000000000E-002     3.1339236983285446E-008
  -2.0299999999999999E-002     3.2589319687303941E-008
  -2.0250000000000001E-002     3.3834048451808485E-008
  -2.0199999999999999E-002     3.5065770731534940E-008
  -2.0150000000000001E-002     3.6276190940043307E-008
  -2.0100000000000000E-002     3.7456533874546949E-008
  -2.0049999999999998E-002     3.8598351181917678E-008
  -2.0000000000000000E-002     3.9694828757319556E-008
  -1.9949999999999999E-002     4.0742300200236059E-008
  -1.9900000000000001E-002     4.1741362366565227E-008
  -1.9850000000000000E-002     4.2697188007423392E-008
  -1.9799999999999998E-002     4.3618836542691497E-008
  -1.9750000000000000E-002     4.4517705077851133E-008
  -1.9699999999999999E-002     4.5405581516888560E-008
  -1.9650000000000001E-002     4.6292868205455306E-008
  -1.9599999999999999E-002     4.7187551643901315E-008
  -1.9550000000000001E-002     4.8095060378727794E-008
  -1.9500000000000000E-002     4.9018854753057894E-008
  -1.9449999999999999E-002     4.9961364823047916E-008
  -1.9400000000000001E-002     5.0924796823892393E-008
  -1.9349999999999999E-002     5.1911410281491044E-008
  -1.9300000000000001E-002     5.2923319060482754E-008
  -1.9250000000000000E-002     5.3962036616894693E-008
  -1.9199999999999998E-002     5.5028134937629147E-008
  -1.9150000000000000E-002     5.6121418623433783E-008
  -1.9099999999999999E-002     5.7241575035504866E-008
  -1.9050000000000001E-002     5.8389137080894216E-008
  -1.9000000000000000E-002     5.9566378496356265E-008
  -1.8949999999999998E-002     6.0777729515848478E-008
  -1.8900000000000000E-002     6.2029435810018185E-008
  -1.8849999999999999E-002     6.3328677413210244E-008
  -1.8800000000000001E-002     6.4682240008551162E-008
  -1.8749999999999999E-002     6.6095431350277067E-008
  -1.8700000000000001E-002     6.7571519934972457E-008
  -1.8650000000000000E-002     6.9111798950416414E-008
  -1.8599999999999998E-002     7.0716289712891012E-008
  -1.8550000000000001E-002     7.2384487737053860E-008
  -1.8499999999999999E-002     7.4115824588716350E-008
  -1.8450000000000001E-002     7.5909667884843657E-008
  -1.8400000000000000E-002     7.7764710226801981E-008
  -1.8349999999999998E-002     7.9678287079332222E-008
  -1.8300000000000000E-002     8.1646021499182098E-008
  -1.8249999999999999E-002     8.3662257566174958E-008
  -1.8200000000000001E-002     8.5721183040732285E-008
  -1.8149999999999999E-002     8.7818406768747082E-008
  -1.8100000000000002E-002     8.9952386872482748E-008
  -1.8050000000000000E-002     9.2125191031300346E-008
  -1.7999999999999999E-002     9.4342333056829375E-008
  -1.7950000000000001E-002     9.6611692868009413E-008
  -1.7899999999999999E-002     9.8941988824208238E-008
  -1.7850000000000001E-002     1.0134127137462201E-007
  -1.7800000000000000E-002     1.0381592119301786E-007
  -1.7749999999999998E-002     1.0637034364435749E-007
  -1.7700000000000000E-002     1.0900717484219058E-007
  -1.7649999999999999E-002     1.1172772218515092E-007
  -1.7600000000000001E-002     1.1453224146862340E-007
  -1.7550000000000000E-002     1.1741969530021379E-007
  -1.7499999999999998E-002     1.2038714203299605E-007
  -1.7450000000000000E-002     1.2342901811734919E-007
  -1.7399999999999999E-002     1.2653691783270915E-007
  -1.7350000000000001E-002     1.2970035356829612E-007
  -1.7299999999999999E-002     1.3290834033341525E-007
  -1.7250000000000001E-002     1.3615181160275824E-007
  -1.7200000000000000E-002     1.3942558041435404E-007
  -1.7149999999999999E-002     1.4272983150931395E-007
  -1.7100000000000001E-002     1.4607019238610519E-007
  -1.7049999999999999E-002     1.4945659643217368E-007
  -1.7000000000000001E-002     1.5290136445855751E-007
  -1.6950000000000000E-002     1.5641693096313247E-007
  -1.6899999999999998E-002     1.6001428093659342E-007
  -1.6850000000000000E-002     1.6370212563288078E-007
  -1.6799999999999999E-002     1.6748680309319752E-007
  -1.6750000000000001E-002     1.7137263341737707E-007
  -1.6700000000000000E-002     1.7536238772208890E-007
  -1.6649999999999998E-002     1.7945741603853094E-007
  -1.6600000000000000E-002     1.8365751941473718E-007
  -1.6549999999999999E-002     1.8796077938532108E-007
  -1.6500000000000001E-002     1.9236351533891138E-007
  -1.6449999999999999E-002     1.9686116559114453E-007
  -1.6400000000000001E-002     2.0144959478329838E-007
  -1.6350000000000000E-002     2.0612677076314867E-007
  -1.6299999999999999E-002     2.1089428514642350E-007
  -1.6250000000000001E-002     2.1575797859441082E-007
  -1.6199999999999999E-002     2.2072742922318866E-007
  -1.6150000000000001E-002     2.2581446046388010E-007
  -1.6100000000000000E-002     2.3103110891042888E-007
  -1.6049999999999998E-002     2.3638757795652054E-007
  -1.6000000000000000E-002     2.4189122882489755E-007
  -1.5949999999999999E-002     2.4754618266342732E-007
  -1.5900000000000001E-002     2.5335421582894924E-007
  -1.5850000000000000E-002     2.5931549885171989E-007
  -1.5799999999999998E-002     2.6542940645413182E-007
  -1.5750000000000000E-002     2.7169457439413236E-007
  -1.5699999999999999E-002     2.7810830260932562E-007
  -1.5650000000000001E-002     2.8466584467423672E-007
  -1.5599999999999999E-002     2.9135981094441377E-007
  -1.5550000000000001E-002     2.9818065172548813E-007
  -1.5500000000000000E-002     3.0511785098497057E-007
  -1.5449999999999998E-002     3.1216205798045848E-007
  -1.5400000000000000E-002     3.1930721888784319E-007
  -1.5349999999999999E-002     3.2655196946507203E-007
  -1.5300000000000001E-002     3.3390008979949926E-007
  -1.5250000000000000E-002     3.4135933901779936E-007
  -1.5199999999999998E-002     3.4893977840511070E-007
  -1.5150000000000000E-002     3.5665206610246969E-007
  -1.5099999999999999E-002     3.6450643392527127E-007
  -1.5050000000000001E-002     3.7251257367643120E-007
  -1.4999999999999999E-002     3.8067983609835210E-007
  -1.4949999999999998E-002     3.8901796983736858E-007
  -1.4900000000000000E-002     3.9753706460032845E-007
  -1.4849999999999999E-002     4.0624695429869462E-007
  -1.4800000000000001E-002     4.1515582438478305E-007
  -1.4749999999999999E-002     4.2426859181432519E-007
  -1.4700000000000001E-002     4.3358556922612479E-007
  -1.4650000000000000E-002     4.4310252178547671E-007
  -1.4599999999999998E-002     4.5281211669134791E-007
  -1.4550000000000000E-002     4.6270616849142243E-007
  -1.4499999999999999E-002     4.7277853809646331E-007
  -1.4450000000000001E-002     4.8302746336048585E-007
  -1.4400000000000000E-002     4.9345715069648577E-007
  -1.4349999999999998E-002     5.0407703611199395E-007
  -1.4300000000000000E-002     5.1490007990651065E-007
  -1.4249999999999999E-002     5.2594083399526426E-007
  -1.4200000000000001E-002     5.3721322501587565E-007
  -1.4149999999999999E-002     5.4872924692972447E-007
  -1.4099999999999998E-002     5.6049873364827363E-007
  -1.4050000000000000E-002     5.7252924534623162E-007
  -1.3999999999999999E-002     5.8482652320890338E-007
  -1.3950000000000001E-002     5.9739437574535259E-007
  -1.3899999999999999E-002     6.1023399666737532E-007
  -1.3850000000000001E-002     6.2334294170796056E-007
  -1.3800000000000000E-002     6.3671461703052046E-007
  -1.3749999999999998E-002     6.5033918872359209E-007
  -1.3700000000000000E-002     6.6420506072972785E-007
  -1.3649999999999999E-002     6.7830114858224988E-007
  -1.3600000000000001E-002     6.9261926682884223E-007
  -1.3550000000000000E-002     7.0715628908146755E-007
  -1.3499999999999998E-002     7.2191465960713685E-007
  -1.3450000000000000E-002     7.3690171120688319E-007
  -1.3399999999999999E-002     7.5212835781712784E-007
  -1.3350000000000001E-002     7.6760704814660130E-007
  -1.3299999999999999E-002     7.8335034459087183E-007
  -1.3249999999999998E-002     7.9937035479815677E-007
  -1.3200000000000000E-002     8.1567867482590373E-007
  -1.3149999999999998E-002     8.3228673020130373E-007
  -1.3100000000000001E-002     8.4920628751206095E-007
  -1.3049999999999999E-002     8.6644837438143441E-007
  -1.3000000000000001E-002     8.8402214259986067E-007
  -1.2950000000000000E-002     9.0193287860529381E-007
  -1.2899999999999998E-002     9.2018069608457154E-007
  -1.2850000000000000E-002     9.3876127493786043E-007
  -1.2799999999999999E-002     9.5766677077335771E-007