  -4.0000000000000001E-002     0.0000000000000000     
  -3.9949999999999999E-002     0.0000000000000000     
  -3.9899999999999998E-002     0.0000000000000000     
  -3.9850000000000003E-002     0.0000000000000000     
  -3.9800000000000002E-002     0.0000000000000000     
  -3.9750000000000001E-002     0.0000000000000000     
  -3.9699999999999999E-002     0.0000000000000000     
  -3.9649999999999998E-002     0.0000000000000000     
  -3.9600000000000003E-002     0.0000000000000000     
  -3.9550000000000002E-002     0.0000000000000000     
  -3.9500000000000000E-002     0.0000000000000000     
  -3.9449999999999999E-002     0.0000000000000000     
  -3.9399999999999998E-002     0.0000000000000000     
  -3.9350000000000003E-002     0.0000000000000000     
  -3.9300000000000002E-002     0.0000000000000000     
  -3.9250000000000000E-002     0.0000000000000000     
  -3.9199999999999999E-002     0.0000000000000000     
  -3.9150000000000004E-002     0.0000000000000000     
  -3.9100000000000003E-002     0.0000000000000000     
  -3.9050000000000001E-002     0.0000000000000000     
  -3.9000000000000000E-002     0.0000000000000000     
  -3.8949999999999999E-002     0.0000000000000000     
  -3.8900000000000004E-002     0.0000000000000000     
  -3.8850000000000003E-002     0.0000000000000000     
  -3.8800000000000001E-002     0.0000000000000000     
  -3.8750000000000000E-002     0.0000000000000000     
  -3.8699999999999998E-002     0.0000000000000000     
  -3.8650000000000004E-002     0.0000000000000000     
  -3.8600000000000002E-002     0.0000000000000000     
  -3.8550000000000001E-002     0.0000000000000000     
  -3.8500000000000000E-002     0.0000000000000000     
  -3.8449999999999998E-002     0.0000000000000000     
  -3.8400000000000004E-002     0.0000000000000000     
  -3.8350000000000002E-002     0.0000000000000000     
  -3.8300000000000001E-002     0.0000000000000000     
  -3.8249999999999999E-002     0.0000000000000000     
  -3.8199999999999998E-002     0.0000000000000000     
  -3.8150000000000003E-002     0.0000000000000000     
  -3.8100000000000002E-002     0.0000000000000000     
  -3.8050000000000000E-002     0.0000000000000000     
  -3.7999999999999999E-002     0.0000000000000000     
  -3.7949999999999998E-002     0.0000000000000000     
  -3.7900000000000003E-002     0.0000000000000000     
  -3.7850000000000002E-002     0.0000000000000000     
  -3.7800000000000000E-002     0.0000000000000000     
  -3.7749999999999999E-002     0.0000000000000000     
  -3.7699999999999997E-002     0.0000000000000000     
  -3.7650000000000003E-002     0.0000000000000000     
  -3.7600000000000001E-002     0.0000000000000000     
  -3.7550000000000000E-002     0.0000000000000000     
  -3.7499999999999999E-002     0.0000000000000000     
  -3.7449999999999997E-002     0.0000000000000000     
  -3.7400000000000003E-002     0.0000000000000000     
  -3.7350000000000001E-002     0.0000000000000000     
  -3.7300000000000000E-002     0.0000000000000000     
  -3.7249999999999998E-002     0.0000000000000000     
  -3.7200000000000004E-002     0.0000000000000000     
  -3.7150000000000002E-002     0.0000000000000000     
  -3.7100000000000001E-002     0.0000000000000000     
  -3.7050000000000000E-002     0.0000000000000000     
  -3.6999999999999998E-002     0.0000000000000000     
  -3.6950000000000004E-002     0.0000000000000000     
  -3.6900000000000002E-002     0.0000000000000000     
  -3.6850000000000001E-002     0.0000000000000000     
  -3.6799999999999999E-002     0.0000000000000000     
  -3.6749999999999998E-002     0.0000000000000000     
  -3.6700000000000003E-002     0.0000000000000000     
  -3.6650000000000002E-002     0.0000000000000000     
  -3.6600000000000001E-002     0.0000000000000000     
  -3.6549999999999999E-002     0.0000000000000000     
  -3.6499999999999998E-002     0.0000000000000000     
  -3.6450000000000003E-002     0.0000000000000000     
  -3.6400000000000002E-002     0.0000000000000000     
  -3.6350000000000000E-002     0.0000000000000000     
  -3.6299999999999999E-002     0.0000000000000000     
  -3.6249999999999998E-002     0.0000000000000000     
  -3.6200000000000003E-002     0.0000000000000000     
  -3.6150000000000002E-002     0.0000000000000000     
  -3.6100000000000000E-002     0.0000000000000000     
  -3.6049999999999999E-002     0.0000000000000000     
  -3.6000000000000004E-002     0.0000000000000000     
  -3.5950000000000003E-002     0.0000000000000000     
  -3.5900000000000001E-002     0.0000000000000000     
  -3.5850000000000000E-002     0.0000000000000000     
  -3.5799999999999998E-002     0.0000000000000000     
  -3.5750000000000004E-002     0.0000000000000000     
  -3.5700000000000003E-002     0.0000000000000000     
  -3.5650000000000001E-002     0.0000000000000000     
  -3.5600000000000000E-002     0.0000000000000000     
  -3.5549999999999998E-002     0.0000000000000000     
  -3.5500000000000004E-002     0.0000000000000000     
  -3.5450000000000002E-002     0.0000000000000000     
  -3.5400000000000001E-002     0.0000000000000000     
  -3.5349999999999999E-002     0.0000000000000000     
  -3.5299999999999998E-002     0.0000000000000000     
  -3.5250000000000004E-002     0.0000000000000000     
  -3.5200000000000002E-002     0.0000000000000000     
  -3.5150000000000001E-002     0.0000000000000000     
  -3.5099999999999999E-002     0.0000000000000000     
  -3.5049999999999998E-002     0.0000000000000000     
  -3.5000000000000003E-002     0.0000000000000000     
  -3.4950000000000002E-002     0.0000000000000000     
  -3.4900000000000000E-002     0.0000000000000000     
  -3.4849999999999999E-002     0.0000000000000000     
  -3.4799999999999998E-002     0.0000000000000000     
  -3.4750000000000003E-002     0.0000000000000000     
  -3.4700000000000002E-002     0.0000000000000000     
  -3.4650000000000000E-002     0.0000000000000000     
  -3.4599999999999999E-002     0.0000000000000000     
  -3.4549999999999997E-002     0.0000000000000000     
  -3.4500000000000003E-002     0.0000000000000000     
  -3.4450000000000001E-002     0.0000000000000000     
  -3.4400000000000000E-002     0.0000000000000000     
  -3.4349999999999999E-002     0.0000000000000000     
  -3.4299999999999997E-002     0.0000000000000000     
  -3.4250000000000003E-002     0.0000000000000000     
  -3.4200000000000001E-002     0.0000000000000000     
  -3.4150000000000000E-002     0.0000000000000000     
  -3.4099999999999998E-002     0.0000000000000000     
  -3.4049999999999997E-002     0.0000000000000000     
  -3.4000000000000002E-002     0.0000000000000000     
  -3.3950000000000001E-002     0.0000000000000000     
  -3.3900000000000000E-002     0.0000000000000000     
  -3.3849999999999998E-002     0.0000000000000000     
  -3.3799999999999997E-002     0.0000000000000000     
  -3.3750000000000002E-002     0.0000000000000000     
  -3.3700000000000001E-002     0.0000000000000000     
  -3.3649999999999999E-002     0.0000000000000000     
  -3.3599999999999998E-002     0.0000000000000000     
  -3.3550000000000003E-002     0.0000000000000000     
  -3.3500000000000002E-002     0.0000000000000000     
  -3.3450000000000001E-002     0.0000000000000000     
  -3.3399999999999999E-002     0.0000000000000000     
  -3.3349999999999998E-002     0.0000000000000000     
  -3.3300000000000003E-002     0.0000000000000000     
  -3.3250000000000002E-002     0.0000000000000000     
  -3.3200000000000000E-002     0.0000000000000000     
  -3.3149999999999999E-002     0.0000000000000000     
  -3.3099999999999997E-002     0.0000000000000000     
  -3.3050000000000003E-002     0.0000000000000000     
  -3.3000000000000002E-002     0.0000000000000000     
  -3.2950000000000000E-002     0.0000000000000000     
  -3.2899999999999999E-002     0.0000000000000000     
  -3.2850000000000004E-002     0.0000000000000000     
  -3.2800000000000003E-002     0.0000000000000000     
  -3.2750000000000001E-002     0.0000000000000000     
  -3.2700000000000000E-002     0.0000000000000000     
  -3.2649999999999998E-002     0.0000000000000000     
  -3.2600000000000004E-002     0.0000000000000000     
  -3.2550000000000003E-002     0.0000000000000000     
  -3.2500000000000001E-002     0.0000000000000000     
  -3.2450000000000000E-002     0.0000000000000000     
  -3.2399999999999998E-002     0.0000000000000000     
  -3.2350000000000004E-002     0.0000000000000000     
  -3.2300000000000002E-002     0.0000000000000000     
  -3.2250000000000001E-002     0.0000000000000000     
  -3.2199999999999999E-002     0.0000000000000000     
  -3.2149999999999998E-002     0.0000000000000000     
  -3.2100000000000004E-002     0.0000000000000000     
  -3.2050000000000002E-002     0.0000000000000000     
  -3.2000000000000001E-002     0.0000000000000000     
  -3.1949999999999999E-002     0.0000000000000000     
  -3.1899999999999998E-002     0.0000000000000000     
  -3.1850000000000003E-002     0.0000000000000000     
  -3.1800000000000002E-002     0.0000000000000000     
  -3.1750000000000000E-002     0.0000000000000000     
  -3.1699999999999999E-002     0.0000000000000000     
  -3.1649999999999998E-002     0.0000000000000000     
  -3.1600000000000003E-002     0.0000000000000000     
  -3.1550000000000002E-002     0.0000000000000000     
  -3.1500000000000000E-002     0.0000000000000000     
  -3.1449999999999999E-002     0.0000000000000000     
  -3.1399999999999997E-002     0.0000000000000000     
  -3.1350000000000003E-002     0.0000000000000000     
  -3.1300000000000001E-002     0.0000000000000000     
  -3.1250000000000000E-002     0.0000000000000000     
  -3.1199999999999999E-002     0.0000000000000000     
  -3.1150000000000001E-002     0.0000000000000000     
  -3.1100000000000003E-002     0.0000000000000000     
  -3.1050000000000001E-002     0.0000000000000000     
  -3.1000000000000000E-002     0.0000000000000000     
  -3.0949999999999998E-002     0.0000000000000000     
  -3.0900000000000000E-002     0.0000000000000000     
  -3.0850000000000002E-002     0.0000000000000000     
  -3.0800000000000001E-002     0.0000000000000000     
  -3.0750000000000000E-002     0.0000000000000000     
  -3.0699999999999998E-002     0.0000000000000000     
  -3.0650000000000000E-002     0.0000000000000000     
  -3.0600000000000002E-002     0.0000000000000000     
  -3.0550000000000001E-002     0.0000000000000000     
  -3.0499999999999999E-002     0.0000000000000000     
  -3.0449999999999998E-002     0.0000000000000000     
  -3.0400000000000000E-002     0.0000000000000000     
  -3.0350000000000002E-002     0.0000000000000000     
  -3.0300000000000001E-002     0.0000000000000000     
  -3.0249999999999999E-002     0.0000000000000000     
  -3.0200000000000001E-002     0.0000000000000000     
  -3.0150000000000000E-002     0.0000000000000000     
  -3.0100000000000002E-002     0.0000000000000000     
  -3.0050000000000000E-002     0.0000000000000000     
  -2.9999999999999999E-002     0.0000000000000000     
  -2.9950000000000001E-002     0.0000000000000000     
  -2.9899999999999999E-002     0.0000000000000000     
  -2.9850000000000002E-002     0.0000000000000000     
  -2.9800000000000000E-002     0.0000000000000000     
  -2.9749999999999999E-002     0.0000000000000000     
  -2.9700000000000001E-002     0.0000000000000000     
  -2.9650000000000003E-002     0.0000000000000000     
  -2.9600000000000001E-002     0.0000000000000000     
  -2.9550000000000000E-002     0.0000000000000000     
  -2.9499999999999998E-002     0.0000000000000000     
  -2.9450000000000000E-002     0.0000000000000000     
  -2.9400000000000003E-002     0.0000000000000000     
  -2.9350000000000001E-002     0.0000000000000000     
  -2.9300000000000000E-002     0.0000000000000000     
  -2.9249999999999998E-002     0.0000000000000000     
  -2.9200000000000000E-002     0.0000000000000000     
  -2.9150000000000002E-002     0.0000000000000000     
  -2.9100000000000001E-002     0.0000000000000000     
  -2.9049999999999999E-002     0.0000000000000000     
  -2.8999999999999998E-002     0.0000000000000000     
  -2.8950000000000000E-002     0.0000000000000000     
  -2.8900000000000002E-002     0.0000000000000000     
  -2.8850000000000001E-002     0.0000000000000000     
  -2.8799999999999999E-002     0.0000000000000000     
  -2.8749999999999998E-002     0.0000000000000000     
  -2.8700000000000000E-002     0.0000000000000000     
  -2.8650000000000002E-002     0.0000000000000000     
  -2.8600000000000000E-002     0.0000000000000000     
  -2.8549999999999999E-002     0.0000000000000000     
  -2.8500000000000001E-002     0.0000000000000000     
  -2.8450000000000000E-002     0.0000000000000000     
  -2.8400000000000002E-002     0.0000000000000000     
  -2.8350000000000000E-002     0.0000000000000000     
  -2.8299999999999999E-002     0.0000000000000000     
  -2.8250000000000001E-002     0.0000000000000000     
  -2.8200000000000003E-002     0.0000000000000000     
  -2.8150000000000001E-002     0.0000000000000000     
  -2.8100000000000000E-002     0.0000000000000000     
  -2.8049999999999999E-002     0.0000000000000000     
  -2.8000000000000001E-002     0.0000000000000000     
  -2.7950000000000003E-002     0.0000000000000000     
  -2.7900000000000001E-002     0.0000000000000000     
  -2.7850000000000000E-002     0.0000000000000000     
  -2.7799999999999998E-002     0.0000000000000000     
  -2.7750000000000000E-002     0.0000000000000000     
  -2.7700000000000002E-002     0.0000000000000000     
  -2.7650000000000001E-002     0.0000000000000000     
  -2.7600000000000000E-002     0.0000000000000000     
  -2.7549999999999998E-002     0.0000000000000000     
  -2.7500000000000000E-002     0.0000000000000000     
  -2.7450000000000002E-002     0.0000000000000000     
  -2.7400000000000001E-002     0.0000000000000000     
  -2.7349999999999999E-002     0.0000000000000000     
  -2.7299999999999998E-002     0.0000000000000000     
  -2.7250000000000000E-002     0.0000000000000000     
  -2.7200000000000002E-002     0.0000000000000000     
  -2.7150000000000001E-002     0.0000000000000000     
  -2.7099999999999999E-002     0.0000000000000000     
  -2.7049999999999998E-002     0.0000000000000000     
  -2.7000000000000000E-002     0.0000000000000000     
  -2.6950000000000002E-002     0.0000000000000000     
  -2.6900000000000000E-002    -3.8028709194397632E-040
  -2.6849999999999999E-002    -3.8028709194397632E-040
  -2.6800000000000001E-002    -3.8028709194397632E-040
  -2.6749999999999999E-002     1.0426200741152479E-039
  -2.6700000000000002E-002     2.4544681295134284E-039
  -2.6650000000000000E-002     2.4575022309982554E-039
  -2.6599999999999999E-002     8.2564168656769994E-040
  -2.6550000000000001E-002    -1.1331256350447057E-039
  -2.6500000000000003E-002    -3.1954894590175116E-039
  -2.6450000000000001E-002    -4.7848596207253924E-039
  -2.6400000000000000E-002    -4.2221811408287820E-039
  -2.6349999999999998E-002    -3.2742657220375505E-039
  -2.6300000000000000E-002     3.8343284730418058E-040
  -2.6250000000000002E-002     4.3712320622600904E-039
  -2.6200000000000001E-002     6.7687775065612830E-039
  -2.6150000000000000E-002    -3.7675984899264101E-040
  -2.6099999999999998E-002    -9.6548927897420543E-039
  -2.6050000000000000E-002    -1.2921069610643658E-038
  -2.6000000000000002E-002     2.7216073127055653E-038
  -2.5950000000000001E-002     7.8418851513223430E-038
  -2.5899999999999999E-002     1.0534579185535869E-037
  -2.5849999999999998E-002     8.7605668976638110E-038
  -2.5800000000000000E-002     8.8988706823474234E-039
  -2.5750000000000002E-002    -7.6931431337862913E-038
  -2.5700000000000001E-002    -1.2575108496313800E-037
  -2.5649999999999999E-002    -1.4413488449836788E-037
  -2.5599999999999998E-002    -1.6429381632989447E-037
  -2.5550000000000000E-002    -1.9714922280437840E-037
  -2.5500000000000002E-002    -2.0240460335734874E-037
  -2.5450000000000000E-002    -1.0093331000786524E-037
  -2.5399999999999999E-002     1.5432277989439661E-037
  -2.5349999999999998E-002     5.2775115958740122E-037
  -2.5300000000000000E-002     8.7529522537264008E-037
  -2.5250000000000002E-002     9.9313731489368899E-037
  -2.5200000000000000E-002     7.1321256561933546E-037
  -2.5149999999999999E-002    -1.0627806702027818E-039
  -2.5100000000000001E-002    -1.0080418082107824E-036
  -2.5049999999999999E-002    -2.0073565917588600E-036
  -2.5000000000000001E-002    -2.6158712747918761E-036
  -2.4950000000000000E-002    -2.4773558410277816E-036
  -2.4899999999999999E-002    -1.3843123152849885E-036
  -2.4850000000000001E-002     6.0874139484482712E-037
  -2.4800000000000003E-002     3.1165293249473838E-036
  -2.4750000000000001E-002     5.4383870415376693E-036
  -2.4700000000000000E-002     6.7025208053116630E-036
  -2.4649999999999998E-002     6.1300772460950395E-036
  -2.4600000000000000E-002     3.3454609595712531E-036
  -2.4550000000000002E-002    -1.3906391025653849E-036
  -2.4500000000000001E-002    -7.1413397059080132E-036
  -2.4450000000000000E-002    -1.2478954897364744E-035
  -2.4399999999999998E-002    -1.5836023802330721E-035
  -2.4350000000000000E-002    -1.5878178519518840E-035
  -2.4299999999999999E-002    -1.1775617808524695E-035
  -2.4250000000000001E-002    -3.3269789386067451E-036
  -2.4199999999999999E-002     8.9882432526568146E-036
  -2.4150000000000001E-002     2.3889482858893190E-035
  -2.4100000000000000E-002     3.9019948050543775E-035
  -2.4049999999999998E-002     5.0600526111756256E-035
  -2.4000000000000000E-002     5.3332341063522307E-035
  -2.3949999999999999E-002     4.1039537387454204E-035
  -2.3900000000000001E-002     8.4969161425515705E-036
  -2.3850000000000000E-002    -4.5497495745430866E-035
  -2.3800000000000002E-002    -1.1446537929432102E-034
  -2.3750000000000000E-002    -1.8152489409465087E-034
  -2.3699999999999999E-002    -2.1971041565826428E-034
  -2.3650000000000001E-002    -1.9726555827383911E-034
  -2.3599999999999999E-002    -8.8522388732414183E-035
  -2.3550000000000001E-002     1.1143503289575161E-034
  -2.3500000000000000E-002     3.7299231427669469E-034
  -2.3449999999999999E-002     6.2588840089483095E-034
  -2.3400000000000001E-002     7.6748536622414529E-034
  -2.3349999999999999E-002     6.8892642909450962E-034
  -2.3300000000000001E-002     3.1639319164670396E-034
  -2.3250000000000000E-002    -3.4316555662760542E-034
  -2.3199999999999998E-002    -1.1689596898561365E-033
  -2.3150000000000000E-002    -1.9248259581138146E-033
  -2.3099999999999999E-002    -2.3025911547447373E-033
  -2.3050000000000001E-002    -2.0105041268350754E-033
  -2.3000000000000000E-002    -8.8888825088728401E-034
  -2.2950000000000002E-002     9.8181763803489033E-034
  -2.2900000000000000E-002     3.2242706895270945E-033
  -2.2849999999999999E-002     5.1966249279971581E-033
  -2.2800000000000001E-002     6.1301580749893014E-033
  -2.2749999999999999E-002     5.3539295648748651E-033
  -2.2700000000000001E-002     2.5518398995670812E-033
  -2.2650000000000000E-002    -2.0277284642168422E-033
  -2.2599999999999999E-002    -7.4917273791911637E-033
  -2.2550000000000001E-002    -1.2407622196943924E-032
  -2.2499999999999999E-002    -1.5100155636981244E-032
  -2.2450000000000001E-002    -1.4086932881858097E-032
  -2.2400000000000000E-002    -8.5513764421136099E-033
  -2.2349999999999998E-002     1.2701831853269178E-033
  -2.2300000000000000E-002     1.3897845047469731E-032
  -2.2249999999999999E-002     2.6683563038972664E-032
  -2.2200000000000001E-002     3.6169620149398453E-032
  -2.2150000000000000E-002     3.8701157034468276E-032
  -2.2100000000000002E-002     3.1233570856765205E-032
  -2.2050000000000000E-002     1.2254471384165556E-032
  -2.1999999999999999E-002    -1.7292717887489171E-032
  -2.1950000000000001E-002    -5.3261672459069667E-032
  -2.1899999999999999E-002    -8.8007073591915055E-032
  -2.1850000000000001E-002    -1.1090285910361366E-031
  -2.1800000000000000E-002    -1.1003757423283462E-031
  -2.1749999999999999E-002    -7.5266940642449159E-032
  -2.1700000000000001E-002    -2.3764138083373038E-033
  -2.1649999999999999E-002     1.0252237571801610E-031
  -2.1600000000000001E-002     2.1990043097626191E-031
  -2.1550000000000000E-002     3.1694907080709133E-031
  -2.1499999999999998E-002     3.5263925463377932E-031
  -2.1450000000000000E-002     2.8830324077118737E-031
  -2.1399999999999999E-002     1.0241800238088807E-031
  -2.1350000000000001E-002    -1.9405790270327857E-031
  -2.1299999999999999E-002    -5.4736979972507455E-031
  -2.1250000000000002E-002    -8.6178868715858730E-031
  -2.1200000000000000E-002    -1.0160092074276567E-030
  -2.1149999999999999E-002    -8.9544003346837100E-031
  -2.1100000000000001E-002    -4.3481123861167660E-031
  -2.1049999999999999E-002     3.4048016330060996E-031
  -2.1000000000000001E-002     1.2896428422521911E-030
  -2.0950000000000000E-002     2.1631310988142850E-030
  -2.0899999999999998E-002     2.6490665056226424E-030
  -2.0850000000000000E-002     2.4564563478007659E-030
  -2.0799999999999999E-002     1.4183389624318507E-030
  -2.0750000000000001E-002    -4.1399742307259617E-031
  -2.0700000000000000E-002    -2.7198381338571129E-030
  -2.0649999999999998E-002    -4.9299610948578176E-030
  -2.0600000000000000E-002    -6.3325445793238008E-030
  -2.0549999999999999E-002    -6.2526887062516214E-030
  -2.0500000000000001E-002    -4.2681806650482499E-030
  -2.0449999999999999E-002    -4.0460816855705440E-031
  -2.0400000000000001E-002     4.7528434552551956E-030
  -2.0350000000000000E-002     1.0081682580956327E-029
  -2.0299999999999999E-002     1.4100859254575155E-029
  -2.0250000000000001E-002     1.5289924573178418E-029
  -2.0199999999999999E-002     1.2493356778570137E-029
  -2.0150000000000001E-002     5.3249965175469754E-030
  -2.0100000000000000E-002    -5.5263150212767885E-030
  -2.0049999999999998E-002    -1.8183609724494412E-029
  -2.0000000000000000E-002    -2.9732012230251347E-029
  -1.9949999999999999E-002    -3.6665262570341487E-029
  -1.9900000000000001E-002    -3.5610893962567037E-029
  -1.9850000000000000E-002    -2.4253921341539302E-029
  -1.9799999999999998E-002    -2.3068391797514289E-030
  -1.9750000000000000E-002     2.7700163209505572E-029
  -1.9699999999999999E-002     6.0090657146083613E-029
  -1.9650000000000001E-002     8.6462980121472116E-029
  -1.9599999999999999E-002     9.7066685567046591E-029
  -1.9550000000000001E-002     8.3143785084454378E-029
  -1.9500000000000000E-002     3.9934674017101414E-029
  -1.9449999999999999E-002    -3.0315990914894881E-029
  -1.9400000000000001E-002    -1.1632868075058759E-028
  -1.9349999999999999E-002    -1.9781875021140972E-028
  -1.9300000000000001E-002    -2.4843381641346778E-028
  -1.9250000000000000E-002    -2.4179937934873165E-028
  -1.9199999999999998E-002    -1.5987542543341113E-028
  -1.9150000000000000E-002    -1.7101910646573781E-030
  -1.9099999999999999E-002     2.1019360534876214E-028
  -1.9050000000000001E-002     4.2888985346821903E-028
  -1.9000000000000000E-002     5.8959093543889373E-028
  -1.8949999999999998E-002     6.2425485070509023E-028
  -1.8900000000000000E-002     4.8198172586429788E-028
  -1.8849999999999999E-002     1.5039949410159807E-028
  -1.8800000000000001E-002    -3.2859145320457151E-028
  -1.8749999999999999E-002    -8.5546637182880196E-028
  -1.8700000000000001E-002    -1.2867598615678360E-027
  -1.8650000000000000E-002    -1.4662236933238268E-027
  -1.8599999999999998E-002    -1.2684562358694001E-027
  -1.8550000000000001E-002    -6.4482672958478919E-028
  -1.8499999999999999E-002     3.4169205579396667E-028
  -1.8450000000000001E-002     1.5058984152275290E-027
  -1.8400000000000000E-002     2.5627593664472778E-027
  -1.8349999999999998E-002     3.1838540279111366E-027
  -1.8300000000000000E-002     3.0792938154769151E-027
  -1.8249999999999999E-002     2.0877161262910175E-027
  -1.8200000000000001E-002     2.5143821328277485E-028
  -1.8149999999999999E-002    -2.1463796865224892E-027
  -1.8100000000000002E-002    -4.6000041191167242E-027
  -1.8050000000000000E-002    -6.4614099934195479E-027
  -1.7999999999999999E-002    -7.0752269816569473E-027
  -1.7950000000000001E-002    -5.9467378892958673E-027
  -1.7899999999999999E-002    -2.9095826084014280E-027
  -1.7850000000000001E-002     1.7469693658396332E-027
  -1.7800000000000000E-002     7.2313178578989518E-027
  -1.7749999999999998E-002     1.2315559389411509E-026
  -1.7700000000000000E-002     1.5529725913329156E-026
  -1.7649999999999999E-002     1.5474494632904935E-026
  -1.7600000000000001E-002     1.1210754249478737E-026
  -1.7550000000000000E-002     2.6505383075229604E-027
  -1.7499999999999998E-002    -9.1541132311590403E-027
  -1.7450000000000000E-002    -2.1938723557077116E-026
  -1.7399999999999999E-002    -3.2467058736660430E-026
  -1.7350000000000001E-002    -3.7127315274358141E-026
  -1.7299999999999999E-002    -3.2836181119420938E-026
  -1.7250000000000001E-002    -1.8091670696748277E-026
  -1.7200000000000000E-002     6.0890946207938375E-027
  -1.7149999999999999E-002     3.5670105008282060E-026
  -1.7100000000000001E-002     6.3833994285015182E-026
  -1.7049999999999999E-002     8.2126396286092332E-026
  -1.7000000000000001E-002     8.2446681376517260E-026
  -1.6950000000000000E-002     5.9538005218216438E-026
  -1.6899999999999998E-002     1.3364769970294300E-026
  -1.6850000000000000E-002    -4.9384875669551637E-026
  -1.6799999999999999E-002    -1.1538046294001834E-025
  -1.6750000000000001E-002    -1.6673081597223673E-025
  -1.6700000000000000E-002    -1.8497574755913474E-025
  -1.6649999999999998E-002    -1.5628777409473836E-025
  -1.6600000000000000E-002    -7.6638777384668097E-026
  -1.6549999999999999E-002     4.4604795980553699E-026
  -1.6500000000000001E-002     1.8408310195985271E-025
  -1.6449999999999999E-002     3.0769912721275877E-025
  -1.6400000000000001E-002     3.7764860153611920E-025
  -1.6350000000000000E-002     3.6204009802909343E-025
  -1.6299999999999999E-002     2.4495370843568399E-025
  -1.6250000000000001E-002     3.4256871739377112E-026
  -1.6199999999999999E-002    -2.3537776596286747E-025
  -1.6150000000000001E-002    -5.0596493150094041E-025
  -1.6100000000000000E-002    -7.0650178111317675E-025
  -1.6049999999999998E-002    -7.6865463268630818E-025
  -1.6000000000000000E-002    -6.4485198689003180E-025
  -1.5949999999999999E-002    -3.2472928644522623E-025
  -1.5900000000000001E-002     1.5437770535357431E-025
  -1.5850000000000000E-002     7.0651631549474217E-025
  -1.5799999999999998E-002     1.2078338191313751E-024
  -1.5750000000000000E-002     1.5187538708773558E-024
  -1.5699999999999999E-002     1.5148658230248575E-024
  -1.5650000000000001E-002     1.1212706791244619E-024
  -1.5599999999999999E-002     3.4314363296791533E-025
  -1.5550000000000001E-002    -7.1568161927104465E-025
  -1.5500000000000000E-002    -1.8537380984285630E-024
  -1.5449999999999998E-002    -2.7976930170822447E-024
  -1.5400000000000000E-002    -3.2534223644997290E-024
  -1.5349999999999999E-002    -2.9766632351130071E-024
  -1.5300000000000001E-002    -1.8505563721854792E-024
  -1.5250000000000000E-002     4.8597899300977369E-026
  -1.5199999999999998E-002     2.4187965616379640E-024
  -1.5150000000000000E-002     4.7519602875064322E-024
  -1.5099999999999999E-002     6.4157792061085709E-024
  -1.5050000000000001E-002     6.7929438442958185E-024
  -1.4999999999999999E-002     5.4547066806812752E-024
  -1.4949999999999998E-002     2.3288372158349112E-024
  -1.4900000000000000E-002    -2.1878307328864245E-024
  -1.4849999999999999E-002    -7.2195845331927394E-024
  -1.4800000000000001E-002    -1.1534508749465528E-023
  -1.4749999999999999E-002    -1.3798129146570105E-023
  -1.4700000000000001E-002    -1.2917566576723814E-023
  -1.4650000000000000E-002    -8.3994131063697183E-024
  -1.4599999999999998E-002    -6.2260146782390234E-025
  -1.4550000000000000E-002     9.0700437006086642E-024
  -1.4499999999999999E-002     1.8526538242877476E-023
  -1.4450000000000001E-002     2.5195005630550124E-023
  -1.4400000000000000E-002     2.6725494920052906E-023
  -1.4349999999999998E-002     2.1636875231506840E-023
  -1.4300000000000000E-002     9.8803777342110408E-024
  -1.4249999999999999E-002    -6.8698147214859655E-024
  -1.4200000000000001E-002    -2.5323144931153458E-023
  -1.4149999999999999E-002    -4.1115577736001468E-023
  -1.4099999999999998E-002    -4.9720808614772506E-023
  -1.4050000000000000E-002    -4.7558452596948946E-023
  -1.3999999999999999E-002    -3.3054902138580208E-023
  -1.3950000000000001E-002    -7.3912626809355084E-024
  -1.3899999999999999E-002     2.5288471518789363E-023
  -1.3850000000000001E-002     5.8340661431256373E-023
  -1.3800000000000000E-002     8.3754445707218191E-023
  -1.3749999999999998E-002     9.3802782108403989E-023
  -1.3700000000000000E-002     8.2927125875430748E-023
  -1.3649999999999999E-002     4.9475631487236914E-023
  -1.3600000000000001E-002    -3.1198703203927512E-024
  -1.3550000000000000E-002    -6.6103144893883756E-023
  -1.3499999999999998E-002    -1.2634054211998488E-022
  -1.3450000000000000E-002    -1.6850534627081948E-022
  -1.3399999999999999E-002    -1.7828328811552086E-022
  -1.3350000000000001E-002    -1.4609017819113906E-022
  -1.3299999999999999E-002    -7.0533225027526111E-023
  -1.3249999999999998E-002     3.9305834519573128E-023
  -1.3200000000000000E-002     1.6365142674071456E-022
  -1.3149999999999998E-002     2.7448380235328115E-022
  -1.3100000000000001E-002     3.4072823858094600E-022
  -1.3049999999999999E-002     3.3553439897455419E-022
  -1.3000000000000001E-002     2.4424621683029274E-022
  -1.2950000000000000E-002     7.1089112870168693E-023
  -1.2899999999999998E-002    -1.5756605047854838E-022
  -1.2850000000000000E-002    -3.9509302140964253E-022
  -1.2799999999999999E-002    -5.8236799663688254E-022