  -4.0000000000000001E-002     0.0000000000000000     
  -3.9949999999999999E-002     0.0000000000000000     
  -3.9899999999999998E-002     0.0000000000000000     
  -3.9850000000000003E-002     0.0000000000000000     
  -3.9800000000000002E-002     0.0000000000000000     
  -3.9750000000000001E-002     0.0000000000000000     
  -3.9699999999999999E-002     0.0000000000000000     
  -3.9649999999999998E-002     0.0000000000000000     
  -3.9600000000000003E-002     0.0000000000000000     
  -3.9550000000000002E-002     0.0000000000000000     
  -3.9500000000000000E-002     0.0000000000000000     
  -3.9449999999999999E-002     0.0000000000000000     
  -3.9399999999999998E-002     0.0000000000000000     
  -3.9350000000000003E-002     0.0000000000000000     
  -3.9300000000000002E-002     0.0000000000000000     
  -3.9250000000000000E-002     0.0000000000000000     
  -3.9199999999999999E-002     0.0000000000000000     
  -3.9150000000000004E-002     0.0000000000000000     
  -3.9100000000000003E-002     0.0000000000000000     
  -3.9050000000000001E-002     0.0000000000000000     
  -3.9000000000000000E-002     4.5379928329264239E-038
  -3.8949999999999999E-002     3.4211579354330758E-037
  -3.8900000000000004E-002     1.8421704988868422E-036
  -3.8850000000000003E-002     7.3752941218685269E-036
  -3.8800000000000001E-002     2.2675104708359053E-035
  -3.8750000000000000E-002     5.2084334239158490E-035
  -3.8699999999999998E-002     7.4117863398853961E-035
  -3.8650000000000004E-002    -2.9318490881621350E-035
  -3.8600000000000002E-002    -6.0749751963497650E-034
  -3.8550000000000001E-002    -2.3772196298903821E-033
  -3.8500000000000000E-002    -6.2791413096744385E-033
  -3.8449999999999998E-002    -1.2392343840795595E-032
  -3.8400000000000004E-002    -1.6893265065594519E-032
  -3.8350000000000002E-002    -6.3476247586909274E-033
  -3.8300000000000001E-002     4.9191488250547836E-032
  -3.8249999999999999E-002     1.9719948196270157E-031
  -3.8199999999999998E-002     4.8126161335448475E-031
  -3.8150000000000003E-002     8.7124525954374327E-031
  -3.8100000000000002E-002     1.1226662725508202E-030
  -3.8050000000000000E-002     5.8397596874796813E-031
  -3.7999999999999999E-002    -1.9231263552111394E-030
  -3.7949999999999998E-002    -7.8536313338624361E-030
  -3.7900000000000003E-002    -1.7869245856048455E-029
  -3.7850000000000002E-002    -2.9581653326725623E-029
  -3.7800000000000000E-002    -3.4388897203055304E-029
  -3.7749999999999999E-002    -1.5124072230109225E-029
  -3.7699999999999997E-002     5.1818406624522003E-029
  -3.7650000000000003E-002     1.8501531104493211E-028
  -3.7600000000000001E-002     3.7414567316080451E-028
  -3.7550000000000000E-002     5.4773247170073023E-028
  -3.7499999999999999E-002     5.4890266583259724E-028
  -3.7449999999999997E-002     1.4853485267580447E-028
  -3.7400000000000003E-002    -8.7177818960225108E-028
  -3.7350000000000001E-002    -2.5539696202464362E-027
  -3.7300000000000000E-002    -4.5499024744642231E-027
  -3.7249999999999998E-002    -5.9598578611457377E-027
  -3.7200000000000004E-002    -5.3711962585754592E-027
  -3.7150000000000002E-002    -1.2305274222807491E-027
  -3.7100000000000001E-002     7.4264929995145094E-027
  -3.7050000000000000E-002     2.0051544007156800E-026
  -3.6999999999999998E-002     3.3818975472368542E-026
  -3.6950000000000004E-002     4.3450461850558603E-026
  -3.6900000000000002E-002     4.1945361877226103E-026
  -3.6850000000000001E-002     2.2251985399010973E-026
  -3.6799999999999999E-002    -2.0390567640312542E-026
  -3.6749999999999998E-002    -8.5862669269648341E-026
  -3.6700000000000003E-002    -1.6669359522823017E-025
  -3.6650000000000002E-002    -2.4598730487140141E-025
  -3.6600000000000001E-002    -2.9623056129191086E-025
  -3.6549999999999999E-002    -2.8017097391712189E-025
  -3.6499999999999998E-002    -1.5583743665284114E-025
  -3.6450000000000003E-002     1.1205181612819717E-025
  -3.6400000000000002E-002     5.3363402217903112E-025
  -3.6350000000000000E-002     1.0713845528859579E-024
  -3.6299999999999999E-002     1.6209626843002770E-024
  -3.6249999999999998E-002     2.0055141406387850E-024
  -3.6200000000000003E-002     1.9919511048679741E-024
  -3.6150000000000002E-002     1.3318855496143991E-024
  -3.6100000000000000E-002    -1.7679460392710535E-025
  -3.6049999999999999E-002    -2.6140270311417635E-024
  -3.6000000000000004E-002    -5.8495132463318706E-024
  -3.5950000000000003E-002    -9.4398915415944380E-024
  -3.5900000000000001E-002    -1.2517453235955050E-023
  -3.5850000000000000E-002    -1.3712714600055460E-023
  -3.5799999999999998E-002    -1.1213206257271307E-023
  -3.5750000000000004E-002    -3.1109653040552222E-024
  -3.5700000000000003E-002     1.1830271661670845E-023
  -3.5650000000000001E-002     3.3010127722638145E-023
  -3.5600000000000000E-002     5.6741282283671069E-023
  -3.5549999999999998E-002     7.5559451880006026E-023
  -3.5500000000000004E-002     7.8917721841526006E-023
  -3.5450000000000002E-002     5.5883616249039729E-023
  -3.5400000000000001E-002    -2.5502072615469473E-025
  -3.5349999999999999E-002    -8.6658300828038340E-023
  -3.5299999999999998E-002    -1.8709199629803105E-022
  -3.5250000000000004E-002    -2.7213864476147398E-022
  -3.5200000000000002E-002    -3.0517941416540355E-022
  -3.5150000000000001E-002    -2.5377088077467155E-022
  -3.5099999999999999E-002    -1.0335425600005060E-022
  -3.5049999999999998E-002     1.3181910574222217E-022
  -3.5000000000000003E-002     4.0578901532741370E-022
  -3.4950000000000002E-002     6.4885100787095862E-022
  -3.4900000000000000E-002     7.8493719309749028E-022
  -3.4849999999999999E-002     7.5273160886088678E-022
  -3.4799999999999998E-002     5.2303520989193570E-022
  -3.4750000000000003E-002     1.0698613063635606E-022
  -3.4700000000000002E-002    -4.4498605392538049E-022
  -3.4650000000000000E-002    -1.0482223362435136E-021
  -3.4599999999999999E-002    -1.5863853461404023E-021
  -3.4549999999999997E-002    -1.9104256571110553E-021
  -3.4500000000000003E-002    -1.8435520277736174E-021
  -3.4450000000000001E-002    -1.2110635409496743E-021
  -3.4400000000000000E-002     8.7598239207570069E-023
  -3.4349999999999999E-002     1.9663652416276312E-021
  -3.4299999999999997E-002     4.0362691946521885E-021
  -3.4250000000000003E-002     5.5582789551925940E-021
  -3.4200000000000001E-002     5.5518538614004332E-021
  -3.4150000000000000E-002     3.1134792665323278E-021
  -3.4099999999999998E-002    -2.0869794685976928E-021
  -3.4049999999999997E-002    -9.2848901168445782E-021
  -3.4000000000000002E-002    -1.6331820734389488E-020
  -3.3950000000000001E-002    -1.9918664426703890E-020
  -3.3900000000000000E-002    -1.6477988676396823E-020
  -3.3849999999999998E-002    -3.6794465568834307E-021
  -3.3799999999999997E-002     1.7896541875305613E-020
  -3.3750000000000002E-002     4.3594907778911106E-020
  -3.3700000000000001E-002     6.4782659089333326E-020
  -3.3649999999999999E-002     7.0696637956944768E-020
  -3.3599999999999998E-002     5.1950220523713691E-020
  -3.3550000000000003E-002     4.8544128371039058E-021
  -3.3500000000000002E-002    -6.4933872540389188E-020
  -3.3450000000000001E-002    -1.4113849528649229E-019
  -3.3399999999999999E-002    -1.9923335367930484E-019
  -3.3349999999999998E-002    -2.1264266930722657E-019
  -3.3300000000000003E-002    -1.6151822766140471E-019
  -3.3250000000000002E-002    -4.1540316644146618E-020
  -3.3200000000000000E-002     1.3040913080289907E-019
  -3.3149999999999999E-002     3.1637245017109262E-019
  -3.3099999999999997E-002     4.6435033697914342E-019
  -3.3050000000000003E-002     5.2114851790377667E-019
  -3.3000000000000002E-002     4.4784897880933506E-019
  -3.2950000000000000E-002     2.3353563854048976E-019
  -3.2899999999999999E-002    -9.6877400451573197E-020
  -3.2850000000000004E-002    -4.8329005071202058E-019
  -3.2800000000000003E-002    -8.3976919432066585E-019
  -3.2750000000000001E-002    -1.0706606207187919E-018
  -3.2700000000000000E-002    -1.0902451137132246E-018
  -3.2649999999999998E-002    -8.4265913046976726E-019
  -3.2600000000000004E-002    -3.1949944119439460E-019
  -3.2550000000000003E-002     4.2688738066060106E-019
  -3.2500000000000001E-002     1.2768030388801305E-018
  -3.2450000000000000E-002     2.0470721812703301E-018
  -3.2399999999999998E-002     2.5106943892272215E-018
  -3.2350000000000004E-002     2.4372790123260360E-018
  -3.2300000000000002E-002     1.6552503473398004E-018
  -3.2250000000000001E-002     1.2831855264199990E-019
  -3.2199999999999999E-002    -1.9726581248456846E-018
  -3.2149999999999998E-002    -4.2314016996202310E-018
  -3.2100000000000004E-002    -6.0134680010204554E-018
  -3.2050000000000002E-002    -6.5815142113690003E-018
  -3.2000000000000001E-002    -5.2972850689100861E-018
  -3.1949999999999999E-002    -1.8746745808053281E-018
  -3.1899999999999998E-002     3.3866832820633377E-018
  -3.1850000000000003E-002     9.4791453268789115E-018
  -3.1800000000000002E-002     1.4761960405205997E-017
  -3.1750000000000000E-002     1.7278449662718596E-017
  -3.1699999999999999E-002     1.5289021359513802E-017
  -3.1649999999999998E-002     7.9082661894206590E-018
  -3.1600000000000003E-002    -4.3370498857606007E-018
  -3.1550000000000002E-002    -1.9240023113980003E-017
  -3.1500000000000000E-002    -3.3108286447321843E-017
  -3.1449999999999999E-002    -4.1486241819030660E-017
  -3.1399999999999997E-002    -4.0312518000414444E-017
  -3.1350000000000003E-002    -2.7256048348778263E-017
  -3.1300000000000001E-002    -2.8562955488485020E-018
  -3.1250000000000000E-002     2.8929092815832900E-017
  -3.1199999999999999E-002     6.1066315359383480E-017
  -3.1150000000000001E-002     8.4762373083492198E-017
  -3.1100000000000003E-002     9.1565096007475608E-017
  -3.1050000000000001E-002     7.5788131874444406E-017
  -3.1000000000000000E-002     3.6630308355715373E-017
  -3.0949999999999998E-002    -2.0655053725472616E-017
  -3.0900000000000000E-002    -8.5016658611366271E-017
  -3.0850000000000002E-002    -1.4143958873166826E-016
  -3.0800000000000001E-002    -1.7410755597988503E-016
  -3.0750000000000000E-002    -1.7026621588310712E-016
  -3.0699999999999998E-002    -1.2391158385588657E-016
  -3.0650000000000000E-002    -3.8377248531003212E-017
  -3.0600000000000002E-002     7.2934734366909375E-017
  -3.0550000000000001E-002     1.8807868040818011E-016
  -3.0499999999999999E-002     2.8028162761670427E-016
  -3.0449999999999998E-002     3.2331239414845550E-016
  -3.0400000000000000E-002     2.9757167512682607E-016
  -3.0350000000000002E-002     1.9572685960935583E-016
  -3.0300000000000001E-002     2.6654695029334081E-017
  -3.0249999999999999E-002    -1.8340698360301128E-016
  -3.0200000000000001E-002    -3.9326268230893707E-016
  -3.0150000000000000E-002    -5.5295681580656067E-016
  -3.0100000000000002E-002    -6.1331113074260121E-016
  -3.0050000000000000E-002    -5.3753766034654391E-016
  -2.9999999999999999E-002    -3.1285454563096331E-016
  -2.9950000000000001E-002     4.0592927340031631E-017
  -2.9899999999999999E-002     4.6639848349548746E-016
  -2.9850000000000002E-002     8.7657082506219144E-016
  -2.9800000000000000E-002     1.1653531645130599E-015
  -2.9749999999999999E-002     1.2312680971755347E-015
  -2.9700000000000001E-002     1.0039707300498665E-015
  -2.9650000000000003E-002     4.7014298402572448E-016
  -2.9600000000000001E-002    -3.0877370058071227E-016
  -2.9550000000000000E-002    -1.1939986918639901E-015
  -2.9499999999999998E-002    -1.9866661892569730E-015
  -2.9450000000000000E-002    -2.4652712320299782E-015
  -2.9400000000000003E-002    -2.4380767480297171E-015
  -2.9350000000000001E-002    -1.7997481601900603E-015
  -2.9300000000000000E-002    -5.7775436899783345E-016
  -2.9249999999999998E-002     1.0463577233328006E-015
  -2.9200000000000000E-002     2.7519288859435833E-015
  -2.9150000000000002E-002     4.1337547685550968E-015
  -2.9100000000000001E-002     4.7893537808935543E-015
  -2.9049999999999999E-002     4.4217535818891695E-015
  -2.8999999999999998E-002     2.9333309749206182E-015
  -2.8950000000000000E-002     4.8453259966251025E-016
  -2.8900000000000002E-002    -2.5034478789506506E-015
  -2.8850000000000001E-002    -5.4112073792715717E-015
  -2.8799999999999999E-002    -7.5422230869764878E-015
  -2.8749999999999998E-002    -8.2797800200773453E-015
  -2.8700000000000000E-002    -7.2451601533675742E-015
  -2.8650000000000002E-002    -4.4184044712136911E-015
  -2.8600000000000000E-002    -1.8840766550733919E-016
  -2.8549999999999999E-002     4.6866403994657202E-015
  -2.8500000000000001E-002     9.2075895041167774E-015
  -2.8450000000000000E-002     1.2329788788441832E-014
  -2.8400000000000002E-002     1.3187449585588177E-014
  -2.8350000000000000E-002     1.1300329967632693E-014
  -2.8299999999999999E-002     6.7177719223862040E-015
  -2.8250000000000001E-002     6.6202960809922338E-017
  -2.8200000000000003E-002    -7.5160969150835109E-015
  -2.8150000000000001E-002    -1.4552580116938564E-014
  -2.8100000000000000E-002    -1.9486365110800685E-014
  -2.8049999999999999E-002    -2.0982776924755753E-014
  -2.8000000000000001E-002    -1.8226476214424121E-014
  -2.7950000000000003E-002    -1.1159080871721121E-014
  -2.7900000000000001E-002    -6.0585720950637153E-016
  -2.7850000000000000E-002     1.1749892636226535E-014
  -2.7799999999999998E-002     2.3567709828355403E-014
  -2.7750000000000000E-002     3.2221700398998573E-014
  -2.7700000000000002E-002     3.5303992321354215E-014
  -2.7650000000000001E-002     3.1183171733884447E-014
  -2.7600000000000000E-002     1.9508417797960496E-014
  -2.7549999999999998E-002     1.5335438324525040E-015
  -2.7500000000000000E-002    -1.9855258091056342E-014
  -2.7450000000000002E-002    -4.0481704297368632E-014
  -2.7400000000000001E-002    -5.5592036932900210E-014
  -2.7349999999999999E-002    -6.0845078040253783E-014
  -2.7299999999999998E-002    -5.3395456024974619E-014
  -2.7250000000000000E-002    -3.2821982980530113E-014
  -2.7200000000000002E-002    -1.6424414092152606E-015
  -2.7150000000000001E-002     3.4788110893356749E-014
  -2.7099999999999999E-002     6.9076768500016502E-014
  -2.7049999999999998E-002     9.3206847654950953E-014
  -2.7000000000000000E-002     1.0031313880749668E-013
  -2.6950000000000002E-002     8.6435451441395508E-014
  -2.6900000000000000E-002     5.1819794842476777E-014
  -2.6849999999999999E-002     1.3946517429144746E-015
  -2.6800000000000001E-002    -5.5789095560564029E-014
  -2.6749999999999999E-002    -1.0813382957476341E-013
  -2.6700000000000002E-002    -1.4381602612939112E-013
  -2.6650000000000000E-002    -1.5337917321000759E-013
  -2.6599999999999999E-002    -1.3202451561785210E-013
  -2.6550000000000001E-002    -8.1058500835390928E-014
  -2.6500000000000003E-002    -8.1192973888542171E-015
  -2.6450000000000001E-002     7.3936235262302525E-014
  -2.6400000000000000E-002     1.4931113882497759E-013
  -2.6349999999999998E-002     2.0228227929697119E-013
  -2.6300000000000000E-002     2.2035688256459588E-013
  -2.6250000000000002E-002     1.9694559632713872E-013
  -2.6200000000000001E-002     1.3302065389692155E-013
  -2.6150000000000000E-002     3.7422620686613287E-014
  -2.6099999999999998E-002    -7.4273846442447138E-014
  -2.6050000000000000E-002    -1.8217648039342795E-013
  -2.6000000000000002E-002    -2.6540762241938240E-013
  -2.5950000000000001E-002    -3.0584094605151371E-013
  -2.5899999999999999E-002    -2.9165772407588152E-013
  -2.5849999999999998E-002    -2.2013028500225858E-013
  -2.5800000000000000E-002    -9.9100129023315520E-014
  -2.5750000000000002E-002     5.3257749902303407E-014
  -2.5700000000000001E-002     2.1058929535816251E-013
  -2.5649999999999999E-002     3.4235878921420502E-013
  -2.5599999999999998E-002     4.1926497943096361E-013
  -2.5550000000000000E-002     4.1928423848187836E-013
  -2.5500000000000002E-002     3.3323670426774529E-013
  -2.5450000000000000E-002     1.6861764732976834E-013
  -2.5399999999999999E-002    -4.9467437554913277E-014
  -2.5349999999999998E-002    -2.8102167576377675E-013
  -2.5300000000000000E-002    -4.7759869084750074E-013
  -2.5250000000000002E-002    -5.9166877993805292E-013
  -2.5200000000000000E-002    -5.8725799690827990E-013
  -2.5149999999999999E-002    -4.4960101998236139E-013
  -2.5100000000000001E-002    -1.9140349594372148E-013
  -2.5049999999999999E-002     1.4625312862008945E-013
  -2.5000000000000001E-002     4.9932009837000950E-013
  -2.4950000000000000E-002     7.9206243860841117E-013
  -2.4899999999999999E-002     9.5229830357695244E-013
  -2.4850000000000001E-002     9.2751274112087884E-013
  -2.4800000000000003E-002     6.9823650617136409E-013
  -2.4750000000000001E-002     2.8540283424029547E-013
  -2.4700000000000000E-002    -2.5044684806170868E-013
  -2.4649999999999998E-002    -8.1847927844670576E-013
  -2.4600000000000000E-002    -1.3138310865309976E-012
  -2.4550000000000002E-002    -1.6375944080197449E-012
  -2.4500000000000001E-002    -1.7163756533419231E-012
  -2.4450000000000000E-002    -1.5173168503498201E-012
  -2.4399999999999998E-002    -1.0554610819265494E-012
  -2.4350000000000000E-002    -3.9202698864748073E-013
  -2.4299999999999999E-002     3.7589262152507466E-013
  -2.4250000000000001E-002     1.1319727181792210E-012
  -2.4199999999999999E-002     1.7602854048842688E-012
  -2.4150000000000001E-002     2.1642572183256456E-012
  -2.4100000000000000E-002     2.2817480703490794E-012
  -2.4049999999999998E-002     2.0940381210497331E-012
  -2.4000000000000000E-002     1.6277120332551055E-012
  -2.3949999999999999E-002     9.4955843948073502E-013
  -2.3900000000000001E-002     1.5547412259854635E-013
  -2.3850000000000000E-002    -6.4502535293989791E-013
  -2.3800000000000002E-002    -1.3466504617579562E-012
  -2.3750000000000000E-002    -1.8661129358350527E-012
  -2.3699999999999999E-002    -2.1570417842627859E-012
  -2.3650000000000001E-002    -2.2190324886745754E-012
  -2.3599999999999999E-002    -2.0979918504579255E-012
  -2.3550000000000001E-002    -1.8757917887817526E-012
  -2.3500000000000000E-002    -1.6489373991128760E-012
  -2.3449999999999999E-002    -1.4983816842758213E-012
  -2.3400000000000001E-002    -1.4553304071708070E-012
  -2.3349999999999999E-002    -1.4701526752527914E-012
  -2.3300000000000001E-002    -1.3925153416567320E-012
  -2.3250000000000000E-002    -9.6992616380817230E-013
  -2.3199999999999998E-002     1.3117964450001921E-013
  -2.3150000000000000E-002     2.2824482994346803E-012
  -2.3099999999999999E-002     5.8348104182365978E-012
  -2.3050000000000001E-002     1.1054717160429420E-011
  -2.3000000000000000E-002     1.8068847752450578E-011
  -2.2950000000000002E-002     2.6830203572486232E-011
  -2.2900000000000000E-002     3.7114640065209767E-011
  -2.2849999999999999E-002     4.8550530278184180E-011
  -2.2800000000000001E-002     6.0676617795022437E-011
  -2.2749999999999999E-002     7.3016607158377761E-011
  -2.2700000000000001E-002     8.5154910662037353E-011
  -2.2650000000000000E-002     9.6797711478869082E-011
  -2.2599999999999999E-002     1.0780714586902022E-010
  -2.2550000000000001E-002     1.1820281232491573E-010
  -2.2499999999999999E-002     1.2813234180518549E-010
  -2.2450000000000001E-002     1.3781961490861116E-010
  -2.2400000000000000E-002     1.4750344022567232E-010
  -2.2349999999999998E-002     1.5738030343248945E-010
  -2.2300000000000000E-002     1.6756212596673634E-010
  -2.2249999999999999E-002     1.7805586004412131E-010
  -2.2200000000000001E-002     1.8876577494363181E-010
  -2.2150000000000000E-002     1.9951532521504911E-010
  -2.2100000000000002E-002     2.1008231798764851E-010
  -2.2050000000000000E-002     2.2024055629923454E-010
  -2.1999999999999999E-002     2.2980218227303482E-010
  -2.1950000000000001E-002     2.3865546693343148E-010
  -2.1899999999999999E-002     2.4679425286735365E-010
  -2.1850000000000001E-002     2.5433510187426865E-010
  -2.1800000000000000E-002     2.6151829407217141E-010
  -2.1749999999999999E-002     2.6868886987958113E-010
  -2.1700000000000001E-002     2.7625595532650029E-010
  -2.1649999999999999E-002     2.8463237521743540E-010
  -2.1600000000000001E-002     2.9416152498154722E-010
  -2.1550000000000000E-002     3.0504417837633133E-010
  -2.1499999999999998E-002     3.1728240932843393E-010
  -2.1450000000000000E-002     3.3065667206684272E-010
  -2.1399999999999999E-002     3.4474802220587748E-010
  -2.1350000000000001E-002     3.5900821069539665E-010
  -2.1299999999999999E-002     3.7286746457928581E-010
  -2.1250000000000002E-002     3.8585960677414452E-010
  -2.1200000000000000E-002     3.9773547655200121E-010
  -2.1149999999999999E-002     4.0853691934414343E-010
  -2.1100000000000001E-002     4.1860916530528214E-010
  -2.1049999999999999E-002     4.2854503778153134E-010
  -2.1000000000000001E-002     4.3906995750278406E-010
  -2.0950000000000000E-002     4.5089268636298349E-010
  -2.0899999999999998E-002     4.6455557975777707E-010
  -2.0850000000000000E-002     4.8031893308138865E-010
  -2.0799999999999999E-002     4.9810519210159672E-010
  -2.0750000000000001E-002     5.1751530535457610E-010
  -2.0700000000000000E-002     5.3791145897244320E-010
  -2.0649999999999998E-002     5.5854651002004110E-010
  -2.0600000000000000E-002     5.7871025546036836E-010
  -2.0549999999999999E-002     5.9786261813229952E-010
  -2.0500000000000001E-002     6.1572922592584513E-010
  -2.0449999999999999E-002     6.3234436698696695E-010
  -2.0400000000000001E-002     6.4803830834810324E-010
  -2.0350000000000000E-002     6.6337717100783670E-010
  -2.0299999999999999E-002     6.7906799857733123E-010
  -2.0250000000000001E-002     6.9584677783519726E-010
  -2.0199999999999999E-002     7.1436562272294480E-010
  -2.0150000000000001E-002     7.3509343964708072E-010
  -2.0100000000000000E-002     7.5824407633490564E-010
  -2.0049999999999998E-002     7.8374171612232580E-010
  -2.0000000000000000E-002     8.1123107974086432E-010
  -1.9949999999999999E-002     8.4013379602602400E-010
  -1.9900000000000001E-002     8.6974594222183249E-010
  -1.9850000000000000E-002     8.9936327009169046E-010
  -1.9799999999999998E-002     9.2841416675586729E-010
  -1.9750000000000000E-002     9.5657476794131257E-010
  -1.9699999999999999E-002     9.8384262040649834E-010
  -1.9650000000000001E-002     1.0105496265475663E-009
  -1.9599999999999999E-002     1.0373088724620329E-009
  -1.9550000000000001E-002     1.0649002051114658E-009
  -1.9500000000000000E-002     1.0941182281707522E-009
  -1.9449999999999999E-002     1.1256114661324241E-009
  -1.9400000000000001E-002     1.1597491488540395E-009
  -1.9349999999999999E-002     1.1965422824568911E-009
  -1.9300000000000001E-002     1.2356385458583270E-009
  -1.9250000000000000E-002     1.2763947099403188E-009
  -1.9199999999999998E-002     1.3180126238787578E-009
  -1.9150000000000000E-002     1.3597135870786391E-009
  -1.9099999999999999E-002     1.4009169225766880E-009
  -1.9050000000000001E-002     1.4413866464223329E-009
  -1.9000000000000000E-002     1.4813118508153975E-009
  -1.8949999999999998E-002     1.5213003607880261E-009
  -1.8900000000000000E-002     1.5622835491749616E-009
  -1.8849999999999999E-002     1.6053440395613275E-009
  -1.8800000000000001E-002     1.6514998215436881E-009
  -1.8749999999999999E-002     1.7014880275532421E-009
  -1.8700000000000001E-002     1.7555954464411243E-009
  -1.8650000000000000E-002     1.8135720333323233E-009
  -1.8599999999999998E-002     1.8746525929679924E-009
  -1.8550000000000001E-002     1.9376880041783407E-009
  -1.8499999999999999E-002     2.0013612745396299E-009
  -1.8450000000000001E-002     2.0644470174309108E-009
  -1.8400000000000000E-002     2.1260599633446190E-009
  -1.8349999999999998E-002     2.1858436150196092E-009
  -1.8300000000000000E-002     2.2440563852466795E-009
  -1.8249999999999999E-002     2.3015438237392852E-009
  -1.8200000000000001E-002     2.3596054162720588E-009
  -1.8149999999999999E-002     2.4197804055494077E-009
  -1.8100000000000002E-002     2.4835967504163078E-009
  -1.8050000000000000E-002     2.5523268240172129E-009
  -1.7999999999999999E-002     2.6267872396384777E-009
  -1.7950000000000001E-002     2.7072154280200268E-009
  -1.7899999999999999E-002     2.7932374573276855E-009
  -1.7850000000000001E-002     2.8839336535087309E-009
  -1.7800000000000000E-002     2.9779911870188854E-009
  -1.7749999999999998E-002     3.0739235983599436E-009
  -1.7700000000000000E-002     3.1703288339538039E-009
  -1.7649999999999999E-002     3.2661406305723852E-009
  -1.7600000000000001E-002     3.3608359616183879E-009
  -1.7550000000000000E-002     3.4545498129006445E-009
  -1.7499999999999998E-002     3.5480735923842209E-009
  -1.7450000000000000E-002     3.6427272393784106E-009
  -1.7399999999999999E-002     3.7401252207060439E-009
  -1.7350000000000001E-002     3.8418820646311361E-009
  -1.7299999999999999E-002     3.9493089902613532E-009
  -1.7250000000000001E-002     4.0631798899285359E-009
  -1.7200000000000000E-002     4.1835997634103491E-009
  -1.7149999999999999E-002     4.3100119015434353E-009
  -1.7100000000000001E-002     4.4413363097631031E-009
  -1.7049999999999999E-002     4.5761995024719431E-009
  -1.7000000000000001E-002     4.7132152827941516E-009
  -1.6950000000000000E-002     4.8512502182104244E-009
  -1.6899999999999998E-002     4.9896355581067778E-009
  -1.6850000000000000E-002     5.1282854563978686E-009
  -1.6799999999999999E-002     5.2677111290163760E-009
  -1.6750000000000001E-002     5.4089409419653350E-009
  -1.6700000000000000E-002     5.5533531354316763E-009
  -1.6649999999999998E-002     5.7024497444558755E-009
  -1.6600000000000000E-002     5.8576010346879915E-009
  -1.6549999999999999E-002     6.0198016226828176E-009
  -1.6500000000000001E-002     6.1894837115255529E-009
  -1.6449999999999999E-002     6.3664256235005459E-009
  -1.6400000000000001E-002     6.5497956563653816E-009
  -1.6350000000000000E-002     6.7383348217422510E-009
  -1.6299999999999999E-002     6.9306501951277518E-009
  -1.6250000000000001E-002     7.1255720494967297E-009
  -1.6199999999999999E-002     7.3224857678557857E-009
  -1.6150000000000001E-002     7.5215540417861763E-009
  -1.6100000000000000E-002     7.7237585484196584E-009
  -1.6049999999999998E-002     7.9307495245302938E-009
  -1.6000000000000000E-002     8.1445176727446945E-009
  -1.5949999999999999E-002     8.3669726591625309E-009
  -1.5900000000000001E-002     8.5995376244869771E-009
  -1.5850000000000000E-002     8.8428471083779411E-009
  -1.5799999999999998E-002     9.0966314904635095E-009
  -1.5750000000000000E-002     9.3598089186777575E-009
  -1.5699999999999999E-002     9.6307283605892823E-009
  -1.5650000000000001E-002     9.9075205803815865E-009
  -1.5599999999999999E-002     1.0188444245467517E-008
  -1.5550000000000001E-002     1.0472177011951826E-008
  -1.5500000000000000E-002     1.0758004428536792E-008
  -1.5449999999999998E-002     1.1045903293581198E-008
  -1.5400000000000000E-002     1.1336524294505666E-008
  -1.5349999999999999E-002     1.1631100119878805E-008
  -1.5300000000000001E-002     1.1931294356283608E-008
  -1.5250000000000000E-002     1.2238995553134896E-008
  -1.5199999999999998E-002     1.2556070882632448E-008
  -1.5150000000000000E-002     1.2884091424370821E-008
  -1.5099999999999999E-002     1.3224072986206188E-008
  -1.5050000000000001E-002     1.3576278002834637E-008
  -1.4999999999999999E-002     1.3940134975326017E-008
  -1.4949999999999998E-002     1.4314334389479307E-008
  -1.4900000000000000E-002     1.4697102634876948E-008
  -1.4849999999999999E-002     1.5086630424511369E-008
  -1.4800000000000001E-002     1.5481565101968823E-008
  -1.4749999999999999E-002     1.5881436834386145E-008
  -1.4700000000000001E-002     1.6286918247815565E-008
  -1.4650000000000000E-002     1.6699811449671005E-008
  -1.4599999999999998E-002     1.7122805030787108E-008
  -1.4550000000000000E-002     1.7559026064665917E-008
  -1.4499999999999999E-002     1.8011511173136932E-008
  -1.4450000000000001E-002     1.8482716256451973E-008
  -1.4400000000000000E-002     1.8974149532659368E-008
  -1.4349999999999998E-002     1.9486169256230965E-008
  -1.4300000000000000E-002     2.0018016486245953E-008
  -1.4249999999999999E-002     2.0568010785126491E-008
  -1.4200000000000001E-002     2.1133861765475951E-008
  -1.4149999999999999E-002     2.1713050607413739E-008
  -1.4099999999999998E-002     2.2303216590115494E-008
  -1.4050000000000000E-002     2.2902470982631560E-008
  -1.3999999999999999E-002     2.3509660815591654E-008
  -1.3950000000000001E-002     2.4124515444165688E-008
  -1.3899999999999999E-002     2.4747669992043851E-008
  -1.3850000000000001E-002     2.5380532031821632E-008
  -1.3800000000000000E-002     2.6024983582523203E-008
  -1.3749999999999998E-002     2.6682946275054267E-008
  -1.3700000000000000E-002     2.7355930667943498E-008
  -1.3649999999999999E-002     2.8044661762020623E-008
  -1.3600000000000001E-002     2.8748901578089044E-008
  -1.3550000000000000E-002     2.9467513289524844E-008
  -1.3499999999999998E-002     3.0198779079202660E-008
  -1.3450000000000000E-002     3.0940897452065172E-008
  -1.3399999999999999E-002     3.1692523886065610E-008
  -1.3350000000000001E-002     3.2453252665033222E-008
  -1.3299999999999999E-002     3.3223869554137472E-008
  -1.3249999999999998E-002     3.4006399389953996E-008
  -1.3200000000000000E-002     3.4803874997571499E-008
  -1.3149999999999998E-002     3.5619957264166601E-008
  -1.3100000000000001E-002     3.6458526887098251E-008
  -1.3049999999999999E-002     3.7323265517658870E-008
  -1.3000000000000001E-002     3.8217400069566306E-008
  -1.2950000000000000E-002     3.9143547949472894E-008
  -1.2899999999999998E-002     4.0103665510445297E-008
  -1.2850000000000000E-002     4.1099050771829285E-008
  -1.2799999999999999E-002     4.2130356796455672E-008