  -4.0000000000000001E-002     0.0000000000000000     
  -3.9949999999999999E-002     0.0000000000000000     
  -3.9899999999999998E-002     0.0000000000000000     
  -3.9850000000000003E-002     0.0000000000000000     
  -3.9800000000000002E-002     0.0000000000000000     
  -3.9750000000000001E-002     0.0000000000000000     
  -3.9699999999999999E-002     0.0000000000000000     
  -3.9649999999999998E-002     0.0000000000000000     
  -3.9600000000000003E-002     0.0000000000000000     
  -3.9550000000000002E-002     0.0000000000000000     
  -3.9500000000000000E-002     0.0000000000000000     
  -3.9449999999999999E-002     0.0000000000000000     
  -3.9399999999999998E-002     0.0000000000000000     
  -3.9350000000000003E-002     0.0000000000000000     
  -3.9300000000000002E-002     0.0000000000000000     
  -3.9250000000000000E-002     0.0000000000000000     
  -3.9199999999999999E-002     0.0000000000000000     
  -3.9150000000000004E-002     0.0000000000000000     
  -3.9100000000000003E-002     0.0000000000000000     
  -3.9050000000000001E-002     0.0000000000000000     
  -3.9000000000000000E-002     0.0000000000000000     
  -3.8949999999999999E-002     0.0000000000000000     
  -3.8900000000000004E-002     0.0000000000000000     
  -3.8850000000000003E-002     0.0000000000000000     
  -3.8800000000000001E-002     0.0000000000000000     
  -3.8750000000000000E-002     0.0000000000000000     
  -3.8699999999999998E-002     0.0000000000000000     
  -3.8650000000000004E-002     0.0000000000000000     
  -3.8600000000000002E-002     0.0000000000000000     
  -3.8550000000000001E-002     0.0000000000000000     
  -3.8500000000000000E-002     0.0000000000000000     
  -3.8449999999999998E-002     0.0000000000000000     
  -3.8400000000000004E-002     0.0000000000000000     
  -3.8350000000000002E-002     0.0000000000000000     
  -3.8300000000000001E-002     0.0000000000000000     
  -3.8249999999999999E-002     0.0000000000000000     
  -3.8199999999999998E-002     0.0000000000000000     
  -3.8150000000000003E-002     0.0000000000000000     
  -3.8100000000000002E-002     0.0000000000000000     
  -3.8050000000000000E-002     0.0000000000000000     
  -3.7999999999999999E-002     0.0000000000000000     
  -3.7949999999999998E-002     0.0000000000000000     
  -3.7900000000000003E-002     0.0000000000000000     
  -3.7850000000000002E-002     0.0000000000000000     
  -3.7800000000000000E-002     0.0000000000000000     
  -3.7749999999999999E-002     0.0000000000000000     
  -3.7699999999999997E-002     0.0000000000000000     
  -3.7650000000000003E-002     0.0000000000000000     
  -3.7600000000000001E-002     0.0000000000000000     
  -3.7550000000000000E-002     0.0000000000000000     
  -3.7499999999999999E-002     0.0000000000000000     
  -3.7449999999999997E-002     0.0000000000000000     
  -3.7400000000000003E-002     0.0000000000000000     
  -3.7350000000000001E-002     0.0000000000000000     
  -3.7300000000000000E-002     0.0000000000000000     
  -3.7249999999999998E-002     0.0000000000000000     
  -3.7200000000000004E-002     0.0000000000000000     
  -3.7150000000000002E-002     0.0000000000000000     
  -3.7100000000000001E-002     0.0000000000000000     
  -3.7050000000000000E-002     0.0000000000000000     
  -3.6999999999999998E-002     0.0000000000000000     
  -3.6950000000000004E-002     0.0000000000000000     
  -3.6900000000000002E-002    -3.8771727638336613E-040
  -3.6850000000000001E-002    -1.0510190971594621E-039
  -3.6799999999999999E-002    -1.8619530324829811E-039
  -3.6749999999999998E-002    -2.4212471621258781E-039
  -3.6700000000000003E-002    -7.4025589744366151E-040
  -3.6650000000000002E-002     4.9102220837137140E-039
  -3.6600000000000001E-002     1.8278094759996852E-038
  -3.6549999999999999E-002     3.8812301362331046E-038
  -3.6499999999999998E-002     6.0889710108522379E-038
  -3.6450000000000003E-002     7.2956814181257900E-038
  -3.6400000000000002E-002     8.4797901561341942E-039
  -3.6350000000000000E-002    -1.5103514240216586E-037
  -3.6299999999999999E-002    -4.4947124070738670E-037
  -3.6249999999999998E-002    -8.8238324897581984E-037
  -3.6200000000000003E-002    -1.3709598251259531E-036
  -3.6150000000000002E-002    -1.6676556183252282E-036
  -3.6100000000000000E-002    -1.3224851625155014E-036
  -3.6049999999999999E-002     2.8741367784414572E-037
  -3.6000000000000004E-002     3.7904060618281015E-036
  -3.5950000000000003E-002     9.4700429767211540E-036
  -3.5900000000000001E-002     1.6727315781875370E-035
  -3.5850000000000000E-002     2.3444448932948219E-035
  -3.5799999999999998E-002     2.5493176470324736E-035
  -3.5750000000000004E-002     1.6783620456732761E-035
  -3.5700000000000003E-002    -9.6500066952314485E-036
  -3.5650000000000001E-002    -5.9091847282704941E-035
  -3.5600000000000000E-002    -1.3101197730323138E-034
  -3.5549999999999998E-002    -2.1391641241130453E-034
  -3.5500000000000004E-002    -2.8067221997823102E-034
  -3.5450000000000002E-002    -2.8679330992109710E-034
  -3.5400000000000001E-002    -1.7482848445782120E-034
  -3.5349999999999999E-002     1.1219989265317787E-034
  -3.5299999999999998E-002     6.0688897903434655E-034
  -3.5250000000000004E-002     1.2848029146066464E-033
  -3.5200000000000002E-002     2.0293798681590476E-033
  -3.5150000000000001E-002     2.6059800432785869E-033
  -3.5099999999999999E-002     2.6612323970141091E-033
  -3.5049999999999998E-002     1.7657730542703939E-033
  -3.5000000000000003E-002    -4.8448531646256815E-034
  -3.4950000000000002E-002    -4.3034495469812026E-033
  -3.4900000000000000E-002    -9.4998656330298635E-033
  -3.4849999999999999E-002    -1.5253047765203461E-032
  -3.4799999999999998E-002    -1.9952896529018782E-032
  -3.4750000000000003E-002    -2.1208448856192715E-032
  -3.4700000000000002E-002    -1.6143961872578963E-032
  -3.4650000000000000E-002    -2.0810005670320237E-033
  -3.4599999999999999E-002     2.2371863479353690E-032
  -3.4549999999999997E-002     5.5946458742659711E-032
  -3.4500000000000003E-002     9.3390911622687012E-032
  -3.4450000000000001E-002     1.2474536917446196E-031
  -3.4400000000000000E-002     1.3590920587852196E-031
  -3.4349999999999999E-002     1.1112463514405798E-031
  -3.4299999999999997E-002     3.7605630151518465E-032
  -3.4250000000000003E-002    -8.8230680203177501E-032
  -3.4200000000000001E-002    -2.5450854045311161E-031
  -3.4150000000000000E-002    -4.3016382621288036E-031
  -3.4099999999999998E-002    -5.6667650574847321E-031
  -3.4049999999999997E-002    -6.0742755349055735E-031
  -3.4000000000000002E-002    -5.0455966865220204E-031
  -3.3950000000000001E-002    -2.3964220492016442E-031
  -3.3900000000000000E-002     1.5939859589388986E-031
  -3.3849999999999998E-002     6.1487518711967746E-031
  -3.3799999999999997E-002     1.0177489424484780E-030
  -3.3750000000000002E-002     1.2693627224816692E-030
  -3.3700000000000001E-002     1.3362980647485532E-030
  -3.3649999999999999E-002     1.2947895588360962E-030
  -3.3599999999999998E-002     1.3322893956478755E-030
  -3.3550000000000003E-002     1.6771244819822525E-030
  -3.3500000000000002E-002     2.4486027910010988E-030
  -3.3450000000000001E-002     3.4592943621093899E-030
  -3.3399999999999999E-002     4.0488673036312643E-030
  -3.3349999999999998E-002     3.0649082602016425E-030
  -3.3300000000000003E-002    -8.9510291159203027E-031
  -3.3250000000000002E-002    -8.9268122020007139E-030
  -3.3200000000000000E-002    -2.1016810414305353E-029
  -3.3149999999999999E-002    -3.5227132169990756E-029
  -3.3099999999999997E-002    -4.7241180917741444E-029
  -3.3050000000000003E-002    -5.0690150209395825E-029
  -3.3000000000000002E-002    -3.8551993004359722E-029
  -3.2950000000000000E-002    -5.5884954691402019E-030
  -3.2899999999999999E-002     4.8686036879369759E-029
  -3.2850000000000004E-002     1.1748078499412686E-028
  -3.2800000000000003E-002     1.8587495787800725E-028
  -3.2750000000000001E-002     2.3267681193383735E-028
  -3.2700000000000000E-002     2.3531399577377427E-028
  -3.2649999999999998E-002     1.7691522961088615E-028
  -3.2600000000000004E-002     5.3503236881599473E-029
  -3.2550000000000003E-002    -1.2155512219129387E-028
  -3.2500000000000001E-002    -3.1844701264016194E-028
  -3.2450000000000000E-002    -4.9819733619509682E-028
  -3.2399999999999998E-002    -6.2470941054268758E-028
  -3.2350000000000004E-002    -6.7703367095744162E-028
  -3.2300000000000002E-002    -6.5556493099117028E-028
  -3.2250000000000001E-002    -5.7663325648990257E-028
  -3.2199999999999999E-002    -4.5402370875959822E-028
  -3.2149999999999998E-002    -2.7279555101463611E-028
  -3.2100000000000004E-002     3.1825846487803832E-029
  -3.2050000000000002E-002     5.7327069979840417E-028
  -3.2000000000000001E-002     1.4752297972458852E-027
  -3.1949999999999999E-002     2.7924002001188208E-027
  -3.1899999999999998E-002     4.4060360468893827E-027
  -3.1850000000000003E-002     5.9320362329687536E-027
  -3.1800000000000002E-002     6.6950683471280080E-027
  -3.1750000000000000E-002     5.8213785606271593E-027
  -3.1699999999999999E-002     2.4779105569614156E-027
  -3.1649999999999998E-002    -3.7640160554260914E-027
  -3.1600000000000003E-002    -1.2525620691897679E-026
  -3.1550000000000002E-002    -2.2320083551463533E-026
  -3.1500000000000000E-002    -3.0520302652083105E-026
  -3.1449999999999999E-002    -3.3728760345347088E-026
  -3.1399999999999997E-002    -2.8586357400251050E-026
  -3.1350000000000003E-002    -1.2908775926056655E-026
  -3.1300000000000001E-002     1.3121807227666565E-026
  -3.1250000000000000E-002     4.6098743537670265E-026
  -3.1199999999999999E-002     7.9270488575442947E-026
  -3.1150000000000001E-002     1.0343738307805075E-025
  -3.1100000000000003E-002     1.0888684302031136E-025
  -3.1050000000000001E-002     8.8050895105313014E-026
  -3.1000000000000000E-002     3.8254329342901413E-026
  -3.0949999999999998E-002    -3.6256600585753397E-026
  -3.0900000000000000E-002    -1.2376271493732144E-025
  -3.0850000000000002E-002    -2.0644452079013859E-025
  -3.0800000000000001E-002    -2.6361660268211035E-025
  -3.0750000000000000E-002    -2.7619888574787937E-025
  -3.0699999999999998E-002    -2.3137372027615620E-025
  -3.0650000000000000E-002    -1.2625229146855957E-025
  -3.0600000000000002E-002     3.0374471674292676E-026
  -3.0550000000000001E-002     2.1856496527683789E-025
  -3.0499999999999999E-002     4.0972970725327096E-025
  -3.0449999999999998E-002     5.7029618879115912E-025
  -3.0400000000000000E-002     6.6561743299429614E-025
  -3.0350000000000002E-002     6.6357947204928742E-025
  -3.0300000000000001E-002     5.3806789044507072E-025
  -3.0249999999999999E-002     2.7312312185543388E-025
  -3.0200000000000001E-002    -1.3121170896386632E-025
  -3.0150000000000000E-002    -6.5102683919107372E-025
  -3.0100000000000002E-002    -1.2299089550761383E-024
  -3.0050000000000000E-002    -1.7728095719706130E-024
  -2.9999999999999999E-002    -2.1473495856915641E-024
  -2.9950000000000001E-002    -2.1977211369617316E-024
  -2.9899999999999999E-002    -1.7743279579377223E-024
  -2.9850000000000002E-002    -7.7785242809939762E-025
  -2.9800000000000000E-002     7.8967260385399056E-025
  -2.9749999999999999E-002     2.7802112962046437E-024
  -2.9700000000000001E-002     4.8784954702822358E-024
  -2.9650000000000003E-002     6.6201636960771709E-024
  -2.9600000000000001E-002     7.4583960592045613E-024
  -2.9550000000000000E-002     6.8761796080490157E-024
  -2.9499999999999998E-002     4.5267790627516327E-024
  -2.9450000000000000E-002     3.7201580571183443E-025
  -2.9400000000000003E-002    -5.2189028636775484E-024
  -2.9350000000000001E-002    -1.1444573202518991E-023
  -2.9300000000000000E-002    -1.7142159129675166E-023
  -2.9249999999999998E-002    -2.0954358576358074E-023
  -2.9200000000000000E-002    -2.1569795839732587E-023
  -2.9150000000000002E-002    -1.7995004700827547E-023
  -2.9100000000000001E-002    -9.8073242606632865E-024
  -2.9049999999999999E-002     2.6581655312604272E-024
  -2.8999999999999998E-002     1.8219901139176869E-023
  -2.8950000000000000E-002     3.4872623791718303E-023
  -2.8900000000000002E-002     4.9919894963996297E-023
  -2.8850000000000001E-002     6.0209757708732489E-023
  -2.8799999999999999E-002     6.2473278185766192E-023
  -2.8749999999999998E-002     5.3776541971220154E-023
  -2.8700000000000000E-002     3.2098730576797895E-023
  -2.8650000000000002E-002    -2.9729648702598309E-024
  -2.8600000000000000E-002    -4.9495938968770724E-023
  -2.8549999999999999E-002    -1.0252102768569713E-022
  -2.8500000000000001E-002    -1.5377807368153330E-022
  -2.8450000000000000E-002    -1.9199803255010266E-022
  -2.8400000000000002E-002    -2.0415264720833772E-022
  -2.8350000000000000E-002    -1.7775675349560321E-022
  -2.8299999999999999E-002    -1.0411564326337718E-022
  -2.8250000000000001E-002     1.7956289328300164E-023
  -2.8200000000000003E-002     1.7878725327067163E-022
  -2.8150000000000001E-002     3.5596999239363861E-022
  -2.8100000000000000E-002     5.1507526810112643E-022
  -2.8049999999999999E-002     6.1376181553322506E-022
  -2.8000000000000001E-002     6.0941518696504233E-022
  -2.7950000000000003E-002     4.6949803870590541E-022
  -2.7900000000000001E-002     1.8277066693496092E-022
  -2.7850000000000000E-002    -2.3128291644503046E-022
  -2.7799999999999998E-002    -7.1781032493888438E-022
  -2.7750000000000000E-002    -1.1893003302854830E-021
  -2.7700000000000002E-002    -1.5369974746589883E-021
  -2.7650000000000001E-002    -1.6504728209152695E-021
  -2.7600000000000000E-002    -1.4425908698928580E-021
  -2.7549999999999998E-002    -8.7511439722444442E-022
  -2.7500000000000000E-002     2.1019558112729498E-023
  -2.7450000000000002E-002     1.1366574243168762E-021
  -2.7400000000000001E-002     2.2909882034013300E-021
  -2.7349999999999999E-002     3.2551878973502069E-021
  -2.7299999999999998E-002     3.7909334287326744E-021
  -2.7250000000000000E-002     3.6978499412744515E-021
  -2.7200000000000002E-002     2.8611285423349835E-021
  -2.7150000000000001E-002     1.2893941913609215E-021
  -2.7099999999999999E-002    -8.6613552279475161E-022
  -2.7049999999999998E-002    -3.3171968197655750E-021
  -2.7000000000000000E-002    -5.6702766594628883E-021
  -2.6950000000000002E-002    -7.4812671711430654E-021
  -2.6900000000000000E-002    -8.3252493743042988E-021
  -2.6849999999999999E-002    -7.8708239049166410E-021
  -2.6800000000000001E-002    -5.9475747343217084E-021
  -2.6749999999999999E-002    -2.5963823177148178E-021
  -2.6700000000000002E-002     1.9051711566349074E-021
  -2.6650000000000000E-002     7.0469727537035324E-021
  -2.6599999999999999E-002     1.2121886285023465E-020
  -2.6550000000000001E-002     1.6292102311903672E-020
  -2.6500000000000003E-002     1.8684034260653065E-020
  -2.6450000000000001E-002     1.8507518786452477E-020
  -2.6400000000000000E-002     1.5192045507071393E-020
  -2.6349999999999998E-002     8.5280366052145333E-021
  -2.6300000000000000E-002    -1.2051212595690246E-021
  -2.6250000000000002E-002    -1.3149235466980579E-020
  -2.6200000000000001E-002    -2.5845384255783517E-020
  -2.6150000000000000E-002    -3.7309463634451853E-020
  -2.6099999999999998E-002    -4.5227006454378527E-020
  -2.6050000000000000E-002    -4.7271997128110781E-020
  -2.6000000000000002E-002    -4.1529044641839143E-020
  -2.5950000000000001E-002    -2.6967695489140970E-020
  -2.5899999999999999E-002    -3.8885151447181029E-021
  -2.5849999999999998E-002     2.5759665041667918E-020
  -2.5800000000000000E-002     5.8295141956090109E-020
  -2.5750000000000002E-002     8.8535675021177627E-020
  -2.5700000000000001E-002     1.1038815997748975E-019
  -2.5649999999999999E-002     1.1777150857849845E-019
  -2.5599999999999998E-002     1.0577320091812537E-019
  -2.5550000000000000E-002     7.1867266499905773E-020
  -2.5500000000000002E-002     1.6968354950905388E-020
  -2.5450000000000000E-002    -5.3922272322076636E-020
  -2.5399999999999999E-002    -1.3169654059795266E-019
  -2.5349999999999998E-002    -2.0388788698584457E-019
  -2.5300000000000000E-002    -2.5621342470756012E-019
  -2.5250000000000002E-002    -2.7479003980321279E-019
  -2.5200000000000000E-002    -2.4875464972660701E-019
  -2.5149999999999999E-002    -1.7289022632139469E-019
  -2.5100000000000001E-002    -4.9779980375342455E-020
  -2.5049999999999999E-002     1.0899681341808028E-019
  -2.5000000000000001E-002     2.8303657943540007E-019
  -2.4950000000000000E-002     4.4489732105592413E-019
  -2.4899999999999999E-002     5.6350700214857840E-019
  -2.4850000000000001E-002     6.0891694401174209E-019
  -2.4800000000000003E-002     5.5783093086506122E-019
  -2.4750000000000001E-002     3.9908671470188991E-019
  -2.4700000000000000E-002     1.3810881730997816E-019
  -2.4649999999999998E-002    -2.0066671969800381E-019
  -2.4600000000000000E-002    -5.7423888996260067E-019
  -2.4550000000000002E-002    -9.2486189869573985E-019
  -2.4500000000000001E-002    -1.1872387298841533E-018
  -2.4450000000000000E-002    -1.2984778621888483E-018
  -2.4399999999999998E-002    -1.2095820163318470E-018
  -2.4350000000000000E-002    -8.9671215723905853E-019
  -2.4299999999999999E-002    -3.7016687576571658E-019
  -2.4250000000000001E-002     3.2096349729617286E-019
  -2.4199999999999999E-002     1.0901047838485567E-018
  -2.4150000000000001E-002     1.8213212370462839E-018
  -2.4100000000000000E-002     2.3840178643693460E-018
  -2.4049999999999998E-002     2.6527620768067167E-018
  -2.4000000000000000E-002     2.5295907281011414E-018
  -2.3949999999999999E-002     1.9653082379760412E-018
  -2.3900000000000001E-002     9.7591381691170985E-019
  -2.3850000000000000E-002    -3.4941040378128505E-019
  -2.3800000000000002E-002    -1.8513621201272203E-018
  -2.3750000000000000E-002    -3.3156891078492781E-018
  -2.3699999999999999E-002    -4.4996129693752442E-018
  -2.3650000000000001E-002    -5.1666629679176710E-018
  -2.3599999999999999E-002    -5.1253817204714631E-018
  -2.3550000000000001E-002    -4.2662287786225614E-018
  -2.3500000000000000E-002    -2.5907106360923835E-018
  -2.3449999999999999E-002    -2.2734600585026972E-019
  -2.3400000000000001E-002     2.5694770411450455E-018
  -2.3349999999999999E-002     5.4395913197447287E-018
  -2.3300000000000001E-002     7.9554395880488178E-018
  -2.3250000000000000E-002     9.6755271764897963E-018
  -2.3199999999999998E-002     1.0207396724245215E-017
  -2.3150000000000000E-002     9.2727206777824406E-018
  -2.3099999999999999E-002     6.7659622474328906E-018
  -2.3050000000000001E-002     2.7977573351639769E-018
  -2.3000000000000000E-002    -2.2852498220889714E-018
  -2.2950000000000002E-002    -7.9107166884842134E-018
  -2.2900000000000000E-002    -1.3324995090137260E-017
  -2.2849999999999999E-002    -1.7671783815541441E-017
  -2.2800000000000001E-002    -2.0100583536155120E-017
  -2.2749999999999999E-002    -1.9895293393850376E-017
  -2.2700000000000001E-002    -1.6608085127943070E-017
  -2.2650000000000000E-002    -1.0179410596763545E-017
  -2.2599999999999999E-002    -1.0225156115158442E-018
  -2.2550000000000001E-002     9.9486054608966911E-018
  -2.2499999999999999E-002     2.1364704056524090E-017
  -2.2450000000000001E-002     3.1528833320374510E-017
  -2.2400000000000000E-002     3.8622666721055705E-017
  -2.2349999999999998E-002     4.0974082833637856E-017
  -2.2300000000000000E-002     3.7354026838593202E-017
  -2.2249999999999999E-002     2.7258644558373893E-017
  -2.2200000000000001E-002     1.1126143328821233E-017
  -2.2150000000000000E-002    -9.5612195463523021E-018
  -2.2100000000000002E-002    -3.2329149909855267E-017
  -2.2050000000000000E-002    -5.3937138963834681E-017
  -2.1999999999999999E-002    -7.0771296443936526E-017
  -2.1950000000000001E-002    -7.9367103124960434E-017
  -2.1899999999999999E-002    -7.6996230843187347E-017
  -2.1850000000000001E-002    -6.2229612634393103E-017
  -2.1800000000000000E-002    -3.5378550261282180E-017
  -2.1749999999999999E-002     1.2785367726566907E-018
  -2.1700000000000001E-002     4.3554257346042415E-017
  -2.1649999999999999E-002     8.5728251343500956E-017
  -2.1600000000000001E-002     1.2122577516610090E-016
  -2.1550000000000000E-002     1.4353165551732520E-016
  -2.1499999999999998E-002     1.4722467746412675E-016
  -2.1450000000000000E-002     1.2898294808336485E-016
  -2.1399999999999999E-002     8.8396451104505517E-017
  -2.1350000000000001E-002     2.8433302730860339E-017
  -2.1299999999999999E-002    -4.4557575782245637E-017
  -2.1250000000000002E-002    -1.2136566545118814E-016
  -2.1200000000000000E-002    -1.9094402440942408E-016
  -2.1149999999999999E-002    -2.4184429599452574E-016
  -2.1100000000000001E-002    -2.6389165696111317E-016
  -2.1049999999999999E-002    -2.4987483174410576E-016
  -2.1000000000000001E-002    -1.9699857624784415E-016
  -2.0950000000000000E-002    -1.0785448487785864E-016
  -2.0899999999999998E-002     9.2886889207434589E-018
  -2.0850000000000000E-002     1.4099526854517206E-016
  -2.0799999999999999E-002     2.6998836728344917E-016
  -2.0750000000000001E-002     3.7718962401160717E-016
  -2.0700000000000000E-002     4.4425749836598596E-016
  -2.0649999999999998E-002     4.5631456558110027E-016
  -2.0600000000000000E-002     4.0449670678301928E-016
  -2.0549999999999999E-002     2.8794306658432373E-016
  -2.0500000000000001E-002     1.1488610809515857E-016
  -2.0449999999999999E-002    -9.7409228140477924E-017
  -2.0400000000000001E-002    -3.2397497140482668E-016
  -2.0350000000000000E-002    -5.3469502004211265E-016
  -2.0299999999999999E-002    -6.9787168817811413E-016
  -2.0250000000000001E-002    -7.8443159798036829E-016
  -2.0199999999999999E-002    -7.7227420062987295E-016
  -2.0150000000000001E-002    -6.5019378517868935E-016
  -2.0100000000000000E-002    -4.2079804844508062E-016
  -2.0049999999999998E-002    -1.0191242706351288E-016
  -2.0000000000000000E-002     2.7390428005026936E-016
  -1.9949999999999999E-002     6.6190612997587076E-016
  -1.9900000000000001E-002     1.0096967509521275E-015
  -1.9850000000000000E-002     1.2634139049062634E-015
  -1.9799999999999998E-002     1.3749565379442218E-015
  -1.9750000000000000E-002     1.3094256963892815E-015
  -1.9699999999999999E-002     1.0517987158665318E-015
  -1.9650000000000001E-002     6.1180887974777137E-016
  -1.9599999999999999E-002     2.6089804995025770E-017
  -1.9550000000000001E-002    -6.4313305283699477E-016
  -1.9500000000000000E-002    -1.3131501710066177E-015
  -1.9449999999999999E-002    -1.8895415590823903E-015
  -1.9400000000000001E-002    -2.2779312483631989E-015
  -1.9349999999999999E-002    -2.3974862564813381E-015
  -1.9300000000000001E-002    -2.1944696520917779E-015
  -1.9250000000000000E-002    -1.6538551453929889E-015
  -1.9199999999999998E-002    -8.0699117895805744E-016
  -1.9150000000000000E-002     2.6643428753260903E-016
  -1.9099999999999999E-002     1.4432750877741597E-015
  -1.9050000000000001E-002     2.5689326669765060E-015
  -1.9000000000000000E-002     3.4757034685268072E-015
  -1.8949999999999998E-002     4.0055865051860216E-015
  -1.8900000000000000E-002     4.0347072559724526E-015
  -1.8849999999999999E-002     3.4958686829139638E-015
  -1.8800000000000001E-002     2.3955555809180162E-015
  -1.8749999999999999E-002     8.2210457502984542E-016
  -1.8700000000000001E-002    -1.0572881003791350E-015
  -1.8650000000000000E-002    -3.0116050982841795E-015
  -1.8599999999999998E-002    -4.7722201537281322E-015
  -1.8550000000000001E-002    -6.0675940474251838E-015
  -1.8499999999999999E-002    -6.6621900255182290E-015
  -1.8450000000000001E-002    -6.3942515677357024E-015
  -1.8400000000000000E-002    -5.2067538157175121E-015
  -1.8349999999999998E-002    -3.1663164913059367E-015
  -1.8300000000000000E-002    -4.6619979560598441E-016
  -1.8249999999999999E-002     2.5884766040453020E-015
  -1.8200000000000001E-002     5.6127187580691750E-015
  -1.8149999999999999E-002     8.1877328038364693E-015
  -1.8100000000000002E-002     9.9157412516534385E-015
  -1.8050000000000000E-002     1.0476590394405712E-014
  -1.7999999999999999E-002     9.6784528985842601E-015
  -1.7950000000000001E-002     7.4952743105126397E-015
  -1.7899999999999999E-002     4.0849136943533041E-015
  -1.7850000000000001E-002    -2.1583595140178760E-016
  -1.7800000000000000E-002    -4.9203626179281740E-015
  -1.7749999999999998E-002    -9.4434016359399618E-015
  -1.7700000000000000E-002    -1.3169230519104815E-014
  -1.7649999999999999E-002    -1.5529383789487442E-014
  -1.7600000000000001E-002    -1.6080734900997704E-014
  -1.7550000000000000E-002    -1.4574103956260100E-014
  -1.7499999999999998E-002    -1.1004076773468451E-014
  -1.7450000000000000E-002    -5.6322728402851935E-015
  -1.7399999999999999E-002     1.0210491511379126E-015
  -1.7350000000000001E-002     8.2188205787812063E-015
  -1.7299999999999999E-002     1.5080311907786595E-014
  -1.7250000000000001E-002     2.0679546270450561E-014
  -1.7200000000000000E-002     2.4159277758181864E-014
  -1.7149999999999999E-002     2.4847974681257401E-014
  -1.7100000000000001E-002     2.2365501732267966E-014
  -1.7049999999999999E-002     1.6702963430659310E-014
  -1.7000000000000001E-002     8.2637442531914982E-015
  -1.6950000000000000E-002    -2.1439725421675724E-015
  -1.6899999999999998E-002    -1.3367907419663793E-014
  -1.6850000000000000E-002    -2.4024087877476349E-014
  -1.6799999999999999E-002    -3.2652503283426012E-014
  -1.6750000000000001E-002    -3.7900798867202502E-014
  -1.6700000000000000E-002    -3.8715104887834319E-014
  -1.6649999999999998E-002    -3.4513359162423384E-014
  -1.6600000000000000E-002    -2.5315715270270367E-014
  -1.6549999999999999E-002    -1.1809161079227442E-014
  -1.6500000000000001E-002     4.6703996124026411E-015
  -1.6449999999999999E-002     2.2246109069619733E-014
  -1.6400000000000001E-002     3.8693979855932340E-014
  -1.6350000000000000E-002     5.1705905643727993E-014
  -1.6299999999999999E-002     5.9193322082582257E-014
  -1.6250000000000001E-002     5.9593882858813919E-014
  -1.6199999999999999E-002     5.2138694431053277E-014
  -1.6150000000000001E-002     3.7038326135767049E-014
  -1.6100000000000000E-002     1.5552868648865416E-014
  -1.6049999999999998E-002    -1.0075853392920707E-014
  -1.6000000000000000E-002    -3.6834334901281178E-014
  -1.5949999999999999E-002    -6.1274154564223735E-014
  -1.5900000000000001E-002    -7.9940215725402666E-014
  -1.5850000000000000E-002    -8.9838729764873381E-014
  -1.5799999999999998E-002    -8.8882786828106129E-014
  -1.5750000000000000E-002    -7.6251350893136579E-014
  -1.5699999999999999E-002    -5.2604331122355514E-014
  -1.5650000000000001E-002    -2.0112687701011504E-014
  -1.5599999999999999E-002     1.7714609717636463E-014
  -1.5550000000000001E-002     5.6397365170752722E-014
  -1.5500000000000000E-002     9.1007446145534160E-014
  -1.5449999999999998E-002     1.1678726644889061E-013
  -1.5400000000000000E-002     1.2978542129499208E-013
  -1.5349999999999999E-002     1.2742473177854888E-013
  -1.5300000000000001E-002     1.0892323934262888E-013
  -1.5250000000000000E-002     7.5504762540951452E-014
  -1.5199999999999998E-002     3.0361073291298601E-014
  -1.5150000000000000E-002    -2.1640791243913923E-014
  -1.5099999999999999E-002    -7.4479637322250624E-014
  -1.5050000000000001E-002    -1.2167302397000454E-013
  -1.4999999999999999E-002    -1.5706170041877633E-013
  -1.4949999999999998E-002    -1.7559189950743129E-013
  -1.4900000000000000E-002    -1.7399901538547553E-013
  -1.4849999999999999E-002    -1.5130581035446019E-013
  -1.4800000000000001E-002    -1.0906746998931519E-013
  -1.4749999999999999E-002    -5.1323300216192634E-014
  -1.4700000000000001E-002     1.5752818388232246E-014
  -1.4650000000000000E-002     8.4477358149101621E-014
  -1.4599999999999998E-002     1.4649977198888466E-013
  -1.4550000000000000E-002     1.9377797002980880E-013
  -1.4499999999999999E-002     2.1958228534682258E-013
  -1.4450000000000001E-002     2.1941351503814815E-013
  -1.4400000000000000E-002     1.9172144197142692E-013
  -1.4349999999999998E-002     1.3832341858953758E-013
  -1.4300000000000000E-002     6.4446911847896163E-014
  -1.4249999999999999E-002    -2.1643934702923340E-014
  -1.4200000000000001E-002    -1.0943321199519860E-013
  -1.4149999999999999E-002    -1.8729547961195382E-013
  -1.4099999999999998E-002    -2.4389139708032364E-013
  -1.4050000000000000E-002    -2.6966871999302418E-013
  -1.3999999999999999E-002    -2.5828946489523565E-013
  -1.3950000000000001E-002    -2.0779194994789992E-013
  -1.3899999999999999E-002    -1.2130657535597792E-013
  -1.3850000000000001E-002    -7.1823325669716849E-015
  -1.3800000000000000E-002     1.2155887514993708E-013
  -1.3749999999999998E-002     2.4844185829822214E-013
  -1.3700000000000000E-002     3.5534290851501140E-013
  -1.3649999999999999E-002     4.2470178959679665E-013
  -1.3600000000000001E-002     4.4188821837606078E-013
  -1.3550000000000000E-002     3.9742380648612019E-013
  -1.3499999999999998E-002     2.8874955163134991E-013
  -1.3450000000000000E-002     1.2126350468872510E-013
  -1.3399999999999999E-002    -9.1573578149660048E-014
  -1.3350000000000001E-002    -3.2915603461952054E-013
  -1.3299999999999999E-002    -5.6563493275350669E-013
  -1.3249999999999998E-002    -7.7262902888300951E-013
  -1.3200000000000000E-002    -9.2244871928641637E-013
  -1.3149999999999998E-002    -9.9145330503117266E-013
  -1.3100000000000001E-002    -9.6311843950668256E-013
  -1.3049999999999999E-002    -8.3041387721420246E-013
  -1.3000000000000001E-002    -5.9716133995994105E-013
  -1.2950000000000000E-002    -2.7816716648129662E-013
  -1.2899999999999998E-002     1.0192280165377965E-013
  -1.2850000000000000E-002     5.1093263655133696E-013
  -1.2799999999999999E-002     9.1236284711874251E-013