  -4.0000000000000001E-002     0.0000000000000000     
  -3.9949999999999999E-002     0.0000000000000000     
  -3.9899999999999998E-002     0.0000000000000000     
  -3.9850000000000003E-002     0.0000000000000000     
  -3.9800000000000002E-002     0.0000000000000000     
  -3.9750000000000001E-002     0.0000000000000000     
  -3.9699999999999999E-002     0.0000000000000000     
  -3.9649999999999998E-002     0.0000000000000000     
  -3.9600000000000003E-002     0.0000000000000000     
  -3.9550000000000002E-002     0.0000000000000000     
  -3.9500000000000000E-002     0.0000000000000000     
  -3.9449999999999999E-002     0.0000000000000000     
  -3.9399999999999998E-002     0.0000000000000000     
  -3.9350000000000003E-002     0.0000000000000000     
  -3.9300000000000002E-002     0.0000000000000000     
  -3.9250000000000000E-002     5.2029617076037516E-040
  -3.9199999999999999E-002     6.5305826362542505E-039
  -3.9150000000000004E-002     5.4125067092830933E-038
  -3.9100000000000003E-002     3.3156847292067558E-037
  -3.9050000000000001E-002     1.6249424325905925E-036
  -3.9000000000000000E-002     6.3216971037585893E-036
  -3.8949999999999999E-002     2.0055749633663098E-035
  -3.8900000000000004E-002     5.0127964590054540E-035
  -3.8850000000000003E-002     8.5910753690248736E-035
  -3.8800000000000001E-002     1.9384452223569852E-035
  -3.8750000000000000E-002    -5.7856274994794679E-034
  -3.8699999999999998E-002    -2.9360865626421658E-033
  -3.8650000000000004E-002    -9.8155970784773156E-033
  -3.8600000000000002E-002    -2.6017955207361087E-032
  -3.8550000000000001E-002    -5.6924745250019419E-032
  -3.8500000000000000E-002    -1.0112387705367978E-031
  -3.8449999999999998E-002    -1.3055353280934841E-031
  -3.8400000000000004E-002    -5.1216570762839447E-032
  -3.8350000000000002E-002     3.5471962492423454E-031
  -3.8300000000000001E-002     1.4794683882453433E-030
  -3.8249999999999999E-002     3.8554788827604183E-030
  -3.8199999999999998E-002     7.8837821136261793E-030
  -3.8150000000000003E-002     1.3103746059068795E-029
  -3.8100000000000002E-002     1.6804101011097140E-029
  -3.8050000000000000E-002     1.2026399781723015E-029
  -3.7999999999999999E-002    -1.4337646374923803E-029
  -3.7949999999999998E-002    -8.1514617516863257E-029
  -3.7900000000000003E-002    -2.0960221992400858E-028
  -3.7850000000000002E-002    -4.0479672910234842E-028
  -3.7800000000000000E-002    -6.3159137740629859E-028
  -3.7749999999999999E-002    -7.7307614218297953E-028
  -3.7699999999999997E-002    -5.9075679480424091E-028
  -3.7650000000000003E-002     2.8863964020833207E-028
  -3.7600000000000001E-002     2.3138837311507276E-027
  -3.7550000000000000E-002     5.8217218101705006E-027
  -3.7499999999999999E-002     1.0678736706601410E-026
  -3.7449999999999997E-002     1.5765893341872924E-026
  -3.7400000000000003E-002     1.8429429409732666E-026
  -3.7350000000000001E-002     1.4178776510946386E-026
  -3.7300000000000000E-002    -2.9280778257878034E-027
  -3.7249999999999998E-002    -3.8697477479078856E-026
  -3.7200000000000004E-002    -9.5632868441882714E-026
  -3.7150000000000002E-002    -1.6827600994819157E-025
  -3.7100000000000001E-002    -2.3799250359650777E-025
  -3.7050000000000000E-002    -2.6925615649012092E-025
  -3.6999999999999998E-002    -2.1053808563340348E-025
  -3.6950000000000004E-002    -3.3187491084519883E-027
  -3.6900000000000002E-002     3.9818083526674566E-025
  -3.6850000000000001E-002     9.9676909951748167E-025
  -3.6799999999999999E-002     1.7165541245419636E-024
  -3.6749999999999998E-002     2.3726689339314895E-024
  -3.6700000000000003E-002     2.6627088119808169E-024
  -3.6650000000000002E-002     2.1981218254555507E-024
  -3.6600000000000001E-002     5.8961011732276663E-025
  -3.6549999999999999E-002    -2.4116182559171711E-024
  -3.6499999999999998E-002    -6.7347832623543797E-024
  -3.6450000000000003E-002    -1.1814611575335637E-023
  -3.6400000000000002E-002    -1.6483584622208254E-023
  -3.6350000000000000E-002    -1.9003596588755531E-023
  -3.6299999999999999E-002    -1.7298106711497393E-023
  -3.6249999999999998E-002    -9.4095981945946358E-024
  -3.6200000000000003E-002     5.8522610961706686E-024
  -3.6150000000000002E-002     2.8178840469571891E-023
  -3.6100000000000000E-002     5.5122369672976147E-023
  -3.6049999999999999E-002     8.1765419733692718E-023
  -3.6000000000000004E-002     1.0091638716068072E-022
  -3.5950000000000003E-002     1.0398838583389683E-022
  -3.5900000000000001E-002     8.2601052573539546E-023
  -3.5850000000000000E-002     3.0778071372042059E-023
  -3.5799999999999998E-002    -5.2580300691349756E-023
  -3.5750000000000004E-002    -1.6145781661328114E-022
  -3.5700000000000003E-002    -2.8136172228752344E-022
  -3.5650000000000001E-002    -3.8952070561141602E-022
  -3.5600000000000000E-002    -4.5719275009338458E-022
  -3.5549999999999998E-002    -4.5429448640764939E-022
  -3.5500000000000004E-002    -3.5600144968612462E-022
  -3.5450000000000002E-002    -1.5024586294335924E-022
  -3.5400000000000001E-002     1.5567270805780357E-022
  -3.5349999999999999E-002     5.3157655342048948E-022
  -3.5299999999999998E-002     9.2602753622115203E-022
  -3.5250000000000004E-002     1.2740539677965538E-021
  -3.5200000000000002E-002     1.5100475738412350E-021
  -3.5150000000000001E-002     1.5824994715768261E-021
  -3.5099999999999999E-002     1.4652255058078584E-021
  -3.5049999999999998E-002     1.1592428038895227E-021
  -3.5000000000000003E-002     6.8154848251551131E-022
  -3.4950000000000002E-002     4.2094471984592506E-023
  -3.4900000000000000E-002    -7.8262614723263545E-022
  -3.4849999999999999E-002    -1.8641495590195273E-021
  -3.4799999999999998E-002    -3.3065840396461058E-021
  -3.4750000000000003E-002    -5.1874567111518953E-021
  -3.4700000000000002E-002    -7.4551923563374673E-021
  -3.4650000000000000E-002    -9.8055976574866667E-021
  -3.4599999999999999E-002    -1.1583908569900126E-020
  -3.4549999999999997E-002    -1.1775441925111140E-020
  -3.4500000000000003E-002    -9.1453561830794308E-021
  -3.4450000000000001E-002    -2.5581954921614510E-021
  -3.4400000000000000E-002     8.5496406825044874E-021
  -3.4349999999999999E-002     2.3645412602348578E-020
  -3.4299999999999997E-002     4.0692136301145370E-020
  -3.4250000000000003E-002     5.6057541573599441E-020
  -3.4200000000000001E-002     6.4908970203155614E-020
  -3.4150000000000000E-002     6.2157248909298704E-020
  -3.4099999999999998E-002     4.3844494806269331E-020
  -3.4049999999999997E-002     8.6827584544637890E-021
  -3.4000000000000002E-002    -4.0695497819675302E-020
  -3.3950000000000001E-002    -9.7250551418455699E-020
  -3.3900000000000000E-002    -1.5017070540655523E-019
  -3.3849999999999998E-002    -1.8671785365558920E-019
  -3.3799999999999997E-002    -1.9500594682731335E-019
  -3.3750000000000002E-002    -1.6708277964895461E-019
  -3.3700000000000001E-002    -1.0147617249689411E-019
  -3.3649999999999999E-002    -4.4028769048500337E-021
  -3.3599999999999998E-002     1.1084290510494227E-019
  -3.3550000000000003E-002     2.2627424695953522E-019
  -3.3500000000000002E-002     3.2274311839956187E-019
  -3.3450000000000001E-002     3.8358077181317878E-019
  -3.3399999999999999E-002     3.9725190390387151E-019
  -3.3349999999999998E-002     3.5830775210532524E-019
  -3.3300000000000003E-002     2.6664550302972549E-019
  -3.3250000000000002E-002     1.2589245542953854E-019
  -3.3200000000000000E-002    -5.7727520175939756E-020
  -3.3149999999999999E-002    -2.7474152087040309E-019
  -3.3099999999999997E-002    -5.0947096055207613E-019
  -3.3050000000000003E-002    -7.3561503851215430E-019
  -3.3000000000000002E-002    -9.1268878906918053E-019
  -3.2950000000000000E-002    -9.8654952505711068E-019
  -3.2899999999999999E-002    -8.9697536429316438E-019
  -3.2850000000000004E-002    -5.9347897693936639E-019
  -3.2800000000000003E-002    -5.7453186544280294E-020
  -3.2750000000000001E-002     6.7483127076279073E-019
  -3.2700000000000000E-002     1.4966549947336932E-018
  -3.2649999999999998E-002     2.2316421799417694E-018
  -3.2600000000000004E-002     2.6574213505231672E-018
  -3.2550000000000003E-002     2.5530703969960624E-018
  -3.2500000000000001E-002     1.7635498704873636E-018
  -3.2450000000000000E-002     2.6660875335052892E-019
  -3.2399999999999998E-002    -1.7774977390893148E-018
  -3.2350000000000004E-002    -4.0133291624411527E-018
  -3.2300000000000002E-002    -5.9284709712384357E-018
  -3.2250000000000001E-002    -6.9448486597303330E-018
  -3.2199999999999999E-002    -6.5505059983350483E-018
  -3.2149999999999998E-002    -4.4451319865841485E-018
  -3.2100000000000004E-002    -6.6362344076432462E-019
  -3.2050000000000002E-002     4.3583775482819614E-018
  -3.2000000000000001E-002     9.8034471760784456E-018
  -3.1949999999999999E-002     1.4584206270932759E-017
  -3.1899999999999998E-002     1.7533950652490775E-017
  -3.1850000000000003E-002     1.7641176486170798E-017
  -3.1800000000000002E-002     1.4279737211548732E-017
  -3.1750000000000000E-002     7.3845434586301487E-018
  -3.1699999999999999E-002    -2.4664861036690686E-018
  -3.1649999999999998E-002    -1.4083210792862359E-017
  -3.1600000000000003E-002    -2.5801454704374362E-017
  -3.1550000000000002E-002    -3.5702137355999565E-017
  -3.1500000000000000E-002    -4.1872733707785092E-017
  -3.1449999999999999E-002    -4.2671996631837746E-017
  -3.1399999999999997E-002    -3.6968556114669224E-017
  -3.1350000000000003E-002    -2.4338087523781602E-017
  -3.1300000000000001E-002    -5.2151393580913596E-018
  -3.1250000000000000E-002     1.9002592703563482E-017
  -3.1199999999999999E-002     4.5909814966035729E-017
  -3.1150000000000001E-002     7.2140002234334412E-017
  -3.1100000000000003E-002     9.3551514918201420E-017
  -3.1050000000000001E-002     1.0560736458107677E-016
  -3.1000000000000000E-002     1.0398258321365245E-016
  -3.0949999999999998E-002     8.5383609488570983E-017
  -3.0900000000000000E-002     4.8489686430421161E-017
  -3.0850000000000002E-002    -5.1561837378862028E-018
  -3.0800000000000001E-002    -7.0543624947737456E-017
  -3.0750000000000000E-002    -1.3913347502216499E-016
  -3.0699999999999998E-002    -1.9954274943789825E-016
  -3.0650000000000000E-002    -2.3905328320681376E-016
  -3.0600000000000002E-002    -2.4583410927350653E-016
  -3.0550000000000001E-002    -2.1155623140366189E-016
  -3.0499999999999999E-002    -1.3389664767828205E-016
  -3.0449999999999998E-002    -1.8333798572293600E-017
  -3.0400000000000000E-002     1.2132713282515620E-016
  -3.0350000000000002E-002     2.6407526088369723E-016
  -3.0300000000000001E-002     3.8452510616493718E-016
  -3.0249999999999999E-002     4.5713928490268267E-016
  -3.0200000000000001E-002     4.6115963687268238E-016
  -3.0150000000000000E-002     3.8530991906666470E-016
  -3.0100000000000002E-002     2.3126520947760633E-016
  -3.0050000000000000E-002     1.5040430642629972E-017
  -2.9999999999999999E-002    -2.3418903914441087E-016
  -2.9950000000000001E-002    -4.7782564407352932E-016
  -2.9899999999999999E-002    -6.7361895082094346E-016
  -2.9850000000000002E-002    -7.8251563149536625E-016
  -2.9800000000000000E-002    -7.7541455707855646E-016
  -2.9749999999999999E-002    -6.3867016485469542E-016
  -2.9700000000000001E-002    -3.7744176766213365E-016
  -2.9650000000000003E-002    -1.6394116557741867E-017
  -2.9600000000000001E-002     4.0228710637736317E-016
  -2.9550000000000000E-002     8.2321639539403982E-016
  -2.9499999999999998E-002     1.1838799178734760E-015
  -2.9450000000000000E-002     1.4218082285846601E-015
  -2.9400000000000003E-002     1.4822636050377917E-015
  -2.9350000000000001E-002     1.3259530511625096E-015
  -2.9300000000000000E-002     9.3630249950300145E-016
  -2.9249999999999998E-002     3.2570843933018038E-016
  -2.9200000000000000E-002    -4.6007760442827208E-016
  -2.9150000000000002E-002    -1.3405884403636063E-015
  -2.9100000000000001E-002    -2.2036593045918719E-015
  -2.9049999999999999E-002    -2.9140617550363664E-015
  -2.8999999999999998E-002    -3.3284103356124909E-015
  -2.8950000000000000E-002    -3.3159033534156939E-015
  -2.8900000000000002E-002    -2.7829788699327274E-015
  -2.8850000000000001E-002    -1.6983713407041930E-015
  -2.8799999999999999E-002    -1.1377745287940858E-016
  -2.8749999999999998E-002     1.8251861410156622E-015
  -2.8700000000000000E-002     3.8824718173565301E-015
  -2.8650000000000002E-002     5.7524330153905103E-015
  -2.8600000000000000E-002     7.0979626496996225E-015
  -2.8549999999999999E-002     7.6023141039991812E-015
  -2.8500000000000001E-002     7.0274597311039833E-015
  -2.8450000000000000E-002     5.2691997813766741E-015
  -2.8400000000000002E-002     2.3981810606198566E-015
  -2.8350000000000000E-002    -1.3229940951336787E-015
  -2.8299999999999999E-002    -5.4532505881377502E-015
  -2.8250000000000001E-002    -9.4189653812288174E-015
  -2.8200000000000003E-002    -1.2588454123936183E-014
  -2.8150000000000001E-002    -1.4365585750819675E-014
  -2.8100000000000000E-002    -1.4288828427728358E-014
  -2.8049999999999999E-002    -1.2119903236725870E-014
  -2.8000000000000001E-002    -7.9067298363528071E-015
  -2.7950000000000003E-002    -2.0085039430669089E-015
  -2.7900000000000001E-002     4.9240447455756990E-015
  -2.7850000000000000E-002     1.2013680605624380E-014
  -2.7799999999999998E-002     1.8260803607350303E-014
  -2.7750000000000000E-002     2.2674660607951077E-014
  -2.7700000000000002E-002     2.4415347222376873E-014
  -2.7650000000000001E-002     2.2928078857025715E-014
  -2.7600000000000000E-002     1.8051158192603056E-014
  -2.7549999999999998E-002     1.0081194216269243E-014
  -2.7500000000000000E-002    -2.1702475201014899E-016
  -2.7450000000000002E-002    -1.1663014056930565E-014
  -2.7400000000000001E-002    -2.2775696647502740E-014
  -2.7349999999999999E-002    -3.1943671175770828E-014
  -2.7299999999999998E-002    -3.7635140379151475E-014
  -2.7250000000000000E-002    -3.8624380809847796E-014
  -2.7200000000000002E-002    -3.4205544709981057E-014
  -2.7150000000000001E-002    -2.4361421228574340E-014
  -2.7099999999999999E-002    -9.8557347528875366E-015
  -2.7049999999999998E-002     7.7763467771081850E-015
  -2.7000000000000000E-002     2.6353386387106686E-014
  -2.6950000000000002E-002     4.3286452882659148E-014
  -2.6900000000000000E-002     5.5910914835976435E-014
  -2.6849999999999999E-002     6.1872518918908911E-014
  -2.6800000000000001E-002     5.9514566659962739E-014
  -2.6749999999999999E-002     4.8205936442363197E-014
  -2.6700000000000002E-002     2.8551699117423699E-014
  -2.6650000000000000E-002     2.4407314374883405E-015
  -2.6599999999999999E-002    -2.7093714879305577E-014
  -2.6550000000000001E-002    -5.6196942274619291E-014
  -2.6500000000000003E-002    -8.0666464393780208E-014
  -2.6450000000000001E-002    -9.6518024957030227E-014
  -2.6400000000000000E-002    -1.0056805481056414E-013
  -2.6349999999999998E-002    -9.0950393928148401E-014
  -2.6300000000000000E-002    -6.7491273052743558E-014
  -2.6250000000000002E-002    -3.1883835136731692E-014
  -2.6200000000000001E-002     1.2371055318657273E-014
  -2.6150000000000000E-002     6.0261745657053679E-014
  -2.6099999999999998E-002     1.0577559309478529E-013
  -2.6050000000000000E-002     1.4257189021123339E-013
  -2.6000000000000002E-002     1.6474988268373519E-013
  -2.5950000000000001E-002     1.6763190791857905E-013
  -2.5899999999999999E-002     1.4847727502609595E-013
  -2.5849999999999998E-002     1.0704291045529213E-013
  -2.5800000000000000E-002     4.5913734316571320E-014
  -2.5750000000000002E-002    -2.9462559179205962E-014
  -2.5700000000000001E-002    -1.1108155740637422E-013
  -2.5649999999999999E-002    -1.8904635633415781E-013
  -2.5599999999999998E-002    -2.5256903978817338E-013
  -2.5550000000000000E-002    -2.9124262276983169E-013
  -2.5500000000000002E-002    -2.9646611188658381E-013
  -2.5450000000000000E-002    -2.6285856341301633E-013
  -2.5399999999999999E-002    -1.8946380478049027E-013
  -2.5349999999999998E-002    -8.0537664000156580E-014
  -2.5300000000000000E-002     5.4269124729141476E-014
  -2.5250000000000002E-002     2.0046098781980497E-013
  -2.5200000000000000E-002     3.4001756554304955E-013
  -2.5149999999999999E-002     4.5340611125176654E-013
  -2.5100000000000001E-002     5.2208619676355708E-013
  -2.5049999999999999E-002     5.3120080401496925E-013
  -2.5000000000000001E-002     4.7207604631258977E-013
  -2.4950000000000000E-002     3.4413516411304316E-013
  -2.4899999999999999E-002     1.5587842089473724E-013
  -2.4850000000000001E-002    -7.5311018254899200E-014
  -2.4800000000000003E-002    -3.2461901709487367E-013
  -2.4750000000000001E-002    -5.6240987030685615E-013
  -2.4700000000000000E-002    -7.5771314992695134E-013
  -2.4649999999999998E-002    -8.8215892811724835E-013
  -2.4600000000000000E-002    -9.1384285037334815E-013
  -2.4550000000000002E-002    -8.4058481076812471E-013
  -2.4500000000000001E-002    -6.6210702892187744E-013
  -2.4450000000000000E-002    -3.9078971231989342E-013
  -2.4399999999999998E-002    -5.0843761332614566E-014
  -2.4350000000000000E-002     3.2405066700085637E-013
  -2.4299999999999999E-002     6.9438707920136682E-013
  -2.4250000000000001E-002     1.0193312944673074E-012
  -2.4199999999999999E-002     1.2615294900967355E-012
  -2.4150000000000001E-002     1.3916271888295684E-012
  -2.4100000000000000E-002     1.3919228749236078E-012
  -2.4049999999999998E-002     1.2586699271318865E-012
  -2.4000000000000000E-002     1.0027006904152583E-012
  -2.3949999999999999E-002     6.4824044409525877E-013
  -2.3900000000000001E-002     2.3001040555400504E-013
  -2.3850000000000000E-002    -2.1105890899929268E-013
  -2.3800000000000002E-002    -6.3298466956937315E-013
  -2.3750000000000000E-002    -9.9809318086162927E-013
  -2.3699999999999999E-002    -1.2778563437369154E-012
  -2.3650000000000001E-002    -1.4564988257688432E-012
  -2.3599999999999999E-002    -1.5328025979074378E-012
  -2.3550000000000001E-002    -1.5197550295934203E-012
  -2.3500000000000000E-002    -1.4419797384408226E-012
  -2.3449999999999999E-002    -1.3312091723642864E-012
  -2.3400000000000001E-002    -1.2203743430312793E-012
  -2.3349999999999999E-002    -1.1371327832365552E-012
  -2.3300000000000001E-002    -1.0977989409747081E-012
  -2.3250000000000000E-002    -1.1026580950447460E-012
  -2.3199999999999998E-002    -1.1335069557068890E-012
  -2.3150000000000000E-002    -1.1540104631093705E-012
  -2.3099999999999999E-002    -1.1131101976293654E-012
  -2.3050000000000001E-002    -9.5132171913387159E-013
  -2.3000000000000000E-002    -6.0937034633323603E-013
  -2.2950000000000002E-002    -3.8286493341066247E-014
  -2.2900000000000000E-002     7.9015140733771527E-013
  -2.2849999999999999E-002     1.8738531813681981E-012
  -2.2800000000000001E-002     3.1729516881974690E-012
  -2.2749999999999999E-002     4.6055391963081985E-012
  -2.2700000000000001E-002     6.0475002769728936E-012
  -2.2650000000000000E-002     7.3370486881287528E-012
  -2.2599999999999999E-002     8.2842297863969922E-012
  -2.2550000000000001E-002     8.6852583359389498E-012
  -2.2499999999999999E-002     8.3411123651328730E-012
  -2.2450000000000001E-002     7.0793649883362734E-012
  -2.2400000000000000E-002     4.7777388335634369E-012
  -2.2349999999999998E-002     1.3874893042477883E-012
  -2.2300000000000000E-002    -3.0456004362484553E-012
  -2.2249999999999999E-002    -8.3649431079566934E-012
  -2.2200000000000001E-002    -1.4293807461160666E-011
  -2.2150000000000000E-002    -2.0434700800846371E-011
  -2.2100000000000002E-002    -2.6278546644312411E-011
  -2.2050000000000000E-002    -3.1223796032585220E-011
  -2.1999999999999999E-002    -3.4604466018554845E-011
  -2.1950000000000001E-002    -3.5725039151456384E-011
  -2.1899999999999999E-002    -3.3899131096838735E-011
  -2.1850000000000001E-002    -2.8488340701606370E-011
  -2.1800000000000000E-002    -1.8937426745198369E-011
  -2.1749999999999999E-002    -4.8023023969549769E-012
  -2.1700000000000001E-002     1.4231721129942323E-011
  -2.1649999999999999E-002     3.8342927658217647E-011
  -2.1600000000000001E-002     6.7577463894216276E-011
  -2.1550000000000000E-002     1.0186352636234089E-010
  -2.1499999999999998E-002     1.4103283623563810E-010
  -2.1450000000000000E-002     1.8484615482022948E-010
  -2.1399999999999999E-002     2.3301921005209778E-010
  -2.1350000000000001E-002     2.8524568086670631E-010
  -2.1299999999999999E-002     3.4121470950335135E-010
  -2.1250000000000002E-002     4.0062108927400922E-010
  -2.1200000000000000E-002     4.6316848878387613E-010
  -2.1149999999999999E-002     5.2856607089331746E-010
  -2.1100000000000001E-002     5.9652079843451827E-010
  -2.1049999999999999E-002     6.6672796010849822E-010
  -2.1000000000000001E-002     7.3886277887514505E-010
  -2.0950000000000000E-002     8.1257596352076244E-010
  -2.0899999999999998E-002     8.8749536050852055E-010
  -2.0850000000000000E-002     9.6323436105322713E-010
  -2.0799999999999999E-002     1.0394077182666439E-009
  -2.0750000000000001E-002     1.1156531257491170E-009
  -2.0700000000000000E-002     1.1916573259767030E-009
  -2.0649999999999998E-002     1.2671821880981842E-009
  -2.0600000000000000E-002     1.3420882842904746E-009
  -2.0549999999999999E-002     1.4163532431604277E-009
  -2.0500000000000001E-002     1.4900801467688501E-009
  -2.0449999999999999E-002     1.5634948820239006E-009
  -2.0400000000000001E-002     1.6369323208613349E-009
  -2.0350000000000000E-002     1.7108109135599297E-009
  -2.0299999999999999E-002     1.7855991136138537E-009
  -2.0250000000000001E-002     1.8617757108276822E-009
  -2.0199999999999999E-002     1.9397892933748244E-009
  -2.0150000000000001E-002     2.0200219731283037E-009
  -2.0100000000000000E-002     2.1027592419959635E-009
  -2.0049999999999998E-002     2.1881716491004097E-009
  -2.0000000000000000E-002     2.2763089428823843E-009
  -1.9949999999999999E-002     2.3671074148872750E-009
  -1.9900000000000001E-002     2.4604084478179432E-009
  -1.9850000000000000E-002     2.5559885431842554E-009
  -1.9799999999999998E-002     2.6535941501678769E-009
  -1.9750000000000000E-002     2.7529802389362370E-009
  -1.9699999999999999E-002     2.8539477067295752E-009
  -1.9650000000000001E-002     2.9563773030606709E-009
  -1.9599999999999999E-002     3.0602569608782524E-009
  -1.9550000000000001E-002     3.1656993566331139E-009
  -1.9500000000000000E-002     3.2729501720807142E-009
  -1.9449999999999999E-002     3.3823841740673052E-009
  -1.9400000000000001E-002     3.4944892213958787E-009
  -1.9349999999999999E-002     3.6098384389157338E-009
  -1.9300000000000001E-002     3.7290510064466722E-009
  -1.9250000000000000E-002     3.8527442218278515E-009
  -1.9199999999999998E-002     3.9814805642636324E-009
  -1.9150000000000000E-002     4.1157139874036234E-009
  -1.9099999999999999E-002     4.2557401431805775E-009
  -1.9050000000000001E-002     4.4016597663006174E-009
  -1.9000000000000000E-002     4.5533566333584387E-009
  -1.8949999999999998E-002     4.7104992100576262E-009
  -1.8900000000000000E-002     4.8725659246297939E-009
  -1.8849999999999999E-002     5.0388947701326216E-009
  -1.8800000000000001E-002     5.2087533232005687E-009
  -1.8749999999999999E-002     5.3814235152979879E-009
  -1.8700000000000001E-002     5.5562884705393938E-009
  -1.8650000000000000E-002     5.7329188324736423E-009
  -1.8599999999999998E-002     5.9111389119528339E-009
  -1.8550000000000001E-002     6.0910740504269073E-009
  -1.8499999999999999E-002     6.2731603830122315E-009
  -1.8450000000000001E-002     6.4581288915507119E-009
  -1.8400000000000000E-002     6.6469560682558562E-009
  -1.8349999999999998E-002     6.8407853508446632E-009
  -1.8300000000000000E-002     7.0408338493079211E-009
  -1.8249999999999999E-002     7.2482926629654270E-009
  -1.8200000000000001E-002     7.4642261727896530E-009
  -1.8149999999999999E-002     7.6894935531492565E-009
  -1.8100000000000002E-002     7.9246826009656055E-009
  -1.8050000000000000E-002     8.1700833617453433E-009
  -1.7999999999999999E-002     8.4256828937987050E-009
  -1.7950000000000001E-002     8.6911987555726938E-009
  -1.7899999999999999E-002     8.9661272299890558E-009
  -1.7850000000000001E-002     9.2498196508231701E-009
  -1.7800000000000000E-002     9.5415576959608406E-009
  -1.7749999999999998E-002     9.8406383065061650E-009
  -1.7700000000000000E-002     1.0146439607265628E-008
  -1.7649999999999999E-002     1.0458478678769376E-008
  -1.7600000000000001E-002     1.0776449419196785E-008
  -1.7550000000000000E-002     1.1100236742425995E-008
  -1.7499999999999998E-002     1.1429917603238115E-008
  -1.7450000000000000E-002     1.1765748173870342E-008
  -1.7399999999999999E-002     1.2108141685483280E-008
  -1.7350000000000001E-002     1.2457644943070961E-008
  -1.7299999999999999E-002     1.2814921940675838E-008
  -1.7250000000000001E-002     1.3180736022877095E-008
  -1.7200000000000000E-002     1.3555938116588446E-008
  -1.7149999999999999E-002     1.3941458078338576E-008
  -1.7100000000000001E-002     1.4338285068395061E-008
  -1.7049999999999999E-002     1.4747449792051346E-008
  -1.7000000000000001E-002     1.5169987240669584E-008
  -1.6950000000000000E-002     1.5606885702675122E-008
  -1.6899999999999998E-002     1.6059037548245179E-008
  -1.6850000000000000E-002     1.6527176353499403E-008
  -1.6799999999999999E-002     1.7011815664584513E-008
  -1.6750000000000001E-002     1.7513214902923829E-008
  -1.6700000000000000E-002     1.8031353845354874E-008
  -1.6649999999999998E-002     1.8565947365789857E-008
  -1.6600000000000000E-002     1.9116476425857011E-008
  -1.6549999999999999E-002     1.9682260024148840E-008
  -1.6500000000000001E-002     2.0262536010574877E-008
  -1.6449999999999999E-002     2.0856563376362327E-008
  -1.6400000000000001E-002     2.1463709778242493E-008
  -1.6350000000000000E-002     2.2083540377406644E-008
  -1.6299999999999999E-002     2.2715881746869857E-008
  -1.6250000000000001E-002     2.3360859764655361E-008
  -1.6199999999999999E-002     2.4018915976284101E-008
  -1.6150000000000001E-002     2.4690796621121617E-008
  -1.6100000000000000E-002     2.5377522496273355E-008
  -1.6049999999999998E-002     2.6080344232878944E-008
  -1.6000000000000000E-002     2.6800685627341031E-008
  -1.5949999999999999E-002     2.7540079809439417E-008
  -1.5900000000000001E-002     2.8300103973561956E-008
  -1.5850000000000000E-002     2.9082311786816748E-008
  -1.5799999999999998E-002     2.9888158637344806E-008
  -1.5750000000000000E-002     3.0718937014813582E-008
  -1.5699999999999999E-002     3.1575709619987216E-008
  -1.5650000000000001E-002     3.2459277704929239E-008
  -1.5599999999999999E-002     3.3370127913896952E-008
  -1.5550000000000001E-002     3.4308435734951690E-008
  -1.5500000000000000E-002     3.5274071180735147E-008
  -1.5449999999999998E-002     3.6266650515435831E-008
  -1.5400000000000000E-002     3.7285598904413492E-008
  -1.5349999999999999E-002     3.8330242738123030E-008
  -1.5300000000000001E-002     3.9399920014683524E-008
  -1.5250000000000000E-002     4.0494078864689313E-008
  -1.5199999999999998E-002     4.1612379320639214E-008
  -1.5150000000000000E-002     4.2754785119289168E-008
  -1.5099999999999999E-002     4.3921626992257455E-008
  -1.5050000000000001E-002     4.5113641060101452E-008
  -1.4999999999999999E-002     4.6331978684898844E-008
  -1.4949999999999998E-002     4.7578176647991124E-008
  -1.4900000000000000E-002     4.8854101568325171E-008
  -1.4849999999999999E-002     5.0161858164484941E-008
  -1.4800000000000001E-002     5.1503691667775742E-008
  -1.4749999999999999E-002     5.2881863033357345E-008
  -1.4700000000000001E-002     5.4298510690314334E-008
  -1.4650000000000000E-002     5.5755531012708438E-008
  -1.4599999999999998E-002     5.7254474547529757E-008
  -1.4550000000000000E-002     5.8796463069825106E-008
  -1.4499999999999999E-002     6.0382146606242025E-008
  -1.4450000000000001E-002     6.2011740617744380E-008
  -1.4400000000000000E-002     6.3685054663003990E-008
  -1.4349999999999998E-002     6.5401617337484640E-008
  -1.4300000000000000E-002     6.7160790547842071E-008
  -1.4249999999999999E-002     6.8961942575619960E-008
  -1.4200000000000001E-002     7.0804592185010743E-008
  -1.4149999999999999E-002     7.2688524701521942E-008
  -1.4099999999999998E-002     7.4613925066105338E-008
  -1.4050000000000000E-002     7.6581387897723743E-008
  -1.3999999999999999E-002     7.8591973720331643E-008
  -1.3950000000000001E-002     8.0647137352770748E-008
  -1.3899999999999999E-002     8.2748674343612127E-008
  -1.3850000000000001E-002     8.4898607433358588E-008
  -1.3800000000000000E-002     8.7099126399109522E-008
  -1.3749999999999998E-002     8.9352465149618071E-008
  -1.3700000000000000E-002     9.1660814979477550E-008
  -1.3649999999999999E-002     9.4026267850429126E-008
  -1.3600000000000001E-002     9.6450752120169062E-008
  -1.3550000000000000E-002     9.8936006031823361E-008
  -1.3499999999999998E-002     1.0148356777045251E-007
  -1.3450000000000000E-002     1.0409475795800228E-007
  -1.3399999999999999E-002     1.0677071807526937E-007
  -1.3350000000000001E-002     1.0951242078467190E-007
  -1.3299999999999999E-002     1.1232071678817789E-007
  -1.3249999999999998E-002     1.1519635929873527E-007
  -1.3200000000000000E-002     1.1814010594686069E-007
  -1.3149999999999998E-002     1.2115272176657341E-007
  -1.3100000000000001E-002     1.2423507998707650E-007
  -1.3049999999999999E-002     1.2738818080272425E-007
  -1.3000000000000001E-002     1.3061317331078134E-007
  -1.2950000000000000E-002     1.3391142821566116E-007
  -1.2899999999999998E-002     1.3728446413056374E-007
  -1.2850000000000000E-002     1.4073402476662181E-007
  -1.2799999999999999E-002     1.4426200684867438E-007