  -4.0000000000000001E-002     0.0000000000000000     
  -3.9949999999999999E-002     0.0000000000000000     
  -3.9899999999999998E-002     0.0000000000000000     
  -3.9850000000000003E-002     0.0000000000000000     
  -3.9800000000000002E-002     0.0000000000000000     
  -3.9750000000000001E-002     0.0000000000000000     
  -3.9699999999999999E-002     0.0000000000000000     
  -3.9649999999999998E-002     0.0000000000000000     
  -3.9600000000000003E-002     0.0000000000000000     
  -3.9550000000000002E-002     0.0000000000000000     
  -3.9500000000000000E-002     0.0000000000000000     
  -3.9449999999999999E-002     0.0000000000000000     
  -3.9399999999999998E-002     0.0000000000000000     
  -3.9350000000000003E-002     0.0000000000000000     
  -3.9300000000000002E-002     0.0000000000000000     
  -3.9250000000000000E-002     0.0000000000000000     
  -3.9199999999999999E-002     0.0000000000000000     
  -3.9150000000000004E-002     0.0000000000000000     
  -3.9100000000000003E-002     0.0000000000000000     
  -3.9050000000000001E-002     0.0000000000000000     
  -3.9000000000000000E-002     0.0000000000000000     
  -3.8949999999999999E-002     0.0000000000000000     
  -3.8900000000000004E-002     0.0000000000000000     
  -3.8850000000000003E-002     0.0000000000000000     
  -3.8800000000000001E-002     0.0000000000000000     
  -3.8750000000000000E-002     0.0000000000000000     
  -3.8699999999999998E-002     0.0000000000000000     
  -3.8650000000000004E-002     0.0000000000000000     
  -3.8600000000000002E-002     0.0000000000000000     
  -3.8550000000000001E-002     0.0000000000000000     
  -3.8500000000000000E-002     0.0000000000000000     
  -3.8449999999999998E-002     0.0000000000000000     
  -3.8400000000000004E-002     8.5504351172510907E-040
  -3.8350000000000002E-002     3.8841046013214636E-039
  -3.8300000000000001E-002     9.1813838052736324E-039
  -3.8249999999999999E-002     1.5934986282866677E-038
  -3.8199999999999998E-002     1.4303561457091312E-038
  -3.8150000000000003E-002    -1.9764498756407503E-038
  -3.8100000000000002E-002    -1.3405223998329035E-037
  -3.8050000000000000E-002    -4.1528875263019274E-037
  -3.7999999999999999E-002    -9.7802638815026996E-037
  -3.7949999999999998E-002    -1.8742376391994857E-036
  -3.7900000000000003E-002    -2.9057549083589686E-036
  -3.7850000000000002E-002    -3.0873814192573615E-036
  -3.7800000000000000E-002     6.3958689456941921E-038
  -3.7749999999999999E-002     1.1309404552826598E-035
  -3.7699999999999997E-002     3.7736987560627409E-035
  -3.7650000000000003E-002     8.6496922997084161E-035
  -3.7600000000000001E-002     1.5777792635956045E-034
  -3.7550000000000000E-002     2.3042532641443974E-034
  -3.7499999999999999E-002     2.3959069592992585E-034
  -3.7449999999999997E-002     5.1811236332923458E-035
  -3.7400000000000003E-002    -5.4556462483038401E-034
  -3.7350000000000001E-002    -1.8074984270002494E-033
  -3.7300000000000000E-002    -3.8988749898114421E-033
  -3.7249999999999998E-002    -6.6185348403105781E-033
  -3.7200000000000004E-002    -8.9682598604425817E-033
  -3.7150000000000002E-002    -8.6527937758252496E-033
  -3.7100000000000001E-002    -1.7677689204797518E-033
  -3.7050000000000000E-002     1.6847256367320627E-032
  -3.6999999999999998E-002     5.1931480040892375E-032
  -3.6950000000000004E-002     1.0416807597157487E-031
  -3.6900000000000002E-002     1.6442568041732963E-031
  -3.6850000000000001E-002     2.0683583351378714E-031
  -3.6799999999999999E-002     1.8349884568844055E-031
  -3.6749999999999998E-002     2.5815726694411521E-032
  -3.6700000000000003E-002    -3.4087991464960341E-031
  -3.6650000000000002E-002    -9.6308704563943634E-031
  -3.6600000000000001E-002    -1.8032512248635340E-030
  -3.6549999999999999E-002    -2.6697540657515779E-030
  -3.6499999999999998E-002    -3.1550842529000223E-030
  -3.6450000000000003E-002    -2.6214807104677355E-030
  -3.6400000000000002E-002    -2.8579979015412891E-031
  -3.6350000000000000E-002     4.5468182326910365E-030
  -3.6299999999999999E-002     1.2078909411769600E-029
  -3.6249999999999998E-002     2.1485960167234063E-029
  -3.6200000000000003E-002     3.0382926064432982E-029
  -3.6150000000000002E-002     3.4528465456705762E-029
  -3.6100000000000000E-002     2.8083163649064931E-029
  -3.6049999999999999E-002     4.7401047676844001E-030
  -3.6000000000000004E-002    -4.0084050192100512E-029
  -3.5950000000000003E-002    -1.0610810380579250E-028
  -3.5900000000000001E-002    -1.8466334295417877E-028
  -3.5850000000000000E-002    -2.5589230794726161E-028
  -3.5799999999999998E-002    -2.8822904589063930E-028
  -3.5750000000000004E-002    -2.4187284635501303E-028
  -3.5700000000000003E-002    -7.7572905401006233E-029
  -3.5650000000000001E-002     2.2907825978431798E-028
  -3.5600000000000000E-002     6.6951472766733595E-028
  -3.5549999999999998E-002     1.1842820504159782E-027
  -3.5500000000000004E-002     1.6517274673785786E-027
  -3.5450000000000002E-002     1.8911181817588068E-027
  -3.5400000000000001E-002     1.6875007861596915E-027
  -3.5349999999999999E-002     8.4222661991246375E-028
  -3.5299999999999998E-002    -7.5365793635281172E-028
  -3.5250000000000004E-002    -3.0354733434111344E-027
  -3.5200000000000002E-002    -5.6931642638161352E-027
  -3.5150000000000001E-002    -8.1424413451841189E-027
  -3.5099999999999999E-002    -9.5705588874913933E-027
  -3.5049999999999998E-002    -9.0783316277061953E-027
  -3.5000000000000003E-002    -5.9164134342338932E-027
  -3.4950000000000002E-002     2.2123950430509112E-028
  -3.4900000000000000E-002     8.9224553222982364E-027
  -3.4849999999999999E-002     1.8904524922437693E-026
  -3.4799999999999998E-002     2.8089118851131751E-026
  -3.4750000000000003E-002     3.3967378448934855E-026
  -3.4700000000000002E-002     3.4230357756865566E-026
  -3.4650000000000000E-002     2.7521177948262871E-026
  -3.4599999999999999E-002     1.4053537876998727E-026
  -3.4549999999999997E-002    -4.2088847001245869E-027
  -3.4500000000000003E-002    -2.4050348309066471E-026
  -3.4450000000000001E-002    -4.2202891241270960E-026
  -3.4400000000000000E-002    -5.6938931376561265E-026
  -3.4349999999999999E-002    -6.9392186510058038E-026
  -3.4299999999999997E-002    -8.3729053645540056E-026
  -3.4250000000000003E-002    -1.0540415423180234E-025
  -3.4200000000000001E-002    -1.3729386673573654E-025
  -3.4150000000000000E-002    -1.7448197320318003E-025
  -3.4099999999999998E-002    -1.9962643134224069E-025
  -3.4049999999999997E-002    -1.8170348990805409E-025
  -3.4000000000000002E-002    -8.0939808847095949E-026
  -3.3950000000000001E-002     1.3855340823067757E-025
  -3.3900000000000000E-002     4.8961257704324868E-025
  -3.3849999999999998E-002     9.4103609929509442E-025
  -3.3799999999999997E-002     1.4027391955333612E-024
  -3.3750000000000002E-002     1.7263688396598607E-024
  -3.3700000000000001E-002     1.7287163594613374E-024
  -3.3649999999999999E-002     1.2393235472301378E-024
  -3.3599999999999998E-002     1.6462261505453298E-025
  -3.3550000000000003E-002    -1.4486511683166251E-024
  -3.3500000000000002E-002    -3.3743502132891808E-024
  -3.3450000000000001E-002    -5.2147912045332852E-024
  -3.3399999999999999E-002    -6.4679405579566582E-024
  -3.3349999999999998E-002    -6.6474153420156674E-024
  -3.3300000000000003E-002    -5.4265989928590959E-024
  -3.3250000000000002E-002    -2.7609795836599499E-024
  -3.3200000000000000E-002     1.0603050702673446E-024
  -3.3149999999999999E-002     5.4657924792559026E-024
  -3.3099999999999997E-002     9.7520681143178879E-024
  -3.3050000000000003E-002     1.3284673151116674E-023
  -3.3000000000000002E-002     1.5665417280384640E-023
  -3.2950000000000000E-002     1.6775578707480188E-023
  -3.2899999999999999E-002     1.6641051631636955E-023
  -3.2850000000000004E-002     1.5143535348109834E-023
  -3.2800000000000003E-002     1.1699424650248958E-023
  -3.2750000000000001E-002     5.1049837346591393E-024
  -3.2700000000000000E-002    -6.2437529170344601E-024
  -3.2649999999999998E-002    -2.3639285621224747E-023
  -3.2600000000000004E-002    -4.6935361224203068E-023
  -3.2550000000000003E-002    -7.3329555461625513E-023
  -3.2500000000000001E-002    -9.6596175784666862E-023
  -3.2450000000000000E-002    -1.0737894833255392E-022
  -3.2399999999999998E-002    -9.4983863120135173E-023
  -3.2350000000000004E-002    -5.0679854473192410E-023
  -3.2300000000000002E-002     2.8104327688275530E-023
  -3.2250000000000001E-002     1.3392067781502453E-022
  -3.2199999999999999E-002     2.4738618968684989E-022
  -3.2149999999999998E-002     3.3870054494761530E-022
  -3.2100000000000004E-002     3.7335446175392429E-022
  -3.2050000000000002E-002     3.2151356761810745E-022
  -3.2000000000000001E-002     1.6906081338977290E-022
  -3.1949999999999999E-002    -7.2955506245717135E-023
  -3.1899999999999998E-002    -3.6414752745404435E-022
  -3.1850000000000003E-002    -6.3879167336438492E-022
  -3.1800000000000002E-002    -8.1889194172698245E-022
  -3.1750000000000000E-002    -8.3431904687918737E-022
  -3.1699999999999999E-002    -6.4516081418180711E-022
  -3.1649999999999998E-002    -2.5956444292891096E-022
  -3.1600000000000003E-002     2.5957143913327996E-022
  -3.1550000000000002E-002     8.0328471025970611E-022
  -3.1500000000000000E-002     1.2404682964218616E-021
  -3.1449999999999999E-002     1.4517144623955834E-021
  -3.1399999999999997E-002     1.3635643730119713E-021
  -3.1350000000000003E-002     9.7210339988951603E-022
  -3.1300000000000001E-002     3.4704320203935539E-022
  -3.1250000000000000E-002    -3.8676418567930226E-022
  -3.1199999999999999E-002    -1.0855825696245805E-021
  -3.1150000000000001E-002    -1.6287648574655220E-021
  -3.1100000000000003E-002    -1.9506987533228094E-021
  -3.1050000000000001E-002    -2.0490063248538490E-021
  -3.1000000000000000E-002    -1.9633578696395770E-021
  -3.0949999999999998E-002    -1.7313815723295364E-021
  -3.0900000000000000E-002    -1.3401513223706878E-021
  -3.0850000000000002E-002    -6.9864846823783886E-022
  -3.0800000000000001E-002     3.4586930783688293E-022
  -3.0750000000000000E-002     1.9378565950285313E-021
  -3.0699999999999998E-002     4.1015927185067170E-021
  -3.0650000000000000E-002     6.6224618757930182E-021
  -3.0600000000000002E-002     8.9726194630579990E-021
  -3.0550000000000001E-002     1.0332904691997247E-020
  -3.0499999999999999E-002     9.7431003432239733E-021
  -3.0449999999999998E-002     6.3744427339015161E-021
  -3.0400000000000000E-002    -1.2947946838294021E-022
  -3.0350000000000002E-002    -9.3394834879054523E-021
  -3.0300000000000001E-002    -1.9871378053503810E-020
  -3.0249999999999999E-002    -2.9461813186777062E-020
  -3.0200000000000001E-002    -3.5337575658066768E-020
  -3.0150000000000000E-002    -3.4844266577763691E-020
  -3.0100000000000002E-002    -2.6209616845118059E-020
  -3.0050000000000000E-002    -9.2462557644301097E-021
  -2.9999999999999999E-002     1.4224314534713848E-020
  -2.9950000000000001E-002     4.0404051480551307E-020
  -2.9899999999999999E-002     6.4081207903133165E-020
  -2.9850000000000002E-002     7.9654744241436184E-020
  -2.9800000000000000E-002     8.2407524138468554E-020
  -2.9749999999999999E-002     6.9716380136484533E-020
  -2.9700000000000001E-002     4.1870844603035275E-020
  -2.9650000000000003E-002     2.2540067416161772E-021
  -2.9600000000000001E-002    -4.3196372959946406E-020
  -2.9550000000000000E-002    -8.7124786525744761E-020
  -2.9499999999999998E-002    -1.2219337955279783E-019
  -2.9450000000000000E-002    -1.4242537705735525E-019
  -2.9400000000000003E-002    -1.4410231276494045E-019
  -2.9350000000000001E-002    -1.2602206574017737E-019
  -2.9300000000000000E-002    -8.9163984025497072E-020
  -2.9249999999999998E-002    -3.6040436024906221E-020
  -2.9200000000000000E-002     2.9852762506902859E-020
  -2.9150000000000002E-002     1.0411181633239712E-019
  -2.9100000000000001E-002     1.8087573433498834E-019
  -2.9049999999999999E-002     2.5185603476716747E-019
  -2.8999999999999998E-002     3.0551446776250431E-019
  -2.8950000000000000E-002     3.2717374881465251E-019
  -2.8900000000000002E-002     3.0078474030144214E-019
  -2.8850000000000001E-002     2.1266111922969235E-019
  -2.8799999999999999E-002     5.6793519979924317E-020
  -2.8749999999999998E-002    -1.5945968968446460E-019
  -2.8700000000000000E-002    -4.1116083115044341E-019
  -2.8650000000000002E-002    -6.5512680822971468E-019
  -2.8600000000000000E-002    -8.3442667846572218E-019
  -2.8549999999999999E-002    -8.8852554919240405E-019
  -2.8500000000000001E-002    -7.6791885379660544E-019
  -2.8450000000000000E-002    -4.5036120400443837E-019
  -2.8400000000000002E-002     4.5508588660158758E-020
  -2.8350000000000000E-002     6.5370153582385685E-019
  -2.8299999999999999E-002     1.2651993877762234E-018
  -2.8250000000000001E-002     1.7444735540289124E-018
  -2.8200000000000003E-002     1.9565118279999151E-018
  -2.8150000000000001E-002     1.7994021759009215E-018
  -2.8100000000000000E-002     1.2350385175902890E-018
  -2.8049999999999999E-002     3.0966675173491586E-019
  -2.8000000000000001E-002    -8.4269781123788395E-019
  -2.7950000000000003E-002    -2.0175081330362789E-018
  -2.7900000000000001E-002    -2.9761857591179995E-018
  -2.7850000000000000E-002    -3.4952713230016219E-018
  -2.7799999999999998E-002    -3.4175322453004241E-018
  -2.7750000000000000E-002    -2.6926679563088322E-018
  -2.7700000000000002E-002    -1.3967596262730782E-018
  -2.7650000000000001E-002     2.7582059349235527E-019
  -2.7600000000000000E-002     2.0476483306743008E-018
  -2.7549999999999998E-002     3.6131952568345381E-018
  -2.7500000000000000E-002     4.7005693223484006E-018
  -2.7450000000000002E-002     5.1249402727063015E-018
  -2.7400000000000001E-002     4.8204876760055444E-018
  -2.7349999999999999E-002     3.8434992087611749E-018
  -2.7299999999999998E-002     2.3473692344133722E-018
  -2.7250000000000000E-002     5.3841282298410411E-019
  -2.7200000000000002E-002    -1.3729707727105000E-018
  -2.7150000000000001E-002    -3.2100792279377322E-018
  -2.7099999999999999E-002    -4.8448810968067419E-018
  -2.7049999999999998E-002    -6.1867043522806491E-018
  -2.7000000000000000E-002    -7.1511544060598619E-018
  -2.6950000000000002E-002    -7.6245468194017573E-018
  -2.6900000000000000E-002    -7.4431689640980022E-018
  -2.6849999999999999E-002    -6.4042389907759199E-018
  -2.6800000000000001E-002    -4.3161717914254509E-018
  -2.6749999999999999E-002    -1.0820149560204542E-018
  -2.6700000000000002E-002     3.2046339464335999E-018
  -2.6650000000000000E-002     8.1822079278078983E-018
  -2.6599999999999999E-002     1.3195611785262633E-017
  -2.6550000000000001E-002     1.7347602743227623E-017
  -2.6500000000000003E-002     1.9634611306542585E-017
  -2.6450000000000001E-002     1.9151051891073666E-017
  -2.6400000000000000E-002     1.5323204017906073E-017
  -2.6349999999999998E-002     8.1178187656447093E-018
  -2.6300000000000000E-002    -1.8323876279741794E-018
  -2.6250000000000002E-002    -1.3232082665790400E-017
  -2.6200000000000001E-002    -2.4275278509324291E-017
  -2.6150000000000000E-002    -3.2931592259439168E-017
  -2.6099999999999998E-002    -3.7318715782104575E-017
  -2.6050000000000000E-002    -3.6087992187000160E-017
  -2.6000000000000002E-002    -2.8741496350793228E-017
  -2.5950000000000001E-002    -1.5809254071799133E-017
  -2.5899999999999999E-002     1.1571188693445272E-018
  -2.5849999999999998E-002     1.9780378798913349E-017
  -2.5800000000000000E-002     3.7209598322918339E-017
  -2.5750000000000002E-002     5.0564856242683207E-017
  -2.5700000000000001E-002     5.7395448087932843E-017
  -2.5649999999999999E-002     5.6076097170719034E-017
  -2.5599999999999998E-002     4.6083186113957554E-017
  -2.5550000000000000E-002     2.8119379678303967E-017
  -2.5500000000000002E-002     4.0811835826047445E-018
  -2.5450000000000000E-002    -2.3117051900858572E-017
  -2.5399999999999999E-002    -4.9840888875996543E-017
  -2.5349999999999998E-002    -7.2132058688588238E-017
  -2.5300000000000000E-002    -8.6182861702860818E-017
  -2.5250000000000002E-002    -8.8863864939077527E-017
  -2.5200000000000000E-002    -7.8266042971792573E-017
  -2.5149999999999999E-002    -5.4194136499228813E-017
  -2.5100000000000001E-002    -1.8519103189211914E-017
  -2.5049999999999999E-002     2.4720546786836250E-017
  -2.5000000000000001E-002     6.9572887654405261E-017
  -2.4950000000000000E-002     1.0884493735166458E-016
  -2.4899999999999999E-002     1.3517639057597162E-016
  -2.4850000000000001E-002     1.4239083171297929E-016
  -2.4800000000000003E-002     1.2689307374828010E-016
  -2.4750000000000001E-002     8.8804313234327538E-017
  -2.4700000000000000E-002     3.2512072373130095E-017
  -2.4649999999999998E-002    -3.3614845328116520E-017
  -2.4600000000000000E-002    -9.8441035514731631E-017
  -2.4550000000000002E-002    -1.5008299637764511E-016
  -2.4500000000000001E-002    -1.7837850990282163E-016
  -2.4450000000000000E-002    -1.7727196521436690E-016
  -2.4399999999999998E-002    -1.4651364913086009E-016
  -2.4350000000000000E-002    -9.2154830264814735E-017
  -2.4299999999999999E-002    -2.5553794449285846E-017
  -2.4250000000000001E-002     3.9036902054987890E-017
  -2.4199999999999999E-002     8.7847672853297729E-017
  -2.4150000000000001E-002     1.1115728584816561E-016
  -2.4100000000000000E-002     1.0611661455772361E-016
  -2.4049999999999998E-002     7.7975353969962805E-017
  -2.4000000000000000E-002     3.9185352190058326E-017
  -2.3949999999999999E-002     6.3594994026797094E-018
  -2.3900000000000001E-002    -4.3403522848775554E-018
  -2.3850000000000000E-002     1.7690814986844511E-017
  -2.3800000000000002E-002     7.3264814960790312E-017
  -2.3750000000000000E-002     1.5134552606770549E-016
  -2.3699999999999999E-002     2.3006233220926729E-016
  -2.3650000000000001E-002     2.8097903816145263E-016
  -2.3599999999999999E-002     2.7594056148002790E-016
  -2.3550000000000001E-002     1.9504349105009167E-016
  -2.3500000000000000E-002     3.3786561751465990E-017
  -2.3449999999999999E-002    -1.9258975650501909E-016
  -2.3400000000000001E-002    -4.4908682109777030E-016
  -2.3349999999999999E-002    -6.8585304422571659E-016
  -2.3300000000000001E-002    -8.4744099707172706E-016
  -2.3250000000000000E-002    -8.8470140069760321E-016
  -2.3199999999999998E-002    -7.6677168724168328E-016
  -2.3150000000000000E-002    -4.9034403133322153E-016
  -2.3099999999999999E-002    -8.3786270924754431E-017
  -2.3050000000000001E-002     3.9528903078633530E-016
  -2.3000000000000000E-002     8.6899985834902826E-016
  -2.2950000000000002E-002     1.2531840865330072E-015
  -2.2900000000000000E-002     1.4736449069499426E-015
  -2.2849999999999999E-002     1.4812361494832238E-015
  -2.2800000000000001E-002     1.2624831085422373E-015
  -2.2749999999999999E-002     8.4334442184416748E-016
  -2.2700000000000001E-002     2.8515092869939412E-016
  -2.2650000000000000E-002    -3.2649957450290734E-016
  -2.2599999999999999E-002    -8.9759792229274988E-016
  -2.2550000000000001E-002    -1.3429650456185765E-015
  -2.2499999999999999E-002    -1.6012866918050599E-015
  -2.2450000000000001E-002    -1.6448691322979885E-015
  -2.2400000000000000E-002    -1.4823071823238848E-015
  -2.2349999999999998E-002    -1.1538675088566499E-015
  -2.2300000000000000E-002    -7.2098312057863457E-016
  -2.2249999999999999E-002    -2.5253348414813706E-016
  -2.2200000000000001E-002     1.8889135022338288E-016
  -2.2150000000000000E-002     5.5767090052059700E-016
  -2.2100000000000002E-002     8.3062086027921881E-016
  -2.2050000000000000E-002     1.0064189214820690E-015
  -2.1999999999999999E-002     1.0996253589398413E-015
  -2.1950000000000001E-002     1.1312177239390593E-015
  -2.1899999999999999E-002     1.1184072012575915E-015
  -2.1850000000000001E-002     1.0665842565581447E-015
  -2.1800000000000000E-002     9.6587054393061932E-016
  -2.1749999999999999E-002     7.9360381389429570E-016
  -2.1700000000000001E-002     5.2276382355235262E-016
  -2.1649999999999999E-002     1.3482819102968298E-016
  -2.1600000000000001E-002    -3.6577402190230621E-016
  -2.1550000000000000E-002    -9.3932661198438280E-016
  -2.1499999999999998E-002    -1.5046228633200669E-015
  -2.1450000000000000E-002    -1.9423286487899296E-015
  -2.1399999999999999E-002    -2.1100937377908255E-015
  -2.1350000000000001E-002    -1.8693583769197076E-015
  -2.1299999999999999E-002    -1.1212011884924607E-015
  -2.1250000000000002E-002     1.5441557603350152E-016
  -2.1200000000000000E-002     1.8640122129147082E-015
  -2.1149999999999999E-002     3.7800993922758639E-015
  -2.1100000000000001E-002     5.5440527835515276E-015
  -2.1049999999999999E-002     6.6991504536243291E-015
  -2.1000000000000001E-002     6.7557873925162554E-015
  -2.0950000000000000E-002     5.2844850511424687E-015
  -2.0899999999999998E-002     2.0246413712976346E-015
  -2.0850000000000000E-002    -3.0094383718596952E-015
  -2.0799999999999999E-002    -9.4483977314424888E-015
  -2.0750000000000001E-002    -1.6536846677350227E-014
  -2.0700000000000000E-002    -2.3170279624470696E-014
  -2.0649999999999998E-002    -2.8008808355044722E-014
  -2.0600000000000000E-002    -2.9662676156389839E-014
  -2.0549999999999999E-002    -2.6928998058134337E-014
  -2.0500000000000001E-002    -1.9044888335185223E-014
  -2.0449999999999999E-002    -5.9125287309923626E-015
  -2.0400000000000001E-002     1.1750380561970683E-014
  -2.0350000000000000E-002     3.2373927653909976E-014
  -2.0299999999999999E-002     5.3636287135160681E-014
  -2.0250000000000001E-002     7.2701508616148470E-014
  -2.0199999999999999E-002     8.6569577158219495E-014
  -2.0150000000000001E-002     9.2490832904718490E-014
  -2.0100000000000000E-002     8.8381075864624154E-014
  -2.0049999999999998E-002     7.3169209773700882E-014
  -2.0000000000000000E-002     4.7018206327040191E-014
  -1.9949999999999999E-002     1.1380639961116134E-014
  -1.9900000000000001E-002    -3.1121270604432927E-014
  -1.9850000000000000E-002    -7.6969977455209494E-014
  -1.9799999999999998E-002    -1.2213302473478273E-013
  -1.9750000000000000E-002    -1.6248451460475921E-013
  -1.9699999999999999E-002    -1.9419912606003349E-013
  -1.9650000000000001E-002    -2.1406159322218163E-013
  -1.9599999999999999E-002    -2.1965753913168180E-013
  -1.9550000000000001E-002    -2.0944125552376701E-013
  -1.9500000000000000E-002    -1.8270495038381448E-013
  -1.9449999999999999E-002    -1.3949513014926076E-013
  -1.9400000000000001E-002    -8.0530480825404452E-014
  -1.9349999999999999E-002    -7.1687612557797534E-015
  -1.9300000000000001E-002     7.8549649117650826E-014
  -1.9250000000000000E-002     1.7378281914775099E-013
  -1.9199999999999998E-002     2.7472422691843084E-013
  -1.9150000000000000E-002     3.7645135952767516E-013
  -1.9099999999999999E-002     4.7285271257871252E-013
  -1.9050000000000001E-002     5.5669603879656843E-013
  -1.9000000000000000E-002     6.1988049880367153E-013
  -1.8949999999999998E-002     6.5388434184198303E-013
  -1.8900000000000000E-002     6.5038352875592173E-013
  -1.8849999999999999E-002     6.0198551464237858E-013
  -1.8800000000000001E-002     5.0300001386865987E-013
  -1.8749999999999999E-002     3.5016407414742612E-013
  -1.8700000000000001E-002     1.4324708006493528E-013
  -1.8650000000000000E-002    -1.1451362801400922E-013
  -1.8599999999999998E-002    -4.1616745351264304E-013
  -1.8550000000000001E-002    -7.5098891784467323E-013
  -1.8499999999999999E-002    -1.1045726995668614E-012
  -1.8450000000000001E-002    -1.4590562745391117E-012
  -1.8400000000000000E-002    -1.7934518781823006E-012
  -1.8349999999999998E-002    -2.0840945474371582E-012
  -1.8300000000000000E-002    -2.3052480127933706E-012
  -1.8249999999999999E-002    -2.4299346231524874E-012
  -1.8200000000000001E-002    -2.4310776865470609E-012
  -1.8149999999999999E-002    -2.2830357932137379E-012
  -1.8100000000000002E-002    -1.9635789550961291E-012
  -1.8050000000000000E-002    -1.4562971164575149E-012
  -1.7999999999999999E-002    -7.5335252472768921E-013
  -1.7950000000000001E-002     1.4160796140610481E-013
  -1.7899999999999999E-002     1.2106517856201336E-012
  -1.7850000000000001E-002     2.4192163713641638E-012
  -1.7800000000000000E-002     3.7146113320977634E-012
  -1.7749999999999998E-002     5.0257506149100909E-012
  -1.7700000000000000E-002     6.2644428499484050E-012
  -1.7649999999999999E-002     7.3284606771649736E-012
  -1.7600000000000001E-002     8.1064616569219050E-012
  -1.7550000000000000E-002     8.4846462221764243E-012
  -1.7499999999999998E-002     8.3548510661040751E-012
  -1.7450000000000000E-002     7.6236010733291151E-012
  -1.7399999999999999E-002     6.2214935675719205E-012
  -1.7350000000000001E-002     4.1122356231682018E-012
  -1.7299999999999999E-002     1.3006295199823341E-012
  -1.7250000000000001E-002    -2.1611129807140239E-012
  -1.7200000000000000E-002    -6.1692043831711358E-012
  -1.7149999999999999E-002    -1.0566545803110301E-011
  -1.7100000000000001E-002    -1.5143499993887617E-011
  -1.7049999999999999E-002    -1.9641049935475332E-011
  -1.7000000000000001E-002    -2.3756034190686950E-011
  -1.6950000000000000E-002    -2.7148088284527783E-011
  -1.6899999999999998E-002    -2.9447884548833185E-011
  -1.6850000000000000E-002    -3.0266285302702697E-011
  -1.6799999999999999E-002    -2.9204078601428317E-011
  -1.6750000000000001E-002    -2.5862189143266951E-011
  -1.6700000000000000E-002    -1.9852125831320904E-011
  -1.6649999999999998E-002    -1.0806735449342469E-011
  -1.6600000000000000E-002     1.6090481816304848E-012
  -1.6549999999999999E-002     1.7687448846459394E-011
  -1.6500000000000001E-002     3.7667625362465998E-011
  -1.6449999999999999E-002     6.1726362865858864E-011
  -1.6400000000000001E-002     8.9970329491287720E-011
  -1.6350000000000000E-002     1.2243065176173672E-010
  -1.6299999999999999E-002     1.5906015113493193E-010
  -1.6250000000000001E-002     1.9973421600749014E-010
  -1.6199999999999999E-002     2.4425493895831558E-010
  -1.6150000000000001E-002     2.9235898187927636E-010
  -1.6100000000000000E-002     3.4372843560816321E-010
  -1.6049999999999998E-002     3.9800407287533358E-010
  -1.6000000000000000E-002     4.5480056336237394E-010
  -1.5949999999999999E-002     5.1372200740647654E-010
  -1.5900000000000001E-002     5.7437775085707651E-010
  -1.5850000000000000E-002     6.3639703354700444E-010
  -1.5799999999999998E-002     6.9944205733009744E-010
  -1.5750000000000000E-002     7.6321961408335755E-010
  -1.5699999999999999E-002     8.2748987624803932E-010
  -1.5650000000000001E-002     8.9207359661216363E-010
  -1.5599999999999999E-002     9.5685594392619753E-010
  -1.5550000000000001E-002     1.0217882450645759E-009
  -1.5500000000000000E-002     1.0868863490220023E-009
  -1.5449999999999998E-002     1.1522264213292396E-009
  -1.5400000000000000E-002     1.2179370055496402E-009
  -1.5349999999999999E-002     1.2841881920878211E-009
  -1.5300000000000001E-002     1.3511786781432734E-009
  -1.5250000000000000E-002     1.4191203884899303E-009
  -1.5199999999999998E-002     1.4882233525678655E-009
  -1.5150000000000000E-002     1.5586808033355166E-009
  -1.5099999999999999E-002     1.6306558500498097E-009
  -1.5050000000000001E-002     1.7042737454495408E-009
  -1.4999999999999999E-002     1.7796164538572882E-009
  -1.4949999999999998E-002     1.8567243566621279E-009
  -1.4900000000000000E-002     1.9356024347207612E-009
  -1.4849999999999999E-002     2.0162305111543473E-009
  -1.4800000000000001E-002     2.0985775518695949E-009
  -1.4749999999999999E-002     2.1826169881169358E-009
  -1.4700000000000001E-002     2.2683426707603491E-009
  -1.4650000000000000E-002     2.3557811096449485E-009
  -1.4599999999999998E-002     2.4450021512213417E-009
  -1.4550000000000000E-002     2.5361233233270673E-009
  -1.4499999999999999E-002     2.6293090686159313E-009
  -1.4450000000000001E-002     2.7247663626843320E-009
  -1.4400000000000000E-002     2.8227334931567357E-009
  -1.4349999999999998E-002     2.9234661806605889E-009
  -1.4300000000000000E-002     3.0272229191311402E-009
  -1.4249999999999999E-002     3.1342483701212667E-009
  -1.4200000000000001E-002     3.2447589347449055E-009
  -1.4149999999999999E-002     3.3589311889125952E-009
  -1.4099999999999998E-002     3.4768928448726863E-009
  -1.4050000000000000E-002     3.5987206810597642E-009
  -1.3999999999999999E-002     3.7244410028639300E-009
  -1.3950000000000001E-002     3.8540361874969906E-009
  -1.3899999999999999E-002     3.9874545489800066E-009
  -1.3850000000000001E-002     4.1246225497126740E-009
  -1.3800000000000000E-002     4.2654584849932110E-009
  -1.3749999999999998E-002     4.4098874121178502E-009
  -1.3700000000000000E-002     4.5578534517944532E-009
  -1.3649999999999999E-002     4.7093314698110683E-009
  -1.3600000000000001E-002     4.8643361141164255E-009
  -1.3550000000000000E-002     5.0229265621282879E-009
  -1.3499999999999998E-002     5.1852090548359206E-009
  -1.3450000000000000E-002     5.3513370844326720E-009
  -1.3399999999999999E-002     5.5215096131341431E-009
  -1.3350000000000001E-002     5.6959662278689781E-009
  -1.3299999999999999E-002     5.8749831866012152E-009
  -1.3249999999999998E-002     6.0588651241705052E-009
  -1.3200000000000000E-002     6.2479399685410423E-009
  -1.3149999999999998E-002     6.4425470823675465E-009
  -1.3100000000000001E-002     6.6430281187499869E-009
  -1.3049999999999999E-002     6.8497193887260759E-009
  -1.3000000000000001E-002     7.0629363796926644E-009
  -1.2950000000000000E-002     7.2829660952609604E-009
  -1.2899999999999998E-002     7.5100576147650590E-009
  -1.2850000000000000E-002     7.7444131665274143E-009
  -1.2799999999999999E-002     7.9861858238901333E-009