  -4.0000000000000001E-002     0.0000000000000000     
  -3.9949999999999999E-002     0.0000000000000000     
  -3.9899999999999998E-002     0.0000000000000000     
  -3.9850000000000003E-002     0.0000000000000000     
  -3.9800000000000002E-002     0.0000000000000000     
  -3.9750000000000001E-002     0.0000000000000000     
  -3.9699999999999999E-002     0.0000000000000000     
  -3.9649999999999998E-002     0.0000000000000000     
  -3.9600000000000003E-002     0.0000000000000000     
  -3.9550000000000002E-002     0.0000000000000000     
  -3.9500000000000000E-002     0.0000000000000000     
  -3.9449999999999999E-002     0.0000000000000000     
  -3.9399999999999998E-002     0.0000000000000000     
  -3.9350000000000003E-002     0.0000000000000000     
  -3.9300000000000002E-002     0.0000000000000000     
  -3.9250000000000000E-002     0.0000000000000000     
  -3.9199999999999999E-002     0.0000000000000000     
  -3.9150000000000004E-002     0.0000000000000000     
  -3.9100000000000003E-002     0.0000000000000000     
  -3.9050000000000001E-002     0.0000000000000000     
  -3.9000000000000000E-002     0.0000000000000000     
  -3.8949999999999999E-002     0.0000000000000000     
  -3.8900000000000004E-002     0.0000000000000000     
  -3.8850000000000003E-002     0.0000000000000000     
  -3.8800000000000001E-002     0.0000000000000000     
  -3.8750000000000000E-002     0.0000000000000000     
  -3.8699999999999998E-002     0.0000000000000000     
  -3.8650000000000004E-002     0.0000000000000000     
  -3.8600000000000002E-002     0.0000000000000000     
  -3.8550000000000001E-002     0.0000000000000000     
  -3.8500000000000000E-002     0.0000000000000000     
  -3.8449999999999998E-002     0.0000000000000000     
  -3.8400000000000004E-002     0.0000000000000000     
  -3.8350000000000002E-002     0.0000000000000000     
  -3.8300000000000001E-002     3.4409083569749742E-039
  -3.8249999999999999E-002     1.3510037943801192E-038
  -3.8199999999999998E-002     3.7319902487531640E-038
  -3.8150000000000003E-002     8.3062251459064178E-038
  -3.8100000000000002E-002     1.4551912155528446E-037
  -3.8050000000000000E-002     1.7993462216099264E-037
  -3.7999999999999999E-002     8.2634691057880574E-038
  -3.7949999999999998E-002    -4.3549471159268114E-037
  -3.7900000000000003E-002    -1.8866694753373686E-036
  -3.7850000000000002E-002    -5.0168592021270167E-036
  -3.7800000000000000E-002    -1.0551117347550139E-035
  -3.7749999999999999E-002    -1.8385488358690180E-035
  -3.7699999999999997E-002    -2.5789836794103426E-035
  -3.7650000000000003E-002    -2.4362121626925767E-035
  -3.7600000000000001E-002     4.0779132211180131E-036
  -3.7550000000000000E-002     9.0844316401020802E-035
  -3.7499999999999999E-002     2.7849326168365114E-034
  -3.7449999999999997E-002     6.0524861445975494E-034
  -3.7400000000000003E-002     1.0637410673037780E-033
  -3.7350000000000001E-002     1.5225784729734691E-033
  -3.7300000000000000E-002     1.6105975382363117E-033
  -3.7249999999999998E-002     5.9433453000552402E-034
  -3.7200000000000004E-002    -2.6647780141877933E-033
  -3.7150000000000002E-002    -9.5115345023119324E-033
  -3.7100000000000001E-002    -2.0829979173453718E-032
  -3.7050000000000000E-002    -3.5694773927614834E-032
  -3.6999999999999998E-002    -4.9317896061264712E-032
  -3.6950000000000004E-002    -5.0739131225242719E-032
  -3.6900000000000002E-002    -2.1493855026923220E-032
  -3.6850000000000001E-002     6.2560794508150596E-032
  -3.6799999999999999E-002     2.2341906671358247E-031
  -3.6749999999999998E-002     4.6466701838078255E-031
  -3.6700000000000003E-002     7.4680430836726350E-031
  -3.6650000000000002E-002     9.5934662301894094E-031
  -3.6600000000000001E-002     9.0252851957807305E-031
  -3.6549999999999999E-002     2.9937532880344012E-031
  -3.6499999999999998E-002    -1.1372270971626243E-030
  -3.6450000000000003E-002    -3.5642050601035592E-030
  -3.6400000000000002E-002    -6.7989018879523850E-030
  -3.6350000000000000E-002    -1.0085123547047751E-029
  -3.6299999999999999E-002    -1.1930730480999051E-029
  -3.6249999999999998E-002    -1.0157547621698383E-029
  -3.6200000000000003E-002    -2.3135394252833292E-030
  -3.6150000000000002E-002     1.3460505931171957E-029
  -3.6100000000000000E-002     3.7161356203819684E-029
  -3.6049999999999999E-002     6.5521234673423531E-029
  -3.6000000000000004E-002     9.0982068775384956E-029
  -3.5950000000000003E-002     1.0171379010738472E-028
  -3.5900000000000001E-002     8.3305519219052519E-029
  -3.5850000000000000E-002     2.2432169621087698E-029
  -3.5799999999999998E-002    -8.7815173478637009E-029
  -3.5750000000000004E-002    -2.4201887370418388E-028
  -3.5700000000000003E-002    -4.1769760638053275E-028
  -3.5650000000000001E-002    -5.7375057751380110E-028
  -3.5600000000000000E-002    -6.5369720190377367E-028
  -3.5549999999999998E-002    -5.9428192819006031E-028
  -3.5500000000000004E-002    -3.3862735254966615E-028
  -3.5450000000000002E-002     1.4805866882491021E-028
  -3.5400000000000001E-002     8.6264893374999883E-028
  -3.5349999999999999E-002     1.7500850726777549E-027
  -3.5299999999999998E-002     2.6922580314147725E-027
  -3.5250000000000004E-002     3.5006987217559294E-027
  -3.5200000000000002E-002     3.9158224385515309E-027
  -3.5150000000000001E-002     3.6196411070961138E-027
  -3.5099999999999999E-002     2.2738343002571519E-027
  -3.5049999999999998E-002    -4.0301510364797052E-028
  -3.5000000000000003E-002    -4.5115392133829013E-027
  -3.4950000000000002E-002    -9.8121701769752096E-027
  -3.4900000000000000E-002    -1.5571116680500959E-026
  -3.4849999999999999E-002    -2.0484621046218492E-026
  -3.4799999999999998E-002    -2.2771165424864763E-026
  -3.4750000000000003E-002    -2.0501913692935868E-026
  -3.4700000000000002E-002    -1.2170141955601113E-026
  -3.4650000000000000E-002     2.6140375295130388E-027
  -3.4599999999999999E-002     2.2542280478719335E-026
  -3.4549999999999997E-002     4.4452335010914997E-026
  -3.4500000000000003E-002     6.3862112265465135E-026
  -3.4450000000000001E-002     7.6241639753001324E-026
  -3.4400000000000000E-002     7.8708445865861963E-026
  -3.4349999999999999E-002     7.1437059437663974E-026
  -3.4299999999999997E-002     5.7845945935618049E-026
  -3.4250000000000003E-002     4.2789871784119754E-026
  -3.4200000000000001E-002     2.8682631760106212E-026
  -3.4150000000000000E-002     1.0638276685675880E-026
  -3.4099999999999998E-002    -2.7008006348975708E-026
  -3.4049999999999997E-002    -1.0967180314059425E-025
  -3.4000000000000002E-002    -2.6429935072772199E-025
  -3.3950000000000001E-002    -5.0338976957043118E-025
  -3.3900000000000000E-002    -8.0436763343229607E-025
  -3.3849999999999998E-002    -1.0916748670489889E-024
  -3.3799999999999997E-002    -1.2320452125884248E-024
  -3.3750000000000002E-002    -1.0532575344912058E-024
  -3.3700000000000001E-002    -3.9165328511084358E-025
  -3.3649999999999999E-002     8.3624456924957496E-025
  -3.3599999999999998E-002     2.5554209437606842E-024
  -3.3550000000000003E-002     4.4759629882576740E-024
  -3.3500000000000002E-002     6.0911963483735475E-024
  -3.3450000000000001E-002     6.7551104230468263E-024
  -3.3399999999999999E-002     5.8425055870756696E-024
  -3.3349999999999998E-002     2.9642305244991452E-024
  -3.3300000000000003E-002    -1.8215127287546216E-024
  -3.3250000000000002E-002    -7.8796682004257560E-024
  -3.3200000000000000E-002    -1.4022524320314424E-023
  -3.3149999999999999E-002    -1.8722883097425533E-023
  -3.3099999999999997E-002    -2.0489478207048265E-023
  -3.3050000000000003E-002    -1.8308538212278120E-023
  -3.3000000000000002E-002    -1.2005519781123724E-023
  -3.2950000000000000E-002    -2.3779679246219590E-024
  -3.2899999999999999E-002     8.9906080947192050E-024
  -3.2850000000000004E-002     2.0211982221159965E-023
  -3.2800000000000003E-002     2.9710754058068257E-023
  -3.2750000000000001E-002     3.6717478996484811E-023
  -3.2700000000000000E-002     4.1365324910636319E-023
  -3.2649999999999998E-002     4.4232357934813667E-023
  -3.2600000000000004E-002     4.5401790145854790E-023
  -3.2550000000000003E-002     4.3392790633250805E-023
  -3.2500000000000001E-002     3.4532875485830855E-023
  -3.2450000000000000E-002     1.3375665518768078E-023
  -3.2399999999999998E-002    -2.5471326575623809E-023
  -3.2350000000000004E-002    -8.4252173240292860E-023
  -3.2300000000000002E-002    -1.5850131503967312E-022
  -3.2250000000000001E-002    -2.3439355050364650E-022
  -3.2199999999999999E-002    -2.8860861441910067E-022
  -3.2149999999999998E-002    -2.9196402500738675E-022
  -3.2100000000000004E-002    -2.1707936269632883E-022
  -3.2050000000000002E-002    -4.8873843186001469E-023
  -3.2000000000000001E-002     2.0482408144011015E-022
  -3.1949999999999999E-002     5.0630515987989633E-022
  -3.1899999999999998E-002     7.8838856305669315E-022
  -3.1850000000000003E-002     9.6460579503886209E-022
  -3.1800000000000002E-002     9.4896081436163071E-022
  -3.1750000000000000E-002     6.8181036671136634E-022
  -3.1699999999999999E-002     1.5543983224058173E-022
  -3.1649999999999998E-002    -5.6867093025220038E-022
  -3.1600000000000003E-002    -1.3582486180044508E-021
  -3.1550000000000002E-002    -2.0284836724469883E-021
  -3.1500000000000000E-002    -2.3791933035130722E-021
  -3.1449999999999999E-002    -2.2440991444927647E-021
  -3.1399999999999997E-002    -1.5406767177709813E-021
  -3.1350000000000003E-002    -3.0702465029283067E-022
  -3.1300000000000001E-002     1.2860101134633703E-021
  -3.1250000000000000E-002     2.9537214687571015E-021
  -3.1199999999999999E-002     4.3458523738197851E-021
  -3.1150000000000001E-002     5.1147163209906559E-021
  -3.1100000000000003E-002     4.9879201659995871E-021
  -3.1050000000000001E-002     3.8291541299289684E-021
  -3.1000000000000000E-002     1.6740552902397571E-021
  -3.0949999999999998E-002    -1.2646005069923516E-021
  -3.0900000000000000E-002    -4.6197122378941128E-021
  -3.0850000000000002E-002    -7.9116238295710172E-021
  -3.0800000000000001E-002    -1.0597946086408281E-020
  -3.0750000000000000E-002    -1.2124041496914840E-020
  -3.0699999999999998E-002    -1.1974104904436096E-020
  -3.0650000000000000E-002    -9.7301989229136243E-021
  -3.0600000000000002E-002    -5.1497313993890161E-021
  -3.0550000000000001E-002     1.7331240565574241E-021
  -3.0499999999999999E-002     1.0490382087134020E-020
  -3.0449999999999998E-002     2.0195500203545448E-020
  -3.0400000000000000E-002     2.9377410427122029E-020
  -3.0350000000000002E-002     3.6088272868460491E-020
  -3.0300000000000001E-002     3.8130196584126981E-020
  -3.0249999999999999E-002     3.3454532046483164E-020
  -3.0200000000000001E-002     2.0697149254040030E-020
  -3.0150000000000000E-002    -2.4497208496394144E-022
  -3.0100000000000002E-002    -2.7738977706132808E-020
  -3.0050000000000000E-002    -5.8206743191133126E-020
  -2.9999999999999999E-002    -8.6322004557397575E-020
  -2.9950000000000001E-002    -1.0568543063087903E-019
  -2.9899999999999999E-002    -1.0994134231508578E-019
  -2.9850000000000002E-002    -9.4176116611814496E-020
  -2.9800000000000000E-002    -5.6331213516670335E-020
  -2.9749999999999999E-002     1.6947152000779574E-021
  -2.9700000000000001E-002     7.3565451822337459E-020
  -2.9650000000000003E-002     1.4886536968074615E-019
  -2.9600000000000001E-002     2.1435341993025582E-019
  -2.9550000000000000E-002     2.5598019520431053E-019
  -2.9499999999999998E-002     2.6135972240105693E-019
  -2.9450000000000000E-002     2.2227040396724051E-019
  -2.9400000000000003E-002     1.3673096577250524E-019
  -2.9350000000000001E-002     1.0262398638352543E-020
  -2.9300000000000000E-002    -1.4391409720073189E-019
  -2.9249999999999998E-002    -3.0581996794414081E-019
  -2.9200000000000000E-002    -4.5071956686032737E-019
  -2.9150000000000002E-002    -5.5198095865423087E-019
  -2.9100000000000001E-002    -5.8454357729379077E-019
  -2.9049999999999999E-002    -5.2872479741046951E-019
  -2.8999999999999998E-002    -3.7408072732351223E-019
  -2.8950000000000000E-002    -1.2297852437611526E-019
  -2.8900000000000002E-002     2.0658582233687075E-019
  -2.8850000000000001E-002     5.7955992532203623E-019
  -2.8799999999999999E-002     9.4457733637023223E-019
  -2.8749999999999998E-002     1.2376665670989017E-018
  -2.8700000000000000E-002     1.3894892100655072E-018
  -2.8650000000000002E-002     1.3361273479061313E-018
  -2.8600000000000000E-002     1.0325788071917433E-018
  -2.8549999999999999E-002     4.6709255207786465E-019
  -2.8500000000000001E-002    -3.2649900931364955E-019
  -2.8450000000000000E-002    -1.2618800397323245E-018
  -2.8400000000000002E-002    -2.2021192554088821E-018
  -2.8350000000000000E-002    -2.9726461407091734E-018
  -2.8299999999999999E-002    -3.3857788347498755E-018
  -2.8250000000000001E-002    -3.2746805292781298E-018
  -2.8200000000000003E-002    -2.5318742867071588E-018
  -2.8150000000000001E-002    -1.1451647816418092E-018
  -2.8100000000000000E-002     7.7733093751548478E-019
  -2.8049999999999999E-002     3.0008023155326702E-018
  -2.8000000000000001E-002     5.1813740405682286E-018
  -2.7950000000000003E-002     6.9090309908846331E-018
  -2.7900000000000001E-002     7.7720441482311688E-018
  -2.7850000000000000E-002     7.4339824279111410E-018
  -2.7799999999999998E-002     5.7103946162728871E-018
  -2.7750000000000000E-002     2.6303492050641918E-018
  -2.7700000000000002E-002    -1.5311183091793423E-018
  -2.7650000000000001E-002    -6.2598606491692955E-018
  -2.7600000000000000E-002    -1.0852923593564381E-017
  -2.7549999999999998E-002    -1.4508996921830330E-017
  -2.7500000000000000E-002    -1.6448348900829456E-017
  -2.7450000000000002E-002    -1.6045492058550400E-017
  -2.7400000000000001E-002    -1.2954341590988677E-017
  -2.7349999999999999E-002    -7.2051520788790874E-018
  -2.7299999999999998E-002     7.4473755443645433E-019
  -2.7250000000000000E-002     1.0018865014273373E-017
  -2.7200000000000002E-002     1.9393558541952881E-017
  -2.7150000000000001E-002     2.7430744640200761E-017
  -2.7099999999999999E-002     3.2660486428568436E-017
  -2.7049999999999998E-002     3.3794552867707620E-017
  -2.7000000000000000E-002     2.9946340075960222E-017
  -2.6950000000000002E-002     2.0828205779763084E-017
  -2.6900000000000000E-002     6.8956070140306956E-018
  -2.6849999999999999E-002    -1.0591196821484561E-017
  -2.6800000000000001E-002    -2.9611849682607301E-017
  -2.6749999999999999E-002    -4.7551235883555007E-017
  -2.6700000000000002E-002    -6.1485218015850900E-017
  -2.6650000000000000E-002    -6.8568381080323852E-017
  -2.6599999999999999E-002    -6.6485195139367266E-017
  -2.6550000000000001E-002    -5.3906844652705661E-017
  -2.6500000000000003E-002    -3.0882027908010151E-017
  -2.6450000000000001E-002     9.1486507287088879E-019
  -2.6400000000000000E-002     3.8147281454330688E-017
  -2.6349999999999998E-002     7.6039071513567026E-017
  -2.6300000000000000E-002     1.0886880320372541E-016
  -2.6250000000000002E-002     1.3070465960085234E-016
  -2.6200000000000001E-002     1.3630221038403200E-016
  -2.6150000000000000E-002     1.2204629729255084E-016
  -2.6099999999999998E-002     8.6791239396560604E-017
  -2.6050000000000000E-002     3.2447251566529912E-017
  -2.6000000000000002E-002    -3.5820385887627659E-017
  -2.5950000000000001E-002    -1.0986973846467709E-016
  -2.5899999999999999E-002    -1.7936523471301602E-016
  -2.5849999999999998E-002    -2.3301646086699031E-016
  -2.5800000000000000E-002    -2.6014809260170709E-016
  -2.5750000000000002E-002    -2.5240938974871901E-016
  -2.5700000000000001E-002    -2.0538732162150247E-016
  -2.5649999999999999E-002    -1.1987113634103820E-016
  -2.5599999999999998E-002    -2.5340623816500797E-018
  -2.5550000000000000E-002     1.3414986327664426E-016
  -2.5500000000000002E-002     2.7285229993100077E-016
  -2.5450000000000000E-002     3.9319257844219290E-016
  -2.5399999999999999E-002     4.7426582479327197E-016
  -2.5349999999999998E-002     4.9764642715000802E-016
  -2.5300000000000000E-002     4.5050991803957920E-016
  -2.5250000000000002E-002     3.2843814989577472E-016
  -2.5200000000000000E-002     1.3744568737290453E-016
  -2.5149999999999999E-002    -1.0520513972207412E-016
  -2.5100000000000001E-002    -3.7173045304387674E-016
  -2.5049999999999999E-002    -6.2625127378202404E-016
  -2.5000000000000001E-002    -8.2884882251429659E-016
  -2.4950000000000000E-002    -9.4091419897505804E-016
  -2.4899999999999999E-002    -9.3119144274506140E-016
  -2.4850000000000001E-002    -7.8169784036213573E-016
  -2.4800000000000003E-002    -4.9257782111200299E-016
  -2.4750000000000001E-002    -8.4955456532698101E-017
  -2.4700000000000000E-002     3.9898786871353134E-016
  -2.4649999999999998E-002     8.9916338202563110E-016
  -2.4600000000000000E-002     1.3439593303225912E-015
  -2.4550000000000002E-002     1.6593464654109408E-015
  -2.4500000000000001E-002     1.7796819517514820E-015
  -2.4450000000000000E-002     1.6587703375988903E-015
  -2.4399999999999998E-002     1.2795058266516303E-015
  -2.4350000000000000E-002     6.6042321548545948E-016
  -2.4299999999999999E-002    -1.4224287567745560E-016
  -2.4250000000000001E-002    -1.0378620948568362E-015
  -2.4199999999999999E-002    -1.9102288032304624E-015
  -2.4150000000000001E-002    -2.6312304751183830E-015
  -2.4100000000000000E-002    -3.0779012163784662E-015
  -2.4049999999999998E-002    -3.1507444345187069E-015
  -2.4000000000000000E-002    -2.7908123088286367E-015
  -2.3949999999999999E-002    -1.9929607598078112E-015
  -2.3900000000000001E-002    -8.1299519198009498E-016
  -2.3850000000000000E-002     6.3294150413196045E-016
  -2.3800000000000002E-002     2.1774639431838384E-015
  -2.3750000000000000E-002     3.6191608671268637E-015
  -2.3699999999999999E-002     4.7464264519195983E-015
  -2.3650000000000001E-002     5.3653712263546758E-015
  -2.3599999999999999E-002     5.3284710429029563E-015
  -2.3550000000000001E-002     4.5601702827979027E-015
  -2.3500000000000000E-002     3.0756566138200642E-015
  -2.3449999999999999E-002     9.8951445873625091E-016
  -2.3400000000000001E-002    -1.4880656209974544E-015
  -2.3349999999999999E-002    -4.0684513932681101E-015
  -2.3300000000000001E-002    -6.4143720165755483E-015
  -2.3250000000000000E-002    -8.1798450853204494E-015
  -2.3199999999999998E-002    -9.0560245844904463E-015
  -2.3150000000000000E-002    -8.8174807615073551E-015
  -2.3099999999999999E-002    -7.3626692129766155E-015
  -2.3050000000000001E-002    -4.7423864751834046E-015
  -2.3000000000000000E-002    -1.1709063863217047E-015
  -2.2950000000000002E-002     2.9837865867136671E-015
  -2.2900000000000000E-002     7.2317716486192339E-015
  -2.2849999999999999E-002     1.1013205229974322E-014
  -2.2800000000000001E-002     1.3765790827267389E-014
  -2.2749999999999999E-002     1.5000293996828318E-014
  -2.2700000000000001E-002     1.4374746195382655E-014
  -2.2650000000000000E-002     1.1757136828143556E-014
  -2.2599999999999999E-002     7.2668855096303248E-015
  -2.2550000000000001E-002     1.2872149409962490E-015
  -2.2499999999999999E-002    -5.5563835140700489E-015
  -2.2450000000000001E-002    -1.2452367973232766E-014
  -2.2400000000000000E-002    -1.8490271059967695E-014
  -2.2349999999999998E-002    -2.2770547055746916E-014
  -2.2300000000000000E-002    -2.4525084956838427E-014
  -2.2249999999999999E-002    -2.3233672737968687E-014
  -2.2200000000000001E-002    -1.8720677542777367E-014
  -2.2150000000000000E-002    -1.1217047642686352E-014
  -2.2100000000000002E-002    -1.3756531263710075E-015
  -2.2050000000000000E-002     9.7673456588080442E-015
  -2.1999999999999999E-002     2.0886166981923589E-014
  -2.1950000000000001E-002     3.0508112891003903E-014
  -2.1899999999999999E-002     3.7192183761498976E-014
  -2.1850000000000001E-002     3.9724046154470322E-014
  -2.1800000000000000E-002     3.7303332781500072E-014
  -2.1749999999999999E-002     2.9697272604598246E-014
  -2.1700000000000001E-002     1.7335961009598550E-014
  -2.1649999999999999E-002     1.3295554299597794E-015
  -2.1600000000000001E-002    -1.6604184910524162E-014
  -2.1550000000000000E-002    -3.4302515341637834E-014
  -2.1499999999999998E-002    -4.9398789001323854E-014
  -2.1450000000000000E-002    -5.9617819957443937E-014
  -2.1399999999999999E-002    -6.3091108222004557E-014
  -2.1350000000000001E-002    -5.8650789364474095E-014
  -2.1299999999999999E-002    -4.6059654293929000E-014
  -2.1250000000000002E-002    -2.6138841794329216E-014
  -2.1200000000000000E-002    -7.6524277454921814E-016
  -2.1149999999999999E-002     2.7274176828063227E-014
  -2.1100000000000001E-002     5.4564844406614133E-014
  -2.1049999999999999E-002     7.7458648841094600E-014
  -2.1000000000000001E-002     9.2535907094349343E-014
  -2.0950000000000000E-002     9.7079018405719357E-014
  -2.0899999999999998E-002     8.9494956595745026E-014
  -2.0850000000000000E-002     6.9625585611625678E-014
  -2.0799999999999999E-002     3.8895325699025873E-014
  -2.0750000000000001E-002     2.6353182752742616E-016
  -2.0700000000000000E-002    -4.2027297599550771E-014
  -2.0649999999999998E-002    -8.2890349241713034E-014
  -2.0600000000000000E-002    -1.1697713834591267E-013
  -2.0549999999999999E-002    -1.3933944252450039E-013
  -2.0500000000000001E-002    -1.4609156436130292E-013
  -2.0449999999999999E-002    -1.3498844875844504E-013
  -2.0400000000000001E-002    -1.0584087803473097E-013
  -2.0350000000000000E-002    -6.0704035595828051E-014
  -2.0299999999999999E-002    -3.8002915445319252E-015
  -2.0250000000000001E-002     5.8832461334943341E-014
  -2.0199999999999999E-002     1.1994246650745480E-013
  -2.0150000000000001E-002     1.7185941958847044E-013
  -2.0100000000000000E-002     2.0739909868411921E-013
  -2.0049999999999998E-002     2.2077561545735798E-013
  -2.0000000000000000E-002     2.0841115356935924E-013
  -1.9949999999999999E-002     1.6953919436529256E-013
  -1.9900000000000001E-002     1.0651463755201945E-013
  -1.9850000000000000E-002     2.4773942426891651E-014
  -1.9799999999999998E-002    -6.7573750806429837E-014
  -1.9750000000000000E-002    -1.6050204322232798E-013
  -1.9699999999999999E-002    -2.4310296597708939E-013
  -1.9650000000000001E-002    -3.0480146731864908E-013
  -1.9599999999999999E-002    -3.3661827222651273E-013
  -1.9550000000000001E-002    -3.3233713446771515E-013
  -1.9500000000000000E-002    -2.8943383033237306E-013
  -1.9449999999999999E-002    -2.0964209163860503E-013
  -1.9400000000000001E-002    -9.9065419238469823E-014
  -1.9349999999999999E-002     3.2210283490385854E-014
  -1.9300000000000001E-002     1.7099439320069934E-013
  -1.9250000000000000E-002     3.0229266705043106E-013
  -1.9199999999999998E-002     4.1091037092447035E-013
  -1.9150000000000000E-002     4.8319261801729022E-013
  -1.9099999999999999E-002     5.0870658395150524E-013
  -1.9050000000000001E-002     4.8166144336161065E-013
  -1.9000000000000000E-002     4.0187692414498296E-013
  -1.8949999999999998E-002     2.7514855210668166E-013
  -1.8900000000000000E-002     1.1291763643786711E-013
  -1.8849999999999999E-002    -6.8766568853490632E-014
  -1.8800000000000001E-002    -2.5092034014888526E-013
  -1.8749999999999999E-002    -4.1377268668807750E-013
  -1.8700000000000001E-002    -5.3915086668953598E-013
  -1.8650000000000000E-002    -6.1281552105680664E-013
  -1.8599999999999998E-002    -6.2643548031786511E-013
  -1.8550000000000001E-002    -5.7891365945157499E-013
  -1.8499999999999999E-002    -4.7683573664555209E-013
  -1.8450000000000001E-002    -3.3391237076027234E-013
  -1.8400000000000000E-002    -1.6941082074271086E-013
  -1.8349999999999998E-002    -5.7145787037191645E-015
  -1.8300000000000000E-002     1.3472061931376419E-013
  -1.8249999999999999E-002     2.3263472753391947E-013
  -1.8200000000000001E-002     2.7501448700649248E-013
  -1.8149999999999999E-002     2.5747757784446212E-013
  -1.8100000000000002E-002     1.8559742408595943E-013
  -1.8050000000000000E-002     7.4892133453017156E-014
  -1.7999999999999999E-002    -5.0636181750098021E-014
  -1.7950000000000001E-002    -1.6133264007552053E-013
  -1.7899999999999999E-002    -2.2581945720033826E-013
  -1.7850000000000001E-002    -2.1558537639396074E-013
  -1.7800000000000000E-002    -1.0967362711775599E-013
  -1.7749999999999998E-002     1.0114177689643023E-013
  -1.7700000000000000E-002     4.1127287224598996E-013
  -1.7649999999999999E-002     7.9881200637859554E-013
  -1.7600000000000001E-002     1.2259143649668546E-012
  -1.7550000000000000E-002     1.6411703053330311E-012
  -1.7499999999999998E-002     1.9838441488877605E-012
  -1.7450000000000000E-002     2.1896311383847832E-012
  -1.7399999999999999E-002     2.1974150982327207E-012
  -1.7350000000000001E-002     1.9563749311831194E-012
  -1.7299999999999999E-002     1.4327536571035460E-012
  -1.7250000000000001E-002     6.1561586292471422E-013
  -1.7200000000000000E-002    -4.7897832463192269E-013
  -1.7149999999999999E-002    -1.8058036912373502E-012
  -1.7100000000000001E-002    -3.2905352996971989E-012
  -1.7049999999999999E-002    -4.8320769967060776E-012
  -1.7000000000000001E-002    -6.3069701606813124E-012
  -1.6950000000000000E-002    -7.5755170406755386E-012
  -1.6899999999999998E-002    -8.4891166479678824E-012
  -1.6850000000000000E-002    -8.8982126891275722E-012
  -1.6799999999999999E-002    -8.6602008367314126E-012
  -1.6750000000000001E-002    -7.6466759345570771E-012
  -1.6700000000000000E-002    -5.7494322341070361E-012
  -1.6649999999999998E-002    -2.8847622422095694E-012
  -1.6600000000000000E-002     1.0042263914448780E-012
  -1.6549999999999999E-002     5.9474468107523679E-012
  -1.6500000000000001E-002     1.1949715177294550E-011
  -1.6449999999999999E-002     1.8994457644844322E-011
  -1.6400000000000001E-002     2.7048742502778416E-011
  -1.6350000000000000E-002     3.6069075932362185E-011
  -1.6299999999999999E-002     4.6007245017060766E-011
  -1.6250000000000001E-002     5.6815506182135291E-011
  -1.6199999999999999E-002     6.8450455599493919E-011
  -1.6150000000000001E-002     8.0875051906001427E-011
  -1.6100000000000000E-002     9.4058551223406743E-011
  -1.6049999999999998E-002     1.0797421653768973E-010
  -1.6000000000000000E-002     1.2259526100629060E-010
  -1.5949999999999999E-002     1.3788944896490491E-010
  -1.5900000000000001E-002     1.5381334017207001E-010
  -1.5850000000000000E-002     1.7030709822112153E-010
  -1.5799999999999998E-002     1.8729095108998083E-010
  -1.5750000000000000E-002     2.0466414203162655E-010
  -1.5699999999999999E-002     2.2230695365829383E-010
  -1.5650000000000001E-002     2.4008612280903115E-010
  -1.5599999999999999E-002     2.5786327826743785E-010
  -1.5550000000000001E-002     2.7550582744446670E-010
  -1.5500000000000000E-002     2.9289877521254459E-010
  -1.5449999999999998E-002     3.0995649628597203E-010
  -1.5400000000000000E-002     3.2663268474602288E-010
  -1.5349999999999999E-002     3.4292683949987725E-010
  -1.5300000000000001E-002     3.5888674859419289E-010
  -1.5250000000000000E-002     3.7460575587933231E-010
  -1.5199999999999998E-002     3.9021556432533238E-010
  -1.5150000000000000E-002     4.0587451094415015E-010
  -1.5099999999999999E-002     4.2175355461087184E-010
  -1.5050000000000001E-002     4.3802052953129732E-010
  -1.4999999999999999E-002     4.5482534620048228E-010
  -1.4949999999999998E-002     4.7228730324443831E-010
  -1.4900000000000000E-002     4.9048671781685767E-010
  -1.4849999999999999E-002     5.0946085377048225E-010
  -1.4800000000000001E-002     5.2920505754277975E-010
  -1.4749999999999999E-002     5.4967843241663499E-010
  -1.4700000000000001E-002     5.7081363135257374E-010
  -1.4650000000000000E-002     5.9252888749974117E-010
  -1.4599999999999998E-002     6.1474093690931030E-010
  -1.4550000000000000E-002     6.3737725130172966E-010
  -1.4499999999999999E-002     6.6038648459560958E-010
  -1.4450000000000001E-002     6.8374569314230681E-010
  -1.4400000000000000E-002     7.0746439131560954E-010
  -1.4349999999999998E-002     7.3158446766249670E-010
  -1.4300000000000000E-002     7.5617708991839350E-010
  -1.4249999999999999E-002     7.8133671948148016E-010
  -1.4200000000000001E-002     8.0717315105697137E-010
  -1.4149999999999999E-002     8.3380225588383915E-010
  -1.4099999999999998E-002     8.6133677373992894E-010
  -1.4050000000000000E-002     8.8987710125117410E-010
  -1.3999999999999999E-002     9.1950343887204411E-010
  -1.3950000000000001E-002     9.5026936392442846E-010
  -1.3899999999999999E-002     9.8219786021791097E-010
  -1.3850000000000001E-002     1.0152793616700105E-009
  -1.3800000000000000E-002     1.0494728976678703E-009
  -1.3749999999999998E-002     1.0847098923688532E-009
  -1.3700000000000000E-002     1.1209010417677261E-009
  -1.3649999999999999E-002     1.1579459987874977E-009
  -1.3600000000000001E-002     1.1957444549638695E-009
  -1.3550000000000000E-002     1.2342093373109892E-009
  -1.3499999999999998E-002     1.2732793679527158E-009
  -1.3450000000000000E-002     1.3129303841229804E-009
  -1.3399999999999999E-002     1.3531837862457430E-009
  -1.3350000000000001E-002     1.3941114199303328E-009
  -1.3299999999999999E-002     1.4358352387110294E-009
  -1.3249999999999998E-002     1.4785215819934519E-009
  -1.3200000000000000E-002     1.5223703456459728E-009
  -1.3149999999999998E-002     1.5675996312591861E-009
  -1.3100000000000001E-002     1.6144279738637706E-009
  -1.3049999999999999E-002     1.6630559388473688E-009
  -1.3000000000000001E-002     1.7136492767321476E-009
  -1.2950000000000000E-002     1.7663257795190795E-009
  -1.2899999999999998E-002     1.8211475941979675E-009
  -1.2850000000000000E-002     1.8781195856086145E-009
  -1.2799999999999999E-002     1.9371951808252143E-009