  -4.0000000000000001E-002     0.0000000000000000     
  -3.9949999999999999E-002     0.0000000000000000     
  -3.9899999999999998E-002     0.0000000000000000     
  -3.9850000000000003E-002     0.0000000000000000     
  -3.9800000000000002E-002     0.0000000000000000     
  -3.9750000000000001E-002     0.0000000000000000     
  -3.9699999999999999E-002     0.0000000000000000     
  -3.9649999999999998E-002     0.0000000000000000     
  -3.9600000000000003E-002     0.0000000000000000     
  -3.9550000000000002E-002     0.0000000000000000     
  -3.9500000000000000E-002     0.0000000000000000     
  -3.9449999999999999E-002     0.0000000000000000     
  -3.9399999999999998E-002     0.0000000000000000     
  -3.9350000000000003E-002     0.0000000000000000     
  -3.9300000000000002E-002     0.0000000000000000     
  -3.9250000000000000E-002     0.0000000000000000     
  -3.9199999999999999E-002     0.0000000000000000     
  -3.9150000000000004E-002     0.0000000000000000     
  -3.9100000000000003E-002     0.0000000000000000     
  -3.9050000000000001E-002     0.0000000000000000     
  -3.9000000000000000E-002     0.0000000000000000     
  -3.8949999999999999E-002     0.0000000000000000     
  -3.8900000000000004E-002     0.0000000000000000     
  -3.8850000000000003E-002     0.0000000000000000     
  -3.8800000000000001E-002     0.0000000000000000     
  -3.8750000000000000E-002     0.0000000000000000     
  -3.8699999999999998E-002     0.0000000000000000     
  -3.8650000000000004E-002     0.0000000000000000     
  -3.8600000000000002E-002     0.0000000000000000     
  -3.8550000000000001E-002     0.0000000000000000     
  -3.8500000000000000E-002     0.0000000000000000     
  -3.8449999999999998E-002     0.0000000000000000     
  -3.8400000000000004E-002     0.0000000000000000     
  -3.8350000000000002E-002     0.0000000000000000     
  -3.8300000000000001E-002     0.0000000000000000     
  -3.8249999999999999E-002     0.0000000000000000     
  -3.8199999999999998E-002     0.0000000000000000     
  -3.8150000000000003E-002     0.0000000000000000     
  -3.8100000000000002E-002     0.0000000000000000     
  -3.8050000000000000E-002     0.0000000000000000     
  -3.7999999999999999E-002     0.0000000000000000     
  -3.7949999999999998E-002     0.0000000000000000     
  -3.7900000000000003E-002     0.0000000000000000     
  -3.7850000000000002E-002     0.0000000000000000     
  -3.7800000000000000E-002     0.0000000000000000     
  -3.7749999999999999E-002     0.0000000000000000     
  -3.7699999999999997E-002     0.0000000000000000     
  -3.7650000000000003E-002     0.0000000000000000     
  -3.7600000000000001E-002     0.0000000000000000     
  -3.7550000000000000E-002     0.0000000000000000     
  -3.7499999999999999E-002     0.0000000000000000     
  -3.7449999999999997E-002     0.0000000000000000     
  -3.7400000000000003E-002     0.0000000000000000     
  -3.7350000000000001E-002     0.0000000000000000     
  -3.7300000000000000E-002     0.0000000000000000     
  -3.7249999999999998E-002     0.0000000000000000     
  -3.7200000000000004E-002     0.0000000000000000     
  -3.7150000000000002E-002     0.0000000000000000     
  -3.7100000000000001E-002     0.0000000000000000     
  -3.7050000000000000E-002     0.0000000000000000     
  -3.6999999999999998E-002     0.0000000000000000     
  -3.6950000000000004E-002     0.0000000000000000     
  -3.6900000000000002E-002     0.0000000000000000     
  -3.6850000000000001E-002     0.0000000000000000     
  -3.6799999999999999E-002     0.0000000000000000     
  -3.6749999999999998E-002     0.0000000000000000     
  -3.6700000000000003E-002     0.0000000000000000     
  -3.6650000000000002E-002     0.0000000000000000     
  -3.6600000000000001E-002     0.0000000000000000     
  -3.6549999999999999E-002     0.0000000000000000     
  -3.6499999999999998E-002     0.0000000000000000     
  -3.6450000000000003E-002     0.0000000000000000     
  -3.6400000000000002E-002     0.0000000000000000     
  -3.6350000000000000E-002     0.0000000000000000     
  -3.6299999999999999E-002     0.0000000000000000     
  -3.6249999999999998E-002     0.0000000000000000     
  -3.6200000000000003E-002     0.0000000000000000     
  -3.6150000000000002E-002     0.0000000000000000     
  -3.6100000000000000E-002     0.0000000000000000     
  -3.6049999999999999E-002     0.0000000000000000     
  -3.6000000000000004E-002     0.0000000000000000     
  -3.5950000000000003E-002     0.0000000000000000     
  -3.5900000000000001E-002     0.0000000000000000     
  -3.5850000000000000E-002     0.0000000000000000     
  -3.5799999999999998E-002     0.0000000000000000     
  -3.5750000000000004E-002     0.0000000000000000     
  -3.5700000000000003E-002     0.0000000000000000     
  -3.5650000000000001E-002     0.0000000000000000     
  -3.5600000000000000E-002     0.0000000000000000     
  -3.5549999999999998E-002     0.0000000000000000     
  -3.5500000000000004E-002     0.0000000000000000     
  -3.5450000000000002E-002     0.0000000000000000     
  -3.5400000000000001E-002     0.0000000000000000     
  -3.5349999999999999E-002     0.0000000000000000     
  -3.5299999999999998E-002     0.0000000000000000     
  -3.5250000000000004E-002     0.0000000000000000     
  -3.5200000000000002E-002     0.0000000000000000     
  -3.5150000000000001E-002     0.0000000000000000     
  -3.5099999999999999E-002     0.0000000000000000     
  -3.5049999999999998E-002     0.0000000000000000     
  -3.5000000000000003E-002     0.0000000000000000     
  -3.4950000000000002E-002    -1.3611346819147758E-039
  -3.4900000000000000E-002    -2.6877139004228061E-039
  -3.4849999999999999E-002    -2.6877139004228061E-039
  -3.4799999999999998E-002    -1.1961007070600713E-039
  -3.4750000000000003E-002     4.1219910975161454E-039
  -3.4700000000000002E-002     1.1874466925265398E-038
  -3.4650000000000000E-002     2.1905831504114457E-038
  -3.4599999999999999E-002     3.2269838655062784E-038
  -3.4549999999999997E-002     3.9123987977245720E-038
  -3.4500000000000003E-002     2.5829511071344050E-038
  -3.4450000000000001E-002    -1.5351685639296633E-038
  -3.4400000000000000E-002    -7.7186999029646171E-038
  -3.4349999999999999E-002    -1.6778184723493397E-037
  -3.4299999999999997E-002    -2.8386478803606484E-037
  -3.4250000000000003E-002    -3.8038760487411352E-037
  -3.4200000000000001E-002    -4.0852880657274312E-037
  -3.4150000000000000E-002    -2.8565154481356553E-037
  -3.4099999999999998E-002     2.8462117330997409E-038
  -3.4049999999999997E-002     5.7294152325989674E-037
  -3.4000000000000002E-002     1.2851984425931226E-036
  -3.3950000000000001E-002     2.0609481786114687E-036
  -3.3900000000000000E-002     2.6458933266487009E-036
  -3.3849999999999998E-002     2.7032776333869413E-036
  -3.3799999999999997E-002     1.8670856012651063E-036
  -3.3750000000000002E-002    -1.3034030142954263E-037
  -3.3700000000000001E-002    -3.3055880638947885E-036
  -3.3649999999999999E-002    -7.2696510934296407E-036
  -3.3599999999999998E-002    -1.1165540673772483E-035
  -3.3550000000000003E-002    -1.3714637875584651E-035
  -3.3500000000000002E-002    -1.3462132458871615E-035
  -3.3450000000000001E-002    -9.1967641858123575E-036
  -3.3399999999999999E-002    -4.6371276401037547E-037
  -3.3349999999999998E-002     1.1995366303308550E-035
  -3.3300000000000003E-002     2.6085416913632178E-035
  -3.3250000000000002E-002     3.8662342596899461E-035
  -3.3200000000000000E-002     4.6341941060178870E-035
  -3.3149999999999999E-002     4.6635903750199187E-035
  -3.3099999999999997E-002     3.8993250293584641E-035
  -3.3050000000000003E-002     2.5175345851468822E-035
  -3.3000000000000002E-002     8.4650539662580927E-036
  -3.2950000000000000E-002    -8.4098050033990586E-036
  -3.2899999999999999E-002    -2.6098529332830608E-035
  -3.2850000000000004E-002    -5.0905634815593033E-035
  -3.2800000000000003E-002    -9.4742474615903219E-035
  -3.2750000000000001E-002    -1.7113842818725001E-034
  -3.2700000000000000E-002    -2.8681855173219135E-034
  -3.2649999999999998E-002    -4.3038751080729316E-034
  -3.2600000000000004E-002    -5.6208307848801032E-034
  -3.2550000000000003E-002    -6.1037755791975691E-034
  -3.2500000000000001E-002    -4.8120979439125623E-034
  -3.2450000000000000E-002    -8.2904586654463241E-035
  -3.2399999999999998E-002     6.3563585740414380E-034
  -3.2350000000000004E-002     1.6427833271482919E-033
  -3.2300000000000002E-002     2.7930897486072959E-033
  -3.2250000000000001E-002     3.8235470510451834E-033
  -3.2199999999999999E-002     4.3879606094492106E-033
  -3.2149999999999998E-002     4.1278170896597191E-033
  -3.2100000000000004E-002     2.7623560035377068E-033
  -3.2050000000000002E-002     1.6840930955264669E-034
  -3.2000000000000001E-002    -3.5800693598936835E-033
  -3.1949999999999999E-002    -8.2266688550812203E-033
  -3.1899999999999998E-002    -1.3384057329965971E-032
  -3.1850000000000003E-002    -1.8570430478820292E-032
  -3.1800000000000002E-002    -2.3161028091426391E-032
  -3.1750000000000000E-002    -2.6206148629796123E-032
  -3.1699999999999999E-002    -2.6140295016606794E-032
  -3.1649999999999998E-002    -2.0523057158742670E-032
  -3.1600000000000003E-002    -6.0718025155677652E-033
  -3.1550000000000002E-002     2.0697269123228318E-032
  -3.1500000000000000E-002     6.1983991759660889E-032
  -3.1449999999999999E-002     1.1640693412008925E-031
  -3.1399999999999997E-002     1.7636614685967761E-031
  -3.1350000000000003E-002     2.2604470932495420E-031
  -3.1300000000000001E-002     2.4140373071318599E-031
  -3.1250000000000000E-002     1.9352585495466725E-031
  -3.1199999999999999E-002     5.6080474789643720E-032
  -3.1150000000000001E-002    -1.8354150140808745E-031
  -3.1100000000000003E-002    -5.1156292150556923E-031
  -3.1050000000000001E-002    -8.7746217077494119E-031
  -3.1000000000000000E-002    -1.1908088291580924E-030
  -3.0949999999999998E-002    -1.3299041670557333E-030
  -3.0900000000000000E-002    -1.1647854888755626E-030
  -3.0850000000000002E-002    -5.9337748229850653E-031
  -3.0800000000000001E-002     4.1524483062309188E-031
  -3.0750000000000000E-002     1.7810751162993602E-030
  -3.0699999999999998E-002     3.2901754167375884E-030
  -3.0650000000000000E-002     4.6011610851740925E-030
  -3.0600000000000002E-002     5.2892796136988819E-030
  -3.0550000000000001E-002     4.9280100977032055E-030
  -3.0499999999999999E-002     3.1979534360713047E-030
  -3.0449999999999998E-002     3.1808327396296534E-033
  -3.0400000000000000E-002    -4.4311722686970134E-030
  -3.0350000000000002E-002    -9.5074569773740638E-030
  -3.0300000000000001E-002    -1.4272902888528360E-029
  -3.0249999999999999E-002    -1.7518841986307837E-029
  -3.0200000000000001E-002    -1.7962036117789869E-029
  -3.0150000000000000E-002    -1.4494687233006995E-029
  -3.0100000000000002E-002    -6.4765135087861044E-030
  -3.0050000000000000E-002     5.9703708370014346E-030
  -2.9999999999999999E-002     2.1715561440152338E-029
  -2.9950000000000001E-002     3.8487428710257619E-029
  -2.9899999999999999E-002     5.2925927184930490E-029
  -2.9850000000000002E-002     6.0892878151800599E-029
  -2.9800000000000000E-002     5.8090185541291872E-029
  -2.9749999999999999E-002     4.0986344336012845E-029
  -2.9700000000000001E-002     7.9678886314025991E-030
  -2.9650000000000003E-002    -3.9475564037018861E-029
  -2.9600000000000001E-002    -9.5832302736614123E-029
  -2.9550000000000000E-002    -1.5128501002309011E-028
  -2.9499999999999998E-002    -1.9241829704489339E-028
  -2.9450000000000000E-002    -2.0414067279181888E-028
  -2.9400000000000003E-002    -1.7278535571989080E-028
  -2.9350000000000001E-002    -9.0003537967860021E-029
  -2.9300000000000000E-002     4.3299568893478115E-029
  -2.9249999999999998E-002     2.1399988594840192E-028
  -2.9200000000000000E-002     3.9582735081114247E-028
  -2.9150000000000002E-002     5.5130777174215841E-028
  -2.9100000000000001E-002     6.3688330936093425E-028
  -2.9049999999999999E-002     6.1080485959260350E-028
  -2.8999999999999998E-002     4.4265284458647390E-028
  -2.8950000000000000E-002     1.2279004341228368E-028
  -2.8900000000000002E-002    -3.3015104542745057E-028
  -2.8850000000000001E-002    -8.6543258449558119E-028
  -2.8799999999999999E-002    -1.4011706724855670E-027
  -2.8749999999999998E-002    -1.8305656360366432E-027
  -2.8700000000000000E-002    -2.0333292644489311E-027
  -2.8650000000000002E-002    -1.8919511888530798E-027
  -2.8600000000000000E-002    -1.3123861089117570E-027
  -2.8549999999999999E-002    -2.4859097810490574E-028
  -2.8500000000000001E-002     1.2703861853003192E-027
  -2.8450000000000000E-002     3.1137997780883126E-027
  -2.8400000000000002E-002     5.0289554061108648E-027
  -2.8350000000000000E-002     6.6365417043038937E-027
  -2.8299999999999999E-002     7.4533112710136647E-027
  -2.8250000000000001E-002     6.9536351228639476E-027
  -2.8200000000000003E-002     4.6764402720250822E-027
  -2.8150000000000001E-002     3.7309178257161902E-028
  -2.8100000000000000E-002    -5.8244635514560163E-027
  -2.8049999999999999E-002    -1.3254443300605714E-026
  -2.8000000000000001E-002    -2.0649175908410634E-026
  -2.7950000000000003E-002    -2.6191278331010035E-026
  -2.7900000000000001E-002    -2.7748716649673349E-026
  -2.7850000000000000E-002    -2.3302187848705366E-026
  -2.7799999999999998E-002    -1.1526125862860148E-026
  -2.7750000000000000E-002     7.5778260017366090E-027
  -2.7700000000000002E-002     3.2152555463142678E-026
  -2.7650000000000001E-002     5.8251638758924401E-026
  -2.7600000000000000E-002     8.0075703333947708E-026
  -2.7549999999999998E-002     9.0785689828733275E-026
  -2.7500000000000000E-002     8.3875791041705154E-026
  -2.7450000000000002E-002     5.4928673766337634E-026
  -2.7400000000000001E-002     3.4145651570741133E-027
  -2.7349999999999999E-002    -6.5921225264007308E-026
  -2.7299999999999998E-002    -1.4256490891477241E-025
  -2.7250000000000000E-002    -2.1102247081602948E-025
  -2.7200000000000002E-002    -2.5305415224546674E-025
  -2.7150000000000001E-002    -2.5119605937897009E-025
  -2.7099999999999999E-002    -1.9304791282901227E-025
  -2.7049999999999998E-002    -7.5491392477242739E-026
  -2.7000000000000000E-002     9.2173639764604805E-026
  -2.6950000000000002E-002     2.8715248867460187E-025
  -2.6900000000000000E-002     4.7484194747630167E-025
  -2.6849999999999999E-002     6.1348822535322998E-025
  -2.6800000000000001E-002     6.6140160608192973E-025
  -2.6749999999999999E-002     5.8567869522072422E-025
  -2.6700000000000002E-002     3.7089064313254548E-025
  -2.6650000000000000E-002     2.5965585134222710E-026
  -2.6599999999999999E-002    -4.1239986818599766E-025
  -2.6550000000000001E-002    -8.8101151401964008E-025
  -2.6500000000000003E-002    -1.2966255077366590E-024
  -2.6450000000000001E-002    -1.5672055724674971E-024
  -2.6400000000000000E-002    -1.6067744255972353E-024
  -2.6349999999999998E-002    -1.3519506815828722E-024
  -2.6300000000000000E-002    -7.7781419119104123E-025
  -2.6250000000000002E-002     8.9424250263271851E-026
  -2.6200000000000001E-002     1.1653704080659276E-024
  -2.6150000000000000E-002     2.3081052264532358E-024
  -2.6099999999999998E-002     3.3281054298253504E-024
  -2.6050000000000000E-002     4.0082015393784828E-024
  -2.6000000000000002E-002     4.1332679924830722E-024
  -2.5950000000000001E-002     3.5278983598117665E-024
  -2.5899999999999999E-002     2.0984729754653214E-024
  -2.5849999999999998E-002    -1.2606881634265432E-025
  -2.5800000000000000E-002    -2.9624319990739835E-024
  -2.5750000000000002E-002    -6.0592256409934494E-024
  -2.5700000000000001E-002    -8.9103610006841196E-024
  -2.5649999999999999E-002    -1.0902695992642282E-023
  -2.5599999999999998E-002    -1.1400533906575577E-023
  -2.5550000000000000E-002    -9.8626695060661777E-024
  -2.5500000000000002E-002    -5.9789864584784226E-024
  -2.5450000000000000E-002     1.9531494856696439E-025
  -2.5399999999999999E-002     8.1369412773185367E-024
  -2.5349999999999998E-002     1.6815238127146464E-023
  -2.5300000000000000E-002     2.4745163451495492E-023
  -2.5250000000000002E-002     3.0150357108826746E-023
  -2.5200000000000000E-002     3.1235806850702613E-023
  -2.5149999999999999E-002     2.6545802653873664E-023
  -2.5100000000000001E-002     1.5357195799540396E-023
  -2.5049999999999999E-002    -1.9641025222895342E-024
  -2.5000000000000001E-002    -2.3728279522383498E-023
  -2.4950000000000000E-002    -4.6891444106337340E-023
  -2.4899999999999999E-002    -6.7293010784906092E-023
  -2.4850000000000001E-002    -8.0184721865434418E-023
  -2.4800000000000003E-002    -8.1021313341375651E-023
  -2.4750000000000001E-002    -6.6420825912602931E-023
  -2.4700000000000000E-002    -3.5143806636667963E-023
  -2.4649999999999998E-002     1.1101909870311599E-023
  -2.4600000000000000E-002     6.7237695021647958E-023
  -2.4550000000000002E-002     1.2495346670598364E-022
  -2.4500000000000001E-002     1.7352287014075881E-022
  -2.4450000000000000E-002     2.0129916200797403E-022
  -2.4399999999999998E-002     1.9776089520079691E-022
  -2.4350000000000000E-002     1.5583566869735145E-022
  -2.4299999999999999E-002     7.4108724008761763E-023
  -2.4250000000000001E-002    -4.1545953556778400E-023
  -2.4199999999999999E-002    -1.7736809223244479E-022
  -2.4150000000000001E-002    -3.1250379698098900E-022
  -2.4100000000000000E-002    -4.2135223562818319E-022
  -2.4049999999999998E-002    -4.7736051463897050E-022
  -2.4000000000000000E-002    -4.5785406431666428E-022
  -2.3949999999999999E-002    -3.4919668063796853E-022
  -2.3900000000000001E-002    -1.5135867275187085E-022
  -2.3850000000000000E-002     1.1910668204545152E-022
  -2.3800000000000002E-002     4.2857943421405159E-022
  -2.3750000000000000E-002     7.2898647331713573E-022
  -2.3699999999999999E-002     9.6364548865653338E-022
  -2.3650000000000001E-002     1.0758874890969097E-021
  -2.3599999999999999E-002     1.0193964798877795E-021
  -2.3550000000000001E-002     7.6869019580140378E-022
  -2.3500000000000000E-002     3.2785147057023703E-022
  -2.3449999999999999E-002    -2.6438835956243261E-022
  -2.3400000000000001E-002    -9.3478368587338995E-022
  -2.3349999999999999E-002    -1.5818234255306502E-021
  -2.3300000000000001E-002    -2.0880588500423153E-021
  -2.3250000000000000E-002    -2.3374130116319710E-021
  -2.3199999999999998E-002    -2.2353492457370806E-021
  -2.3150000000000000E-002    -1.7289657014440404E-021
  -2.3099999999999999E-002    -8.2365670961180649E-022
  -2.3050000000000001E-002     4.0696746405015325E-022
  -2.3000000000000000E-002     1.8206182837840297E-021
  -2.2950000000000002E-002     3.2169632647746687E-021
  -2.2900000000000000E-002     4.3595264951679478E-021
  -2.2849999999999999E-002     5.0073375138856410E-021
  -2.2800000000000001E-002     4.9531088749736980E-021
  -2.2749999999999999E-002     4.0632198309303411E-021
  -2.2700000000000001E-002     2.3137075242995392E-021
  -2.2650000000000000E-002    -1.8400852616392479E-022
  -2.2599999999999999E-002    -3.1736254613607073E-021
  -2.2550000000000001E-002    -6.2654282839002122E-021
  -2.2499999999999999E-002    -8.9713685107245296E-021
  -2.2450000000000001E-002    -1.0763357664355779E-020
  -2.2400000000000000E-002    -1.1150713322329664E-020
  -2.2349999999999998E-002    -9.7687124859619004E-021
  -2.2300000000000000E-002    -6.4664303471952170E-021
  -2.2249999999999999E-002    -1.3792334347558139E-021
  -2.2200000000000001E-002     5.0298588165108274E-021
  -2.2150000000000000E-002     1.1974429568999919E-020
  -2.2100000000000002E-002     1.8404830771657117E-020
  -2.2050000000000000E-002     2.3127373793780388E-020
  -2.1999999999999999E-002     2.4975896030220133E-020
  -2.1950000000000001E-002     2.3018088610706663E-020
  -2.1899999999999999E-002     1.6768222697446720E-020
  -2.1850000000000001E-002     6.3699234428249805E-021
  -2.1800000000000000E-002    -7.2907251119144975E-021
  -2.1749999999999999E-002    -2.2577869102311105E-020
  -2.1700000000000001E-002    -3.7229421604497931E-020
  -2.1649999999999999E-002    -4.8618099737126456E-020
  -2.1600000000000001E-002    -5.4132723929334743E-020
  -2.1550000000000000E-002    -5.1636587718660577E-020
  -2.1499999999999998E-002    -3.9936595745387283E-020
  -2.1450000000000000E-002    -1.9181046527574728E-020
  -2.1399999999999999E-002     8.8996099981670660E-021
  -2.1350000000000001E-002     4.0982777982144680E-020
  -2.1299999999999999E-002     7.2420847148431946E-020
  -2.1250000000000002E-002     9.7790294814185689E-020
  -2.1200000000000000E-002     1.1167789842460389E-019
  -2.1149999999999999E-002     1.0960882903049140E-019
  -2.1100000000000001E-002     8.8979603702139097E-020
  -2.1049999999999999E-002     4.9834360913466710E-020
  -2.1000000000000001E-002    -4.6760777135898890E-021
  -2.0950000000000000E-002    -6.8284700058005058E-020
  -2.0899999999999998E-002    -1.3212311432956024E-019
  -2.0850000000000000E-002    -1.8575813492194692E-019
  -2.0799999999999999E-002    -2.1865786010114384E-019
  -2.0750000000000001E-002    -2.2190882205838673E-019
  -2.0700000000000000E-002    -1.8993798284849624E-019
  -2.0649999999999998E-002    -1.2195622368637873E-019
  -2.0600000000000000E-002    -2.2846790120162349E-020
  -2.0549999999999999E-002     9.6726496030067845E-020
  -2.0500000000000001E-002     2.2112111840582831E-019
  -2.0449999999999999E-002     3.3142939352686047E-019
  -2.0400000000000001E-002     4.0796171720126158E-019
  -2.0350000000000000E-002     4.3321713841958986E-019
  -2.0299999999999999E-002     3.9494760218047458E-019
  -2.0250000000000001E-002     2.8885585908857273E-019
  -2.0199999999999999E-002     1.2046310426627499E-019
  -2.0150000000000001E-002    -9.4250929243471040E-020
  -2.0100000000000000E-002    -3.2970283887763444E-019
  -2.0049999999999998E-002    -5.5313378999998439E-019
  -2.0000000000000000E-002    -7.2847174623055753E-019
  -1.9949999999999999E-002    -8.2125862193838883E-019
  -1.9900000000000001E-002    -8.0407202455908696E-019
  -1.9850000000000000E-002    -6.6171942887765532E-019
  -1.9799999999999998E-002    -3.9541613437076223E-019
  -1.9750000000000000E-002    -2.5187437459722197E-020
  -1.9699999999999999E-002     4.1012236039204333E-019
  -1.9650000000000001E-002     8.5560609253461885E-019
  -1.9599999999999999E-002     1.2458554200634218E-018
  -1.9550000000000001E-002     1.5129702651732402E-018
  -1.9500000000000000E-002     1.5962555883359430E-018
  -1.9449999999999999E-002     1.4524716200876630E-018
  -1.9400000000000001E-002     1.0652274705435648E-018
  -1.9349999999999999E-002     4.5198625420755426E-019
  -1.9300000000000001E-002    -3.3277885310073785E-019
  -1.9250000000000000E-002    -1.1994328113683571E-018
  -1.9199999999999998E-002    -2.0306536976104239E-018
  -1.9150000000000000E-002    -2.6944263424879037E-018
  -1.9099999999999999E-002    -3.0615779168682507E-018
  -1.9050000000000001E-002    -3.0260006063120259E-018
  -1.9000000000000000E-002    -2.5249296110323078E-018
  -1.8949999999999998E-002    -1.5561312187151642E-018
  -1.8900000000000000E-002    -1.8875457278302496E-019
  -1.8849999999999999E-002     1.4350212991609624E-018
  -1.8800000000000001E-002     3.1094709777131246E-018
  -1.8749999999999999E-002     4.5864328901200165E-018
  -1.8700000000000001E-002     5.6067527584045284E-018
  -1.8650000000000000E-002     5.9388630043470269E-018
  -1.8599999999999998E-002     5.4195554507464689E-018
  -1.8550000000000001E-002     3.9907828535748830E-018
  -1.8499999999999999E-002     1.7259057768349765E-018
  -1.8450000000000001E-002    -1.1605796436585179E-018
  -1.8400000000000000E-002    -4.3241071950171721E-018
  -1.8349999999999998E-002    -7.3234315112250314E-018
  -1.8300000000000000E-002    -9.6745175606979921E-018
  -1.8249999999999999E-002    -1.0919416469265741E-017
  -1.8200000000000001E-002    -1.0701396652579443E-017
  -1.8149999999999999E-002    -8.8352548614030461E-018
  -1.8100000000000002E-002    -5.3609478849018368E-018
  -1.8050000000000000E-002    -5.6970122727935215E-019
  -1.7999999999999999E-002     5.0053079901177158E-018
  -1.7950000000000001E-002     1.0636992238994909E-017
  -1.7899999999999999E-002     1.5488696089639203E-017
  -1.7850000000000001E-002     1.8726416108177745E-017
  -1.7800000000000000E-002     1.9645073370183826E-017
  -1.7749999999999998E-002     1.7791242707296610E-017
  -1.7700000000000000E-002     1.3063240479286093E-017
  -1.7649999999999999E-002     5.7708715965899118E-018
  -1.7600000000000001E-002    -3.3587441407161491E-018
  -1.7550000000000000E-002    -1.3236185166918034E-017
  -1.7499999999999998E-002    -2.2524203550350850E-017
  -1.7450000000000000E-002    -2.9801454396656218E-017
  -1.7399999999999999E-002    -3.3757210550982484E-017
  -1.7350000000000001E-002    -3.3392468376293870E-017
  -1.7299999999999999E-002    -2.8199752830076255E-017
  -1.7250000000000001E-002    -1.8294095603808262E-017
  -1.7200000000000000E-002    -4.4718658432367903E-018
  -1.7149999999999999E-002     1.1818435331160935E-017
  -1.7100000000000001E-002     2.8598858529281693E-017
  -1.7049999999999999E-002     4.3571920342353465E-017
  -1.7000000000000001E-002     5.4399137085972457E-017
  -1.6950000000000000E-002     5.9018788883887486E-017
  -1.6899999999999998E-002     5.5965068566152515E-017
  -1.6850000000000000E-002     4.4646229518360515E-017
  -1.6799999999999999E-002     2.5539581004291947E-017
  -1.6750000000000001E-002     2.6673725282878685E-019
  -1.6700000000000000E-002    -2.8476787787839519E-017
  -1.6649999999999998E-002    -5.7147961065422300E-017
  -1.6600000000000000E-002    -8.1729650733314929E-017
  -1.6549999999999999E-002    -9.8221559274359652E-017
  -1.6500000000000001E-002    -1.0319844616605417E-016
  -1.6449999999999999E-002    -9.4369074568487870E-017
  -1.6400000000000001E-002    -7.1058304793734640E-017
  -1.6350000000000000E-002    -3.4533278507397309E-017
  -1.6299999999999999E-002     1.1896196405035475E-017
  -1.6250000000000001E-002     6.3052041976376723E-017
  -1.6199999999999999E-002     1.1235456994255880E-016
  -1.6150000000000001E-002     1.5255928949049756E-016
  -1.6100000000000000E-002     1.7669870550826459E-016
  -1.6049999999999998E-002     1.7912289607529444E-016
  -1.6000000000000000E-002     1.5650134284333399E-016
  -1.5949999999999999E-002     1.0863262464818813E-016
  -1.5900000000000001E-002     3.8913260482888956E-017
  -1.5850000000000000E-002    -4.5653593957214833E-017
  -1.5799999999999998E-002    -1.3497829872056229E-016
  -1.5750000000000000E-002    -2.1693106891505392E-016
  -1.5699999999999999E-002    -2.7883211287922817E-016
  -1.5650000000000001E-002    -3.0922423399062738E-016
  -1.5599999999999999E-002    -2.9970057620854675E-016
  -1.5550000000000001E-002    -2.4652188324192602E-016
  -1.5500000000000000E-002    -1.5175409151601455E-016
  -1.5449999999999998E-002    -2.3695329655793189E-017
  -1.5400000000000000E-002     1.2355895770368999E-016
  -1.5349999999999999E-002     2.7145242921476500E-016
  -1.5300000000000001E-002     3.9911476154848744E-016
  -1.5250000000000000E-002     4.8609452810130000E-016
  -1.5199999999999998E-002     5.1534230242798665E-016
  -1.5150000000000000E-002     4.7603358208140330E-016
  -1.5099999999999999E-002     3.6580299779403765E-016
  -1.5050000000000001E-002     1.9200394808331101E-016
  -1.4999999999999999E-002    -2.8286129243269812E-017
  -1.4949999999999998E-002    -2.6964012816439557E-016
  -1.4900000000000000E-002    -5.0097132137136536E-016
  -1.4849999999999999E-002    -6.8928183469309396E-016
  -1.4800000000000001E-002    -8.0404161368311273E-016
  -1.4749999999999999E-002    -8.2164213466781234E-016
  -1.4700000000000001E-002    -7.2931752620684304E-016
  -1.4650000000000000E-002    -5.2794900164530866E-016
  -1.4599999999999998E-002    -2.3327760812802454E-016
  -1.4550000000000000E-002     1.2477365782576089E-016
  -1.4499999999999999E-002     5.0473383719648973E-016
  -1.4450000000000001E-002     8.5799201022368466E-016
  -1.4400000000000000E-002     1.1345493509548680E-015
  -1.4349999999999998E-002     1.2894826937419310E-015
  -1.4300000000000000E-002     1.2893481882104216E-015
  -1.4249999999999999E-002     1.1177015935918649E-015
  -1.4200000000000001E-002     7.7895463129084320E-016
  -1.4149999999999999E-002     2.9992746338606532E-016
  -1.4099999999999998E-002    -2.7131811336511761E-016
  -1.4050000000000000E-002    -8.6948450844958368E-016
  -1.3999999999999999E-002    -1.4186710198904636E-015
  -1.3950000000000001E-002    -1.8410763779751512E-015
  -1.3899999999999999E-002    -2.0669040457531434E-015
  -1.3850000000000001E-002    -2.0443520924530835E-015
  -1.3800000000000000E-002    -1.7484273321814004E-015
  -1.3749999999999998E-002    -1.1873150309711140E-015
  -1.3700000000000000E-002    -4.0518124415542913E-016
  -1.3649999999999999E-002     5.1941090227305392E-016
  -1.3600000000000001E-002     1.4798167175874617E-015
  -1.3550000000000000E-002     2.3521445266871991E-015
  -1.3499999999999998E-002     3.0097499886026659E-015
  -1.3450000000000000E-002     3.3399165789924596E-015
  -1.3399999999999999E-002     3.2607458662720910E-015
  -1.3350000000000001E-002     2.7359674167762866E-015
  -1.3299999999999999E-002     1.7853501079408609E-015
  -1.3249999999999998E-002     4.8869184213850579E-016
  -1.3200000000000000E-002    -1.0179942288675080E-015
  -1.3149999999999998E-002    -2.5545567014398503E-015
  -1.3100000000000001E-002    -3.9163740478441396E-015
  -1.3049999999999999E-002    -4.8997629948533216E-015
  -1.3000000000000001E-002    -5.3302063591696625E-015
  -1.2950000000000000E-002    -5.0897165873911573E-015
  -1.2899999999999998E-002    -4.1393353470735295E-015
  -1.2850000000000000E-002    -2.5330104187694973E-015
  -1.2799999999999999E-002    -4.1993994450158297E-016