  -4.0000000000000001E-002     0.0000000000000000     
  -3.9949999999999999E-002     0.0000000000000000     
  -3.9899999999999998E-002     0.0000000000000000     
  -3.9850000000000003E-002     0.0000000000000000     
  -3.9800000000000002E-002     0.0000000000000000     
  -3.9750000000000001E-002     0.0000000000000000     
  -3.9699999999999999E-002     0.0000000000000000     
  -3.9649999999999998E-002     0.0000000000000000     
  -3.9600000000000003E-002     0.0000000000000000     
  -3.9550000000000002E-002     0.0000000000000000     
  -3.9500000000000000E-002     0.0000000000000000     
  -3.9449999999999999E-002     0.0000000000000000     
  -3.9399999999999998E-002    -7.3465557011681974E-036
  -3.9350000000000003E-002    -1.6462706148158315E-034
  -3.9300000000000002E-002    -1.8658896172268760E-033
  -3.9250000000000000E-002    -1.4208279774484283E-032
  -3.9199999999999999E-002    -8.1385169202023249E-032
  -3.9150000000000004E-002    -3.7184591959030854E-031
  -3.9100000000000003E-002    -1.4004543310180220E-030
  -3.9050000000000001E-002    -4.4199058891562375E-030
  -3.9000000000000000E-002    -1.1705569328314704E-029
  -3.8949999999999999E-002    -2.5467791822838196E-029
  -3.8900000000000004E-002    -4.2044395760859801E-029
  -3.8850000000000003E-002    -3.5152092540179091E-029
  -3.8800000000000001E-002     7.9172311684440357E-029
  -3.8750000000000000E-002     4.9607966317508224E-028
  -3.8699999999999998E-002     1.5670748802189415E-027
  -3.8650000000000004E-002     3.7518431516378066E-027
  -3.8600000000000002E-002     7.3042084020164332E-027
  -3.8550000000000001E-002     1.1442955742306310E-026
  -3.8500000000000000E-002     1.2798569455795479E-026
  -3.8449999999999998E-002     3.2641096250627728E-027
  -3.8400000000000004E-002    -3.1786700798697530E-026
  -3.8350000000000002E-002    -1.1255320440623883E-025
  -3.8300000000000001E-002    -2.5714956636846374E-025
  -3.8249999999999999E-002    -4.6244745223362909E-025
  -3.8199999999999998E-002    -6.7053488674089356E-025
  -3.8150000000000003E-002    -7.2486126357792013E-025
  -3.8100000000000002E-002    -3.3374054273044700E-025
  -3.8050000000000000E-002     9.2218398607234502E-025
  -3.7999999999999999E-002     3.4844384989048714E-024
  -3.7949999999999998E-002     7.5569659300736962E-024
  -3.7900000000000003E-002     1.2668419899495967E-023
  -3.7850000000000002E-002     1.7117752151442869E-023
  -3.7800000000000000E-002     1.7504642259857928E-023
  -3.7749999999999999E-002     8.7132534567065466E-024
  -3.7699999999999997E-002    -1.5162242338061546E-023
  -3.7650000000000003E-002    -5.8504312877632866E-023
  -3.7600000000000001E-002    -1.2035654466933548E-022
  -3.7550000000000000E-002    -1.8968697638602207E-022
  -3.7499999999999999E-002    -2.4130401810496134E-022
  -3.7449999999999997E-002    -2.3500745693386120E-022
  -3.7400000000000003E-002    -1.2106785105365487E-022
  -3.7350000000000001E-002     1.4550115025414227E-022
  -3.7300000000000000E-002     5.8170367625511232E-022
  -3.7249999999999998E-002     1.1481830754611666E-021
  -3.7200000000000004E-002     1.7244664032342788E-021
  -3.7150000000000002E-002     2.1007392842279653E-021
  -3.7100000000000001E-002     1.9999986364386302E-021
  -3.7050000000000000E-002     1.1398357190142974E-021
  -3.6999999999999998E-002    -6.6802344583545263E-022
  -3.6950000000000004E-002    -3.3985348185829317E-021
  -3.6900000000000002E-002    -6.7093803455786010E-021
  -3.6850000000000001E-002    -9.8974156261062974E-021
  -3.6799999999999999E-002    -1.1957203396570236E-020
  -3.6749999999999998E-002    -1.1761703292294967E-020
  -3.6700000000000003E-002    -8.3475727278601243E-021
  -3.6650000000000002E-002    -1.2440491201302882E-021
  -3.6600000000000001E-002     9.2483931565119477E-021
  -3.6549999999999999E-002     2.1927846807108068E-020
  -3.6499999999999998E-002     3.4773454650930824E-020
  -3.6450000000000003E-002     4.5237228061949428E-020
  -3.6400000000000002E-002     5.0664042885291760E-020
  -3.6350000000000000E-002     4.8706738055460076E-020
  -3.6299999999999999E-002     3.7611632346063100E-020
  -3.6249999999999998E-002     1.6331796516726467E-020
  -3.6200000000000003E-002    -1.5443077133979240E-020
  -3.6150000000000002E-002    -5.7134075377403454E-020
  -3.6100000000000000E-002    -1.0677243254004366E-019
  -3.6049999999999999E-002    -1.6006977744956951E-019
  -3.6000000000000004E-002    -2.0928571235875753E-019
  -3.5950000000000003E-002    -2.4249197393787145E-019
  -3.5900000000000001E-002    -2.4408529295084623E-019
  -3.5850000000000000E-002    -1.9731872952521248E-019
  -3.5799999999999998E-002    -8.9066281973755003E-020
  -3.5750000000000004E-002     8.3942929975201834E-020
  -3.5700000000000003E-002     3.0929067612927348E-019
  -3.5650000000000001E-002     5.5603421059326854E-019
  -3.5600000000000000E-002     7.7728485923806614E-019
  -3.5549999999999998E-002     9.1920686848342229E-019
  -3.5500000000000004E-002     9.3498415094382545E-019
  -3.5450000000000002E-002     7.9956400286180548E-019
  -3.5400000000000001E-002     5.1920478216157859E-019
  -3.5349999999999999E-002     1.3029538576889250E-019
  -3.5299999999999998E-002    -3.1475672218174653E-019
  -3.5250000000000004E-002    -7.7105140511004184E-019
  -3.5200000000000002E-002    -1.2244087725317279E-018
  -3.5150000000000001E-002    -1.7007605532849638E-018
  -3.5099999999999999E-002    -2.2497863379631004E-018
  -3.5049999999999998E-002    -2.8992547256375723E-018
  -3.5000000000000003E-002    -3.5905304050213835E-018
  -3.4950000000000002E-002    -4.1208210207549044E-018
  -3.4900000000000000E-002    -4.1271926958933155E-018
  -3.4849999999999999E-002    -3.1442760754913667E-018
  -3.4799999999999998E-002    -7.4814037944616876E-019
  -3.4750000000000003E-002     3.2347583691891743E-018
  -3.4700000000000002E-002     8.5129854051333773E-018
  -3.4650000000000000E-002     1.4197373525628927E-017
  -3.4599999999999999E-002     1.8839487127837317E-017
  -3.4549999999999997E-002     2.0696022463145938E-017
  -3.4500000000000003E-002     1.8204351257254677E-017
  -3.4450000000000001E-002     1.0566708424315051E-017
  -3.4400000000000000E-002    -1.7356564920783601E-018
  -3.4349999999999999E-002    -1.6707690877819315E-017
  -3.4299999999999997E-002    -3.1053506543416411E-017
  -3.4250000000000003E-002    -4.0888237981226717E-017
  -3.4200000000000001E-002    -4.2830372494187591E-017
  -3.4150000000000000E-002    -3.5185553763480515E-017
  -3.4099999999999998E-002    -1.8826497285897898E-017
  -3.4049999999999997E-002     2.6116960611597575E-018
  -3.4000000000000002E-002     2.3441735535218958E-017
  -3.3950000000000001E-002     3.7481310015765847E-017
  -3.3900000000000000E-002     4.0077778178634846E-017
  -3.3849999999999998E-002     2.9969078328335921E-017
  -3.3799999999999997E-002     1.0277026572787925E-017
  -3.3750000000000002E-002    -1.1898472740713809E-017
  -3.3700000000000001E-002    -2.7411421240422077E-017
  -3.3649999999999999E-002    -2.8120368166173532E-017
  -3.3599999999999998E-002    -1.0157749538840644E-017
  -3.3550000000000003E-002     2.3741710755231976E-017
  -3.3500000000000002E-002     6.3898052467758669E-017
  -3.3450000000000001E-002     9.5851903072938283E-017
  -3.3399999999999999E-002     1.0474761098549812E-016
  -3.3349999999999998E-002     8.0774612345987418E-017
  -3.3300000000000003E-002     2.3893055425125200E-017
  -3.3250000000000002E-002    -5.4023085337819723E-017
  -3.3200000000000000E-002    -1.3093131447652093E-016
  -3.3149999999999999E-002    -1.8042500038185238E-016
  -3.3099999999999997E-002    -1.8035465690551909E-016
  -3.3050000000000003E-002    -1.2178029584472831E-016
  -3.3000000000000002E-002    -1.5159125475654375E-017
  -3.2950000000000000E-002     1.0897791981157158E-016
  -3.2899999999999999E-002     2.0624920245545928E-016
  -3.2850000000000004E-002     2.3085161017304167E-016
  -3.2800000000000003E-002     1.5127218001975563E-016
  -3.2750000000000001E-002    -3.5300262692530136E-017
  -3.2700000000000000E-002    -2.9489095849444966E-016
  -3.2649999999999998E-002    -5.5889333424611392E-016
  -3.2600000000000004E-002    -7.3780238224801943E-016
  -3.2550000000000003E-002    -7.4443605545847200E-016
  -3.2500000000000001E-002    -5.2121736281135758E-016
  -3.2450000000000000E-002    -6.3909120958994584E-017
  -3.2399999999999998E-002     5.6597140936816398E-016
  -3.2350000000000004E-002     1.2456431494031006E-015
  -3.2300000000000002E-002     1.8138289322441944E-015
  -3.2250000000000001E-002     2.1079575151693713E-015
  -3.2199999999999999E-002     2.0071699070039653E-015
  -3.2149999999999998E-002     1.4696747975337715E-015
  -3.2100000000000004E-002     5.5320365195485790E-016
  -3.2050000000000002E-002    -5.8909731500382572E-016
  -3.2000000000000001E-002    -1.7387381925052564E-015
  -3.1949999999999999E-002    -2.6619392975104348E-015
  -3.1899999999999998E-002    -3.1672948998042995E-015
  -3.1850000000000003E-002    -3.1553131554939687E-015
  -3.1800000000000002E-002    -2.6451290359263864E-015
  -3.1750000000000000E-002    -1.7692436316430739E-015
  -3.1699999999999999E-002    -7.3601893867151590E-016
  -3.1649999999999998E-002     2.3057140448118320E-016
  -3.1600000000000003E-002     9.5670699511029880E-016
  -3.1550000000000002E-002     1.3697106299497186E-015
  -3.1500000000000000E-002     1.5170514417834759E-015
  -3.1449999999999999E-002     1.5450001007529871E-015
  -3.1399999999999997E-002     1.6410166263134674E-015
  -3.1350000000000003E-002     1.9563217855015908E-015
  -3.1300000000000001E-002     2.5334494103103603E-015
  -3.1250000000000000E-002     3.2646965602537673E-015
  -3.1199999999999999E-002     3.9001278254215059E-015
  -3.1150000000000001E-002     4.1095179328062821E-015
  -3.1100000000000003E-002     3.5851742914219879E-015
  -3.1050000000000001E-002     2.1572198489384433E-015
  -3.1000000000000000E-002    -1.1510454082042935E-016
  -3.0949999999999998E-002    -2.9098110232533378E-015
  -3.0900000000000000E-002    -5.6859539427792123E-015
  -3.0850000000000002E-002    -7.8026314173151151E-015
  -3.0800000000000001E-002    -8.6869820153860277E-015
  -3.0750000000000000E-002    -8.0063621262003306E-015
  -3.0699999999999998E-002    -5.7930610552452649E-015
  -3.0650000000000000E-002    -2.4782821966561694E-015
  -3.0600000000000002E-002     1.1851992302108978E-015
  -3.0550000000000001E-002     4.3009829357997647E-015
  -3.0499999999999999E-002     6.0655645153441049E-015
  -3.0449999999999998E-002     5.9997998085917376E-015
  -3.0400000000000000E-002     4.1072428306415754E-015
  -3.0350000000000002E-002     9.0700974990957422E-016
  -3.0300000000000001E-002    -2.6783906812667532E-015
  -3.0249999999999999E-002    -5.5583074355696174E-015
  -3.0200000000000001E-002    -6.7721872637404501E-015
  -3.0150000000000000E-002    -5.7675540952277249E-015
  -3.0100000000000002E-002    -2.5748677440205901E-015
  -3.0050000000000000E-002     2.1781224016786096E-015
  -2.9999999999999999E-002     7.4251385987003131E-015
  -2.9950000000000001E-002     1.1953840182766565E-014
  -2.9899999999999999E-002     1.4749030470896518E-014
  -2.9850000000000002E-002     1.5282604666037544E-014
  -2.9800000000000000E-002     1.3656144054115141E-014
  -2.9749999999999999E-002     1.0542579504379722E-014
  -2.9700000000000001E-002     6.9341610492646574E-015
  -2.9650000000000003E-002     3.7681302802038558E-015
  -2.9600000000000001E-002     1.5486397041407174E-015
  -2.9550000000000000E-002     9.7025080760613393E-017
  -2.9499999999999998E-002    -1.4652397165906483E-015
  -2.9450000000000000E-002    -4.4615039222716241E-015
  -2.9400000000000003E-002    -1.0178984083375524E-014
  -2.9350000000000001E-002    -1.9289687784695466E-014
  -2.9300000000000000E-002    -3.1352383318929188E-014
  -2.9249999999999998E-002    -4.4576513304394350E-014
  -2.9200000000000000E-002    -5.5973709510540373E-014
  -2.9150000000000002E-002    -6.1921748510082551E-014
  -2.9100000000000001E-002    -5.9043048208310132E-014
  -2.9049999999999999E-002    -4.5191220606275820E-014
  -2.8999999999999998E-002    -2.0277874988973795E-014
  -2.8950000000000000E-002     1.3317900104555990E-014
  -2.8900000000000002E-002     5.0928686768473673E-014
  -2.8850000000000001E-002     8.6392119948173197E-014
  -2.8799999999999999E-002     1.1331592517499594E-013
  -2.8749999999999998E-002     1.2652681499551520E-013
  -2.8700000000000000E-002     1.2333691517724671E-013
  -2.8650000000000002E-002     1.0427874484932145E-013
  -2.8600000000000000E-002     7.3074884602303015E-014
  -2.8549999999999999E-002     3.5797990057286175E-014
  -2.8500000000000001E-002    -6.0704018861218666E-016
  -2.8450000000000000E-002    -3.0082819363689679E-014
  -2.8400000000000002E-002    -4.9045091716466708E-014
  -2.8350000000000000E-002    -5.7357436158972615E-014
  -2.8299999999999999E-002    -5.8396398701922187E-014
  -2.8250000000000001E-002    -5.8135702798969757E-014
  -2.8200000000000003E-002    -6.3437115951204164E-014
  -2.8150000000000001E-002    -7.9957105168440791E-014
  -2.8100000000000000E-002    -1.1020061208895195E-013
  -2.8049999999999999E-002    -1.5223936266655229E-013
  -2.8000000000000001E-002    -1.9946281977624342E-013
  -2.7950000000000003E-002    -2.4147736628579058E-013
  -2.7900000000000001E-002    -2.6598552435534893E-013
  -2.7850000000000000E-002    -2.6122978245758672E-013
  -2.7799999999999998E-002    -2.1844761427052384E-013
  -2.7750000000000000E-002    -1.3378910786251483E-013
  -2.7700000000000002E-002    -9.2949776328639870E-015
  -2.7650000000000001E-002     1.4722114222142244E-013
  -2.7600000000000000E-002     3.2326656879550416E-013
  -2.7549999999999998E-002     5.0339177639096252E-013
  -2.7500000000000000E-002     6.7107708744510996E-013
  -2.7450000000000002E-002     8.1034403823124368E-013
  -2.7400000000000001E-002     9.0680600289360033E-013
  -2.7349999999999999E-002     9.4810272118143170E-013
  -2.7299999999999998E-002     9.2389773875805996E-013
  -2.7250000000000000E-002     8.2577645307694296E-013
  -2.7200000000000002E-002     6.4741562698687610E-013
  -2.7150000000000001E-002     3.8528772464473862E-013
  -2.7099999999999999E-002     3.9946830652019942E-014
  -2.7049999999999998E-002    -3.8231210794668034E-013
  -2.7000000000000000E-002    -8.6784135375263131E-013
  -2.6950000000000002E-002    -1.3945883876022044E-012
  -2.6900000000000000E-002    -1.9320541995760869E-012
  -2.6849999999999999E-002    -2.4425035907711812E-012
  -2.6800000000000001E-002    -2.8833696760802626E-012
  -2.6749999999999999E-002    -3.2105042988799168E-012
  -2.6700000000000002E-002    -3.3817320676721656E-012
  -2.6650000000000000E-002    -3.3601310596475746E-012
  -2.6599999999999999E-002    -3.1166284045316376E-012
  -2.6550000000000001E-002    -2.6317839608328726E-012
  -2.6500000000000003E-002    -1.8969785496738035E-012
  -2.6450000000000001E-002    -9.1549143553580046E-013
  -2.6400000000000000E-002     2.9597492083000201E-013
  -2.6349999999999998E-002     1.7049234826995591E-012
  -2.6300000000000000E-002     3.2598304081022851E-012
  -2.6250000000000002E-002     4.8865877985197207E-012
  -2.6200000000000001E-002     6.4856484981472853E-012
  -2.6150000000000000E-002     7.9312662961121892E-012
  -2.6099999999999998E-002     9.0742287642164905E-012
  -2.6050000000000000E-002     9.7491320407762544E-012
  -2.6000000000000002E-002     9.7865411484146707E-012
  -2.5950000000000001E-002     9.0294347228994727E-012
  -2.5899999999999999E-002     7.3524616141654406E-012
  -2.5849999999999998E-002     4.6817869766066904E-012
  -2.5800000000000000E-002     1.0130601059291012E-012
  -2.5750000000000002E-002    -3.5747656805406472E-012
  -2.5700000000000001E-002    -8.9113533242082006E-012
  -2.5649999999999999E-002    -1.4733232695863611E-011
  -2.5599999999999998E-002    -2.0687941800549971E-011
  -2.5550000000000000E-002    -2.6342766917236590E-011
  -2.5500000000000002E-002    -3.1196388083697606E-011
  -2.5450000000000000E-002    -3.4691803793850655E-011
  -2.5399999999999999E-002    -3.6229503679399049E-011
  -2.5349999999999998E-002    -3.5180752557344696E-011
  -2.5300000000000000E-002    -3.0901648416847232E-011
  -2.5250000000000002E-002    -2.2749243014183519E-011
  -2.5200000000000000E-002    -1.0101081380563627E-011
  -2.5149999999999999E-002     7.6210687956200513E-012
  -2.5100000000000001E-002     3.0923609711327794E-011
  -2.5049999999999999E-002     6.0211151568151191E-011
  -2.5000000000000001E-002     9.5757365219806599E-011
  -2.4950000000000000E-002     1.3768005612085671E-010
  -2.4899999999999999E-002     1.8592473776123049E-010
  -2.4850000000000001E-002     2.4025971773287346E-010
  -2.4800000000000003E-002     3.0028465814727905E-010
  -2.4750000000000001E-002     3.6545221724874742E-010
  -2.4700000000000000E-002     4.3510104444021144E-010
  -2.4649999999999998E-002     5.0849626475857406E-010
  -2.4600000000000000E-002     5.8487330342148442E-010
  -2.4550000000000002E-002     6.6347950619831612E-010
  -2.4500000000000001E-002     7.4361083208623290E-010
  -2.4450000000000000E-002     8.2464057060550212E-010
  -2.4399999999999998E-002     9.0603884906195728E-010
  -2.4350000000000000E-002     9.8738451240884795E-010
  -2.4299999999999999E-002     1.0683695816005789E-009
  -2.4250000000000001E-002     1.1487993016431965E-009
  -2.4199999999999999E-002     1.2285883823383432E-009
  -2.4150000000000001E-002     1.3077545743404982E-009
  -2.4100000000000000E-002     1.3864096961922714E-009
  -2.4049999999999998E-002     1.4647474628877026E-009
  -2.4000000000000000E-002     1.5430271705321056E-009
  -2.3949999999999999E-002     1.6215540242675929E-009
  -2.3900000000000001E-002     1.7006559846553258E-009
  -2.3850000000000000E-002     1.7806593193505900E-009
  -2.3800000000000002E-002     1.8618650000799635E-009
  -2.3750000000000000E-002     1.9445290980475996E-009
  -2.3699999999999999E-002     2.0288489482012173E-009
  -2.3650000000000001E-002     2.1149564003839309E-009
  -2.3599999999999999E-002     2.2029201355162657E-009
  -2.3550000000000001E-002     2.2927522512687200E-009
  -2.3500000000000000E-002     2.3844201368700872E-009
  -2.3449999999999999E-002     2.4778595671873819E-009
  -2.3400000000000001E-002     2.5729869112778893E-009
  -2.3349999999999999E-002     2.6697107804824631E-009
  -2.3300000000000001E-002     2.7679423035338225E-009
  -2.3250000000000000E-002     2.8676059580724851E-009
  -2.3199999999999998E-002     2.9686524910247835E-009
  -2.3150000000000000E-002     3.0710766750545409E-009
  -2.3099999999999999E-002     3.1749370027355095E-009
  -2.3050000000000001E-002     3.2803788459302303E-009
  -2.3000000000000000E-002     3.3876538025071951E-009
  -2.2950000000000002E-002     3.4971334032671204E-009
  -2.2900000000000000E-002     3.6093058293259525E-009
  -2.2849999999999999E-002     3.7247597714711600E-009
  -2.2800000000000001E-002     3.8441458395494371E-009
  -2.2749999999999999E-002     3.9681222831053956E-009
  -2.2700000000000001E-002     4.0972903597516646E-009
  -2.2650000000000000E-002     4.2321279394037945E-009
  -2.2599999999999999E-002     4.3729332370533776E-009
  -2.2550000000000001E-002     4.5197857814260478E-009
  -2.2499999999999999E-002     4.6725344998479894E-009
  -2.2450000000000001E-002     4.8308176432411314E-009
  -2.2400000000000000E-002     4.9941065495242388E-009
  -2.2349999999999998E-002     5.1617721607564312E-009
  -2.2300000000000000E-002     5.3331631643083506E-009
  -2.2249999999999999E-002     5.5076785266832175E-009
  -2.2200000000000001E-002     5.6848351737896603E-009
  -2.2150000000000000E-002     5.8643136860113778E-009
  -2.2100000000000002E-002     6.0459827245704053E-009
  -2.2050000000000000E-002     6.2299054911845806E-009
  -2.1999999999999999E-002     6.4163271091167639E-009
  -2.1950000000000001E-002     6.6056550305452710E-009
  -2.1899999999999999E-002     6.7984353087982442E-009
  -2.1850000000000001E-002     6.9953290036925340E-009
  -2.1800000000000000E-002     7.1970898031996475E-009
  -2.1749999999999999E-002     7.4045405754621983E-009
  -2.1700000000000001E-002     7.6185495675966278E-009
  -2.1649999999999999E-002     7.8399923905552157E-009
  -2.1600000000000001E-002     8.0697121793797337E-009
  -2.1550000000000000E-002     8.3084681933570029E-009
  -2.1499999999999998E-002     8.5568768205927761E-009
  -2.1450000000000000E-002     8.8153628583700625E-009
  -2.1399999999999999E-002     9.0841171908743795E-009
  -2.1350000000000001E-002     9.3630808661034092E-009
  -2.1299999999999999E-002     9.6519466419801396E-009
  -2.1250000000000002E-002     9.9501991476778488E-009
  -2.1200000000000000E-002     1.0257169128976729E-008
  -2.1149999999999999E-002     1.0572116638692847E-008
  -2.1100000000000001E-002     1.0894307197091832E-008
  -2.1049999999999999E-002     1.1223099566749642E-008
  -2.1000000000000001E-002     1.1558009674607899E-008
  -2.0950000000000000E-002     1.1898763869265736E-008
  -2.0899999999999998E-002     1.2245331141081448E-008
  -2.0850000000000000E-002     1.2597931034774900E-008
  -2.0799999999999999E-002     1.2957032173566258E-008
  -2.0750000000000001E-002     1.3323337953845418E-008
  -2.0700000000000000E-002     1.3697755877859546E-008
  -2.0649999999999998E-002     1.4081367037757036E-008
  -2.0600000000000000E-002     1.4475377585631982E-008
  -2.0549999999999999E-002     1.4881066051225119E-008
  -2.0500000000000001E-002     1.5299716436207992E-008
  -2.0449999999999999E-002     1.5732540473132400E-008
  -2.0400000000000001E-002     1.6180598613199889E-008
  -2.0350000000000000E-002     1.6644729530802716E-008
  -2.0299999999999999E-002     1.7125490666778619E-008
  -2.0250000000000001E-002     1.7623127849514412E-008
  -2.0199999999999999E-002     1.8137584904808767E-008
  -2.0150000000000001E-002     1.8668538625335002E-008
  -2.0100000000000000E-002     1.9215469910984323E-008
  -2.0049999999999998E-002     1.9777758610427074E-008
  -2.0000000000000000E-002     2.0354772904011702E-008
  -1.9949999999999999E-002     2.0945955240508663E-008
  -1.9900000000000001E-002     2.1550884345481004E-008
  -1.9850000000000000E-002     2.2169303022880225E-008
  -1.9799999999999998E-002     2.2801114788556562E-008
  -1.9750000000000000E-002     2.3446373981332688E-008
  -1.9699999999999999E-002     2.4105256726609081E-008
  -1.9650000000000001E-002     2.4778046940110896E-008
  -1.9599999999999999E-002     2.5465135865046992E-008
  -1.9550000000000001E-002     2.6167056279946536E-008
  -1.9500000000000000E-002     2.6884520600019887E-008
  -1.9449999999999999E-002     2.7618478271007215E-008
  -1.9400000000000001E-002     2.8370138978135588E-008
  -1.9349999999999999E-002     2.9140979990325021E-008
  -1.9300000000000001E-002     2.9932708885272654E-008
  -1.9250000000000000E-002     3.0747157202088037E-008
  -1.9199999999999998E-002     3.1586158802639692E-008
  -1.9150000000000000E-002     3.2451394744208750E-008
  -1.9099999999999999E-002     3.3344239668222549E-008
  -1.9050000000000001E-002     3.4265657803619409E-008
  -1.9000000000000000E-002     3.5216139494890756E-008
  -1.8949999999999998E-002     3.6195721789166206E-008
  -1.8900000000000000E-002     3.7204061828486952E-008
  -1.8849999999999999E-002     3.8240566936388033E-008
  -1.8800000000000001E-002     3.9304536873198077E-008
  -1.8749999999999999E-002     4.0395320015563974E-008
  -1.8700000000000001E-002     4.1512434943605391E-008
  -1.8650000000000000E-002     4.2655635010682787E-008
  -1.8599999999999998E-002     4.3824932990536398E-008
  -1.8550000000000001E-002     4.5020591690255131E-008
  -1.8499999999999999E-002     4.6243088976424775E-008
  -1.8450000000000001E-002     4.7493081109747058E-008
  -1.8400000000000000E-002     4.8771382769249002E-008
  -1.8349999999999998E-002     5.0078973672159557E-008
  -1.8300000000000000E-002     5.1417020669280763E-008
  -1.8249999999999999E-002     5.2786913235651643E-008
  -1.8200000000000001E-002     5.4190262466973984E-008
  -1.8149999999999999E-002     5.5628875228558339E-008
  -1.8100000000000002E-002     5.7104683466777168E-008
  -1.8050000000000000E-002     5.8619611018308084E-008
  -1.7999999999999999E-002     6.0175437374437788E-008
  -1.7950000000000001E-002     6.1773588138488903E-008
  -1.7899999999999999E-002     6.3415046378020002E-008
  -1.7850000000000001E-002     6.5100259099922869E-008
  -1.7800000000000000E-002     6.6829139790819444E-008
  -1.7749999999999998E-002     6.8601210221584257E-008
  -1.7700000000000000E-002     7.0415732325856216E-008
  -1.7649999999999999E-002     7.2271966174583796E-008
  -1.7600000000000001E-002     7.4169433370796603E-008
  -1.7550000000000000E-002     7.6108049206629268E-008
  -1.7499999999999998E-002     7.8088299747656928E-008
  -1.7450000000000000E-002     8.0111265696634125E-008
  -1.7399999999999999E-002     8.2178570573823012E-008
  -1.7350000000000001E-002     8.4292251672459307E-008
  -1.7299999999999999E-002     8.6454568901777676E-008
  -1.7250000000000001E-002     8.8667883305704179E-008
  -1.7200000000000000E-002     9.0934489705877328E-008
  -1.7149999999999999E-002     9.3256537138681595E-008
  -1.7100000000000001E-002     9.5636017983773981E-008
  -1.7049999999999999E-002     9.8074826202035106E-008
  -1.7000000000000001E-002     1.0057477816870729E-007
  -1.6950000000000000E-002     1.0313772209341403E-007
  -1.6899999999999998E-002     1.0576553474043875E-007
  -1.6850000000000000E-002     1.0846014876149132E-007
  -1.6799999999999999E-002     1.1122348686070036E-007
  -1.6750000000000001E-002     1.1405734903699048E-007
  -1.6700000000000000E-002     1.1696335325890721E-007
  -1.6649999999999998E-002     1.1994280492549521E-007
  -1.6600000000000000E-002     1.2299668205891978E-007
  -1.6549999999999999E-002     1.2612558135271023E-007
  -1.6500000000000001E-002     1.2932979472864368E-007
  -1.6449999999999999E-002     1.3260940017448573E-007
  -1.6400000000000001E-002     1.3596442364458605E-007
  -1.6350000000000000E-002     1.3939493441536112E-007
  -1.6299999999999999E-002     1.4290122378967471E-007
  -1.6250000000000001E-002     1.4648389457547896E-007
  -1.6199999999999999E-002     1.5014391258595674E-007
  -1.6150000000000001E-002     1.5388261541130158E-007
  -1.6100000000000000E-002     1.5770169003029930E-007
  -1.6049999999999998E-002     1.6160304247243251E-007
  -1.6000000000000000E-002     1.6558873786642160E-007
  -1.5949999999999999E-002     1.6966081088640783E-007
  -1.5900000000000001E-002     1.7382118221859602E-007
  -1.5850000000000000E-002     1.7807159118985831E-007
  -1.5799999999999998E-002     1.8241347519642811E-007
  -1.5750000000000000E-002     1.8684804878446783E-007
  -1.5699999999999999E-002     1.9137630783273885E-007
  -1.5650000000000001E-002     1.9599920883931467E-007
  -1.5599999999999999E-002     2.0071777447105158E-007
  -1.5550000000000001E-002     2.0553332657545053E-007
  -1.5500000000000000E-002     2.1044756592509221E-007
  -1.5449999999999998E-002     2.1546275825706158E-007
  -1.5400000000000000E-002     2.2058171145259108E-007
  -1.5349999999999999E-002     2.2580779639090881E-007
  -1.5300000000000001E-002     2.3114483262871369E-007
  -1.5250000000000000E-002     2.3659683890399925E-007
  -1.5199999999999998E-002     2.4216792726072341E-007
  -1.5150000000000000E-002     2.4786210426756961E-007
  -1.5099999999999999E-002     2.5368316579993942E-007
  -1.5050000000000001E-002     2.5963474452182296E-007
  -1.4999999999999999E-002     2.6572024726923770E-007
  -1.4949999999999998E-002     2.7194311822599487E-007
  -1.4900000000000000E-002     2.7830689800339690E-007
  -1.4849999999999999E-002     2.8481541164439843E-007
  -1.4800000000000001E-002     2.9147275580711603E-007
  -1.4749999999999999E-002     2.9828336634541959E-007
  -1.4700000000000001E-002     3.0525164449593757E-007
  -1.4650000000000000E-002     3.1238182871471233E-007
  -1.4599999999999998E-002     3.1967767764291188E-007
  -1.4550000000000000E-002     3.2714214514744091E-007
  -1.4499999999999999E-002     3.3477740099483758E-007
  -1.4450000000000001E-002     3.4258465139449376E-007
  -1.4400000000000000E-002     3.5056441584234765E-007
  -1.4349999999999998E-002     3.5871684072728213E-007
  -1.4300000000000000E-002     3.6704208779067353E-007
  -1.4249999999999999E-002     3.7554059105757644E-007
  -1.4200000000000001E-002     3.8421346036664772E-007
  -1.4149999999999999E-002     3.9306238257054129E-007
  -1.4099999999999998E-002     4.0208957829561580E-007
  -1.4050000000000000E-002     4.1129740788177909E-007
  -1.3999999999999999E-002     4.2068801676673019E-007
  -1.3950000000000001E-002     4.3026292371827526E-007
  -1.3899999999999999E-002     4.4002272478376030E-007
  -1.3850000000000001E-002     4.4996691252292783E-007
  -1.3800000000000000E-002     4.6009410740071515E-007
  -1.3749999999999998E-002     4.7040237518986838E-007
  -1.3700000000000000E-002     4.8088955459291114E-007
  -1.3649999999999999E-002     4.9155404642003691E-007
  -1.3600000000000001E-002     5.0239518454343807E-007
  -1.3550000000000000E-002     5.1341327826372108E-007
  -1.3499999999999998E-002     5.2460987642540224E-007
  -1.3450000000000000E-002     5.3598738899497744E-007
  -1.3399999999999999E-002     5.4754884975129611E-007
  -1.3350000000000001E-002     5.5929725100289280E-007
  -1.3299999999999999E-002     5.7123533680650326E-007
  -1.3249999999999998E-002     5.8336528262761293E-007
  -1.3200000000000000E-002     5.9568880377286929E-007
  -1.3149999999999998E-002     6.0820748189775507E-007
  -1.3100000000000001E-002     6.2092313066425626E-007
  -1.3049999999999999E-002     6.3383862020229930E-007
  -1.3000000000000001E-002     6.4695826458513536E-007
  -1.2950000000000000E-002     6.6028800514456233E-007
  -1.2899999999999998E-002     6.7383564246476817E-007
  -1.2850000000000000E-002     6.8761032752076779E-007
  -1.2799999999999999E-002     7.0162211591709385E-007