  -4.0000000000000001E-002     0.0000000000000000     
  -3.9949999999999999E-002     0.0000000000000000     
  -3.9899999999999998E-002     0.0000000000000000     
  -3.9850000000000003E-002     0.0000000000000000     
  -3.9800000000000002E-002     0.0000000000000000     
  -3.9750000000000001E-002     0.0000000000000000     
  -3.9699999999999999E-002     0.0000000000000000     
  -3.9649999999999998E-002     0.0000000000000000     
  -3.9600000000000003E-002     0.0000000000000000     
  -3.9550000000000002E-002     0.0000000000000000     
  -3.9500000000000000E-002     0.0000000000000000     
  -3.9449999999999999E-002     0.0000000000000000     
  -3.9399999999999998E-002     0.0000000000000000     
  -3.9350000000000003E-002     0.0000000000000000     
  -3.9300000000000002E-002     0.0000000000000000     
  -3.9250000000000000E-002     0.0000000000000000     
  -3.9199999999999999E-002     0.0000000000000000     
  -3.9150000000000004E-002     0.0000000000000000     
  -3.9100000000000003E-002     0.0000000000000000     
  -3.9050000000000001E-002     0.0000000000000000     
  -3.9000000000000000E-002     0.0000000000000000     
  -3.8949999999999999E-002     0.0000000000000000     
  -3.8900000000000004E-002     0.0000000000000000     
  -3.8850000000000003E-002     0.0000000000000000     
  -3.8800000000000001E-002     0.0000000000000000     
  -3.8750000000000000E-002     0.0000000000000000     
  -3.8699999999999998E-002     0.0000000000000000     
  -3.8650000000000004E-002     0.0000000000000000     
  -3.8600000000000002E-002     0.0000000000000000     
  -3.8550000000000001E-002     0.0000000000000000     
  -3.8500000000000000E-002     0.0000000000000000     
  -3.8449999999999998E-002     0.0000000000000000     
  -3.8400000000000004E-002     0.0000000000000000     
  -3.8350000000000002E-002     0.0000000000000000     
  -3.8300000000000001E-002     0.0000000000000000     
  -3.8249999999999999E-002     0.0000000000000000     
  -3.8199999999999998E-002     0.0000000000000000     
  -3.8150000000000003E-002     0.0000000000000000     
  -3.8100000000000002E-002     0.0000000000000000     
  -3.8050000000000000E-002     0.0000000000000000     
  -3.7999999999999999E-002     0.0000000000000000     
  -3.7949999999999998E-002     0.0000000000000000     
  -3.7900000000000003E-002     0.0000000000000000     
  -3.7850000000000002E-002     0.0000000000000000     
  -3.7800000000000000E-002     0.0000000000000000     
  -3.7749999999999999E-002     0.0000000000000000     
  -3.7699999999999997E-002     0.0000000000000000     
  -3.7650000000000003E-002     0.0000000000000000     
  -3.7600000000000001E-002     0.0000000000000000     
  -3.7550000000000000E-002     0.0000000000000000     
  -3.7499999999999999E-002     0.0000000000000000     
  -3.7449999999999997E-002     0.0000000000000000     
  -3.7400000000000003E-002     0.0000000000000000     
  -3.7350000000000001E-002     0.0000000000000000     
  -3.7300000000000000E-002     0.0000000000000000     
  -3.7249999999999998E-002     0.0000000000000000     
  -3.7200000000000004E-002     0.0000000000000000     
  -3.7150000000000002E-002     0.0000000000000000     
  -3.7100000000000001E-002     0.0000000000000000     
  -3.7050000000000000E-002     0.0000000000000000     
  -3.6999999999999998E-002     0.0000000000000000     
  -3.6950000000000004E-002     0.0000000000000000     
  -3.6900000000000002E-002     0.0000000000000000     
  -3.6850000000000001E-002     0.0000000000000000     
  -3.6799999999999999E-002     0.0000000000000000     
  -3.6749999999999998E-002     0.0000000000000000     
  -3.6700000000000003E-002     0.0000000000000000     
  -3.6650000000000002E-002     0.0000000000000000     
  -3.6600000000000001E-002     0.0000000000000000     
  -3.6549999999999999E-002     0.0000000000000000     
  -3.6499999999999998E-002     0.0000000000000000     
  -3.6450000000000003E-002     0.0000000000000000     
  -3.6400000000000002E-002     0.0000000000000000     
  -3.6350000000000000E-002     0.0000000000000000     
  -3.6299999999999999E-002     0.0000000000000000     
  -3.6249999999999998E-002     0.0000000000000000     
  -3.6200000000000003E-002     0.0000000000000000     
  -3.6150000000000002E-002     0.0000000000000000     
  -3.6100000000000000E-002     0.0000000000000000     
  -3.6049999999999999E-002     0.0000000000000000     
  -3.6000000000000004E-002     0.0000000000000000     
  -3.5950000000000003E-002     0.0000000000000000     
  -3.5900000000000001E-002     0.0000000000000000     
  -3.5850000000000000E-002     0.0000000000000000     
  -3.5799999999999998E-002     0.0000000000000000     
  -3.5750000000000004E-002     0.0000000000000000     
  -3.5700000000000003E-002     0.0000000000000000     
  -3.5650000000000001E-002     0.0000000000000000     
  -3.5600000000000000E-002     0.0000000000000000     
  -3.5549999999999998E-002     0.0000000000000000     
  -3.5500000000000004E-002     0.0000000000000000     
  -3.5450000000000002E-002     0.0000000000000000     
  -3.5400000000000001E-002     0.0000000000000000     
  -3.5349999999999999E-002     0.0000000000000000     
  -3.5299999999999998E-002     0.0000000000000000     
  -3.5250000000000004E-002     0.0000000000000000     
  -3.5200000000000002E-002     0.0000000000000000     
  -3.5150000000000001E-002     0.0000000000000000     
  -3.5099999999999999E-002     0.0000000000000000     
  -3.5049999999999998E-002     0.0000000000000000     
  -3.5000000000000003E-002     0.0000000000000000     
  -3.4950000000000002E-002     0.0000000000000000     
  -3.4900000000000000E-002     0.0000000000000000     
  -3.4849999999999999E-002     0.0000000000000000     
  -3.4799999999999998E-002     0.0000000000000000     
  -3.4750000000000003E-002     0.0000000000000000     
  -3.4700000000000002E-002     0.0000000000000000     
  -3.4650000000000000E-002     0.0000000000000000     
  -3.4599999999999999E-002     0.0000000000000000     
  -3.4549999999999997E-002     0.0000000000000000     
  -3.4500000000000003E-002     0.0000000000000000     
  -3.4450000000000001E-002     0.0000000000000000     
  -3.4400000000000000E-002     0.0000000000000000     
  -3.4349999999999999E-002     0.0000000000000000     
  -3.4299999999999997E-002     0.0000000000000000     
  -3.4250000000000003E-002     0.0000000000000000     
  -3.4200000000000001E-002     0.0000000000000000     
  -3.4150000000000000E-002     0.0000000000000000     
  -3.4099999999999998E-002     0.0000000000000000     
  -3.4049999999999997E-002     0.0000000000000000     
  -3.4000000000000002E-002     0.0000000000000000     
  -3.3950000000000001E-002     0.0000000000000000     
  -3.3900000000000000E-002     0.0000000000000000     
  -3.3849999999999998E-002     0.0000000000000000     
  -3.3799999999999997E-002     0.0000000000000000     
  -3.3750000000000002E-002     0.0000000000000000     
  -3.3700000000000001E-002     0.0000000000000000     
  -3.3649999999999999E-002     0.0000000000000000     
  -3.3599999999999998E-002     0.0000000000000000     
  -3.3550000000000003E-002     0.0000000000000000     
  -3.3500000000000002E-002     0.0000000000000000     
  -3.3450000000000001E-002     0.0000000000000000     
  -3.3399999999999999E-002     0.0000000000000000     
  -3.3349999999999998E-002     0.0000000000000000     
  -3.3300000000000003E-002     0.0000000000000000     
  -3.3250000000000002E-002     0.0000000000000000     
  -3.3200000000000000E-002     0.0000000000000000     
  -3.3149999999999999E-002     0.0000000000000000     
  -3.3099999999999997E-002     0.0000000000000000     
  -3.3050000000000003E-002     0.0000000000000000     
  -3.3000000000000002E-002     0.0000000000000000     
  -3.2950000000000000E-002     0.0000000000000000     
  -3.2899999999999999E-002     0.0000000000000000     
  -3.2850000000000004E-002     0.0000000000000000     
  -3.2800000000000003E-002     0.0000000000000000     
  -3.2750000000000001E-002     0.0000000000000000     
  -3.2700000000000000E-002     0.0000000000000000     
  -3.2649999999999998E-002     0.0000000000000000     
  -3.2600000000000004E-002     0.0000000000000000     
  -3.2550000000000003E-002     0.0000000000000000     
  -3.2500000000000001E-002     0.0000000000000000     
  -3.2450000000000000E-002     0.0000000000000000     
  -3.2399999999999998E-002     0.0000000000000000     
  -3.2350000000000004E-002     0.0000000000000000     
  -3.2300000000000002E-002     0.0000000000000000     
  -3.2250000000000001E-002     0.0000000000000000     
  -3.2199999999999999E-002     0.0000000000000000     
  -3.2149999999999998E-002     0.0000000000000000     
  -3.2100000000000004E-002     0.0000000000000000     
  -3.2050000000000002E-002     0.0000000000000000     
  -3.2000000000000001E-002     0.0000000000000000     
  -3.1949999999999999E-002     0.0000000000000000     
  -3.1899999999999998E-002     0.0000000000000000     
  -3.1850000000000003E-002     0.0000000000000000     
  -3.1800000000000002E-002     0.0000000000000000     
  -3.1750000000000000E-002     0.0000000000000000     
  -3.1699999999999999E-002     0.0000000000000000     
  -3.1649999999999998E-002     0.0000000000000000     
  -3.1600000000000003E-002     0.0000000000000000     
  -3.1550000000000002E-002     0.0000000000000000     
  -3.1500000000000000E-002     0.0000000000000000     
  -3.1449999999999999E-002     0.0000000000000000     
  -3.1399999999999997E-002     0.0000000000000000     
  -3.1350000000000003E-002     0.0000000000000000     
  -3.1300000000000001E-002     0.0000000000000000     
  -3.1250000000000000E-002     0.0000000000000000     
  -3.1199999999999999E-002     0.0000000000000000     
  -3.1150000000000001E-002     0.0000000000000000     
  -3.1100000000000003E-002     0.0000000000000000     
  -3.1050000000000001E-002     0.0000000000000000     
  -3.1000000000000000E-002     0.0000000000000000     
  -3.0949999999999998E-002     0.0000000000000000     
  -3.0900000000000000E-002     0.0000000000000000     
  -3.0850000000000002E-002     0.0000000000000000     
  -3.0800000000000001E-002     0.0000000000000000     
  -3.0750000000000000E-002     0.0000000000000000     
  -3.0699999999999998E-002     0.0000000000000000     
  -3.0650000000000000E-002     0.0000000000000000     
  -3.0600000000000002E-002     0.0000000000000000     
  -3.0550000000000001E-002     0.0000000000000000     
  -3.0499999999999999E-002     0.0000000000000000     
  -3.0449999999999998E-002     0.0000000000000000     
  -3.0400000000000000E-002     0.0000000000000000     
  -3.0350000000000002E-002     0.0000000000000000     
  -3.0300000000000001E-002     0.0000000000000000     
  -3.0249999999999999E-002     0.0000000000000000     
  -3.0200000000000001E-002     0.0000000000000000     
  -3.0150000000000000E-002     0.0000000000000000     
  -3.0100000000000002E-002     0.0000000000000000     
  -3.0050000000000000E-002     0.0000000000000000     
  -2.9999999999999999E-002     0.0000000000000000     
  -2.9950000000000001E-002     0.0000000000000000     
  -2.9899999999999999E-002     0.0000000000000000     
  -2.9850000000000002E-002     0.0000000000000000     
  -2.9800000000000000E-002     0.0000000000000000     
  -2.9749999999999999E-002     0.0000000000000000     
  -2.9700000000000001E-002     0.0000000000000000     
  -2.9650000000000003E-002     0.0000000000000000     
  -2.9600000000000001E-002     0.0000000000000000     
  -2.9550000000000000E-002     0.0000000000000000     
  -2.9499999999999998E-002     0.0000000000000000     
  -2.9450000000000000E-002     0.0000000000000000     
  -2.9400000000000003E-002     0.0000000000000000     
  -2.9350000000000001E-002     0.0000000000000000     
  -2.9300000000000000E-002     0.0000000000000000     
  -2.9249999999999998E-002     0.0000000000000000     
  -2.9200000000000000E-002     0.0000000000000000     
  -2.9150000000000002E-002     0.0000000000000000     
  -2.9100000000000001E-002     0.0000000000000000     
  -2.9049999999999999E-002     0.0000000000000000     
  -2.8999999999999998E-002     0.0000000000000000     
  -2.8950000000000000E-002     0.0000000000000000     
  -2.8900000000000002E-002     0.0000000000000000     
  -2.8850000000000001E-002     0.0000000000000000     
  -2.8799999999999999E-002     0.0000000000000000     
  -2.8749999999999998E-002     0.0000000000000000     
  -2.8700000000000000E-002     0.0000000000000000     
  -2.8650000000000002E-002     0.0000000000000000     
  -2.8600000000000000E-002     0.0000000000000000     
  -2.8549999999999999E-002     0.0000000000000000     
  -2.8500000000000001E-002     0.0000000000000000     
  -2.8450000000000000E-002     0.0000000000000000     
  -2.8400000000000002E-002     0.0000000000000000     
  -2.8350000000000000E-002     0.0000000000000000     
  -2.8299999999999999E-002     0.0000000000000000     
  -2.8250000000000001E-002     0.0000000000000000     
  -2.8200000000000003E-002     0.0000000000000000     
  -2.8150000000000001E-002     0.0000000000000000     
  -2.8100000000000000E-002     0.0000000000000000     
  -2.8049999999999999E-002     0.0000000000000000     
  -2.8000000000000001E-002     0.0000000000000000     
  -2.7950000000000003E-002     0.0000000000000000     
  -2.7900000000000001E-002     0.0000000000000000     
  -2.7850000000000000E-002     0.0000000000000000     
  -2.7799999999999998E-002     0.0000000000000000     
  -2.7750000000000000E-002     0.0000000000000000     
  -2.7700000000000002E-002     0.0000000000000000     
  -2.7650000000000001E-002     0.0000000000000000     
  -2.7600000000000000E-002     0.0000000000000000     
  -2.7549999999999998E-002     0.0000000000000000     
  -2.7500000000000000E-002     0.0000000000000000     
  -2.7450000000000002E-002     0.0000000000000000     
  -2.7400000000000001E-002     0.0000000000000000     
  -2.7349999999999999E-002     0.0000000000000000     
  -2.7299999999999998E-002     0.0000000000000000     
  -2.7250000000000000E-002     0.0000000000000000     
  -2.7200000000000002E-002     0.0000000000000000     
  -2.7150000000000001E-002     0.0000000000000000     
  -2.7099999999999999E-002     0.0000000000000000     
  -2.7049999999999998E-002     0.0000000000000000     
  -2.7000000000000000E-002     0.0000000000000000     
  -2.6950000000000002E-002     0.0000000000000000     
  -2.6900000000000000E-002     0.0000000000000000     
  -2.6849999999999999E-002     0.0000000000000000     
  -2.6800000000000001E-002     0.0000000000000000     
  -2.6749999999999999E-002     0.0000000000000000     
  -2.6700000000000002E-002     0.0000000000000000     
  -2.6650000000000000E-002     0.0000000000000000     
  -2.6599999999999999E-002     0.0000000000000000     
  -2.6550000000000001E-002     0.0000000000000000     
  -2.6500000000000003E-002     0.0000000000000000     
  -2.6450000000000001E-002     0.0000000000000000     
  -2.6400000000000000E-002     0.0000000000000000     
  -2.6349999999999998E-002     0.0000000000000000     
  -2.6300000000000000E-002     0.0000000000000000     
  -2.6250000000000002E-002     0.0000000000000000     
  -2.6200000000000001E-002     0.0000000000000000     
  -2.6150000000000000E-002     0.0000000000000000     
  -2.6099999999999998E-002     0.0000000000000000     
  -2.6050000000000000E-002     0.0000000000000000     
  -2.6000000000000002E-002     0.0000000000000000     
  -2.5950000000000001E-002     0.0000000000000000     
  -2.5899999999999999E-002     0.0000000000000000     
  -2.5849999999999998E-002     0.0000000000000000     
  -2.5800000000000000E-002     0.0000000000000000     
  -2.5750000000000002E-002     0.0000000000000000     
  -2.5700000000000001E-002     0.0000000000000000     
  -2.5649999999999999E-002     0.0000000000000000     
  -2.5599999999999998E-002     0.0000000000000000     
  -2.5550000000000000E-002     0.0000000000000000     
  -2.5500000000000002E-002     0.0000000000000000     
  -2.5450000000000000E-002     0.0000000000000000     
  -2.5399999999999999E-002     0.0000000000000000     
  -2.5349999999999998E-002     0.0000000000000000     
  -2.5300000000000000E-002     0.0000000000000000     
  -2.5250000000000002E-002     0.0000000000000000     
  -2.5200000000000000E-002     0.0000000000000000     
  -2.5149999999999999E-002     0.0000000000000000     
  -2.5100000000000001E-002     0.0000000000000000     
  -2.5049999999999999E-002     0.0000000000000000     
  -2.5000000000000001E-002     0.0000000000000000     
  -2.4950000000000000E-002     0.0000000000000000     
  -2.4899999999999999E-002     0.0000000000000000     
  -2.4850000000000001E-002     0.0000000000000000     
  -2.4800000000000003E-002     0.0000000000000000     
  -2.4750000000000001E-002     0.0000000000000000     
  -2.4700000000000000E-002     0.0000000000000000     
  -2.4649999999999998E-002     0.0000000000000000     
  -2.4600000000000000E-002     0.0000000000000000     
  -2.4550000000000002E-002     0.0000000000000000     
  -2.4500000000000001E-002     0.0000000000000000     
  -2.4450000000000000E-002     0.0000000000000000     
  -2.4399999999999998E-002     0.0000000000000000     
  -2.4350000000000000E-002     0.0000000000000000     
  -2.4299999999999999E-002     0.0000000000000000     
  -2.4250000000000001E-002     0.0000000000000000     
  -2.4199999999999999E-002     0.0000000000000000     
  -2.4150000000000001E-002     0.0000000000000000     
  -2.4100000000000000E-002     0.0000000000000000     
  -2.4049999999999998E-002     0.0000000000000000     
  -2.4000000000000000E-002     0.0000000000000000     
  -2.3949999999999999E-002     0.0000000000000000     
  -2.3900000000000001E-002     0.0000000000000000     
  -2.3850000000000000E-002     0.0000000000000000     
  -2.3800000000000002E-002     0.0000000000000000     
  -2.3750000000000000E-002     0.0000000000000000     
  -2.3699999999999999E-002     0.0000000000000000     
  -2.3650000000000001E-002     0.0000000000000000     
  -2.3599999999999999E-002     0.0000000000000000     
  -2.3550000000000001E-002     0.0000000000000000     
  -2.3500000000000000E-002     0.0000000000000000     
  -2.3449999999999999E-002     0.0000000000000000     
  -2.3400000000000001E-002     0.0000000000000000     
  -2.3349999999999999E-002     0.0000000000000000     
  -2.3300000000000001E-002     0.0000000000000000     
  -2.3250000000000000E-002     0.0000000000000000     
  -2.3199999999999998E-002     0.0000000000000000     
  -2.3150000000000000E-002     0.0000000000000000     
  -2.3099999999999999E-002     0.0000000000000000     
  -2.3050000000000001E-002     0.0000000000000000     
  -2.3000000000000000E-002     0.0000000000000000     
  -2.2950000000000002E-002     0.0000000000000000     
  -2.2900000000000000E-002     0.0000000000000000     
  -2.2849999999999999E-002     0.0000000000000000     
  -2.2800000000000001E-002     0.0000000000000000     
  -2.2749999999999999E-002     0.0000000000000000     
  -2.2700000000000001E-002     0.0000000000000000     
  -2.2650000000000000E-002     0.0000000000000000     
  -2.2599999999999999E-002     0.0000000000000000     
  -2.2550000000000001E-002     0.0000000000000000     
  -2.2499999999999999E-002     0.0000000000000000     
  -2.2450000000000001E-002     0.0000000000000000     
  -2.2400000000000000E-002     0.0000000000000000     
  -2.2349999999999998E-002     0.0000000000000000     
  -2.2300000000000000E-002     0.0000000000000000     
  -2.2249999999999999E-002     0.0000000000000000     
  -2.2200000000000001E-002     0.0000000000000000     
  -2.2150000000000000E-002     0.0000000000000000     
  -2.2100000000000002E-002     0.0000000000000000     
  -2.2050000000000000E-002     0.0000000000000000     
  -2.1999999999999999E-002     0.0000000000000000     
  -2.1950000000000001E-002     0.0000000000000000     
  -2.1899999999999999E-002     0.0000000000000000     
  -2.1850000000000001E-002     0.0000000000000000     
  -2.1800000000000000E-002     0.0000000000000000     
  -2.1749999999999999E-002     0.0000000000000000     
  -2.1700000000000001E-002     0.0000000000000000     
  -2.1649999999999999E-002     0.0000000000000000     
  -2.1600000000000001E-002    -2.0283837448057076E-039
  -2.1550000000000000E-002    -4.2892062165872901E-039
  -2.1499999999999998E-002    -2.4389856251088897E-039
  -2.1450000000000000E-002     2.0011703570682737E-039
  -2.1399999999999999E-002     9.1251686170645679E-039
  -2.1350000000000001E-002     1.6768459688500597E-038
  -2.1299999999999999E-002     1.4724642804424381E-038
  -2.1250000000000002E-002     0.0000000000000000     
  -2.1200000000000000E-002    -2.5567841536596636E-038
  -2.1149999999999999E-002    -4.4927088162858209E-038
  -2.1100000000000001E-002    -4.1905520690015625E-038
  -2.1049999999999999E-002    -2.5211122216433978E-038
  -2.1000000000000001E-002     1.1449309535106324E-038
  -2.0950000000000000E-002     4.4379264783932921E-038
  -2.0899999999999998E-002     6.2168939975692405E-038
  -2.0850000000000000E-002     6.2381956597663045E-038
  -2.0799999999999999E-002     2.1708623317705171E-038
  -2.0750000000000001E-002    -2.3051630930050384E-038
  -2.0700000000000000E-002    -3.2541358992294913E-038
  -2.0649999999999998E-002    -1.2551653743469133E-038
  -2.0600000000000000E-002     1.2070417364401831E-038
  -2.0549999999999999E-002     4.3365661553536510E-038
  -2.0500000000000001E-002     5.0666074441200685E-038
  -2.0449999999999999E-002     2.7564824028716428E-038
  -2.0400000000000001E-002    -2.3576915761139676E-038
  -2.0350000000000000E-002    -7.5223128475117511E-038
  -2.0299999999999999E-002    -1.0604510759830748E-037
  -2.0250000000000001E-002    -9.5125389820590768E-038
  -2.0199999999999999E-002    -4.9749376218234878E-038
  -2.0150000000000001E-002     1.3506844645456984E-038
  -2.0100000000000000E-002     8.9426721472309061E-038
  -2.0049999999999998E-002     1.8589864549962056E-037
  -2.0000000000000000E-002     2.6301258669632823E-037
  -1.9949999999999999E-002     3.1074569664884775E-037
  -1.9900000000000001E-002     2.8588840089190969E-037
  -1.9850000000000000E-002     1.5897956154882486E-037
  -1.9799999999999998E-002    -5.6329519789575323E-038
  -1.9750000000000000E-002    -3.1939217506442161E-037
  -1.9699999999999999E-002    -5.7152718985514707E-037
  -1.9650000000000001E-002    -7.5528530802569097E-037
  -1.9599999999999999E-002    -8.3073953885071042E-037
  -1.9550000000000001E-002    -7.4680421285107477E-037
  -1.9500000000000000E-002    -4.8675272153020321E-037
  -1.9449999999999999E-002    -4.4201340850461562E-038
  -1.9400000000000001E-002     5.5723695786385466E-037
  -1.9349999999999999E-002     1.2474777256628338E-036
  -1.9300000000000001E-002     1.9031762746976912E-036
  -1.9250000000000000E-002     2.3533337992084665E-036
  -1.9199999999999998E-002     2.4187911937841520E-036
  -1.9150000000000000E-002     1.9304448470726748E-036
  -1.9099999999999999E-002     7.9522185209088973E-037
  -1.9050000000000001E-002    -9.5212489208253409E-037
  -1.9000000000000000E-002    -3.1067552448450041E-036
  -1.8949999999999998E-002    -5.2838947790901427E-036
  -1.8900000000000000E-002    -6.9558835438340228E-036
  -1.8849999999999999E-002    -7.5324839473973653E-036
  -1.8800000000000001E-002    -6.4879068162603828E-036
  -1.8749999999999999E-002    -3.5047078005942439E-036
  -1.8700000000000001E-002     1.3736082811810652E-036
  -1.8650000000000000E-002     7.6185807869585326E-036
  -1.8599999999999998E-002     1.4167059918666657E-035
  -1.8550000000000001E-002     1.9500921453790677E-035
  -1.8499999999999999E-002     2.1885767090270670E-035
  -1.8450000000000001E-002     1.9752118538204550E-035
  -1.8400000000000000E-002     1.2150670561910091E-035
  -1.8349999999999998E-002    -8.2257664496204358E-037
  -1.8300000000000000E-002    -1.7741830802402073E-035
  -1.8249999999999999E-002    -3.5802879180383032E-035
  -1.8200000000000001E-002    -5.1079277318215103E-035
  -1.8149999999999999E-002    -5.9109993493674059E-035
  -1.8100000000000002E-002    -5.5787903980389448E-035
  -1.8050000000000000E-002    -3.8434477341268739E-035
  -1.7999999999999999E-002    -6.8589508540771630E-036
  -1.7950000000000001E-002     3.5861633517120720E-035
  -1.7899999999999999E-002     8.3152198079435619E-035
  -1.7850000000000001E-002     1.2546524029174077E-034
  -1.7800000000000000E-002     1.5164242380708249E-034
  -1.7749999999999998E-002     1.5101968896976688E-034
  -1.7700000000000000E-002     1.1599368755840836E-034
  -1.7649999999999999E-002     4.4593348425836937E-035
  -1.7600000000000001E-002    -5.7520236910529978E-035
  -1.7550000000000000E-002    -1.7622057236250245E-034
  -1.7499999999999998E-002    -2.8973667771687273E-034
  -1.7450000000000000E-002    -3.7137676051392791E-034
  -1.7399999999999999E-002    -3.9405558608748678E-034
  -1.7350000000000001E-002    -3.3612720795741300E-034
  -1.7299999999999999E-002    -1.8761818359600859E-034
  -1.7250000000000001E-002     4.4367914457016293E-035
  -1.7200000000000000E-002     3.3246642184711432E-034
  -1.7149999999999999E-002     6.2939227065940229E-034
  -1.7100000000000001E-002     8.7270459647756864E-034
  -1.7049999999999999E-002     9.9418743324512436E-034
  -1.7000000000000001E-002     9.3308983508670668E-034
  -1.6950000000000000E-002     6.5142812730588651E-034
  -1.6899999999999998E-002     1.4861612977282864E-034
  -1.6850000000000000E-002    -5.2793367202831156E-034
  -1.6799999999999999E-002    -1.2796769699779715E-033
  -1.6750000000000001E-002    -1.9640794859430338E-033
  -1.6700000000000000E-002    -2.4133952195839179E-033
  -1.6649999999999998E-002    -2.4642694269695026E-033
  -1.6600000000000000E-002    -1.9947087039674996E-033
  -1.6549999999999999E-002    -9.6233159444867024E-034
  -1.6500000000000001E-002     5.6419938895819436E-034
  -1.6449999999999999E-002     2.3894378983058135E-033
  -1.6400000000000001E-002     4.1989713224864052E-033
  -1.6350000000000000E-002     5.5955941025167703E-033
  -1.6299999999999999E-002     6.1636486806996704E-033
  -1.6250000000000001E-002     5.5550082610553433E-033
  -1.6199999999999999E-002     3.5835559832039647E-033
  -1.6150000000000001E-002     3.0952644199863787E-034
  -1.6100000000000000E-002    -3.9076470765937672E-033
  -1.6049999999999998E-002    -8.4080868934052952E-033
  -1.6000000000000000E-002    -1.2295782957279472E-032
  -1.5949999999999999E-002    -1.4571524111077341E-032
  -1.5900000000000001E-002    -1.4323170115515554E-032
  -1.5850000000000000E-002    -1.0946314182170666E-032
  -1.5799999999999998E-002    -4.3547866645998457E-033
  -1.5750000000000000E-002     4.8677073800063855E-033
  -1.5699999999999999E-002     1.5422862256603812E-032
  -1.5650000000000001E-002     2.5396606596343947E-032
  -1.5599999999999999E-002     3.2515944046318533E-032
  -1.5550000000000001E-002     3.4547231122226355E-032
  -1.5500000000000000E-002     2.9784597453459365E-032
  -1.5449999999999998E-002     1.7545099034734629E-032
  -1.5400000000000000E-002    -1.4343975673877139E-033
  -1.5349999999999999E-002    -2.4807568360527612E-032
  -1.5300000000000001E-002    -4.8726581627517326E-032
  -1.5250000000000000E-002    -6.8295400311543427E-032
  -1.5199999999999998E-002    -7.8353654112921637E-032
  -1.5150000000000000E-002    -7.4502118938860267E-032
  -1.5099999999999999E-002    -5.4208910360673881E-032
  -1.5050000000000001E-002    -1.7781336981067940E-032
  -1.4999999999999999E-002     3.1032574442481432E-032
  -1.4949999999999998E-002     8.5024254304845313E-032
  -1.4900000000000000E-002     1.3422363671273001E-031
  -1.4849999999999999E-002     1.6733437906523053E-031
  -1.4800000000000001E-002     1.7377250757115357E-031
  -1.4749999999999999E-002     1.4602057195012885E-031
  -1.4700000000000001E-002     8.1879945887741699E-032
  -1.4650000000000000E-002    -1.3867552776107032E-032
  -1.4599999999999998E-002    -1.2886342820046357E-031
  -1.4550000000000000E-002    -2.4400039326501413E-031
  -1.4499999999999999E-002    -3.3581973215725122E-031
  -1.4450000000000001E-002    -3.8033314129569236E-031
  -1.4400000000000000E-002    -3.5779935449340808E-031
  -1.4349999999999998E-002    -2.5769130545697462E-031
  -1.4300000000000000E-002    -8.2881784252897134E-032
  -1.4249999999999999E-002     1.4797386069861763E-031
  -1.4200000000000001E-002     4.0073518029208051E-031
  -1.4149999999999999E-002     6.2927784337974329E-031
  -1.4099999999999998E-002     7.8218496152314976E-031
  -1.4050000000000000E-002     8.1196772325342276E-031
  -1.3999999999999999E-002     6.8549986151543456E-031
  -1.3950000000000001E-002     3.9382129172620128E-031
  -1.3899999999999999E-002    -4.0799859406465105E-032
  -1.3850000000000001E-002    -5.6256625123294247E-031
  -1.3800000000000000E-002    -1.0860944257526513E-030
  -1.3749999999999998E-002    -1.5071530554831210E-030
  -1.3700000000000000E-002    -1.7194948622453317E-030
  -1.3649999999999999E-002    -1.6357018090002791E-030
  -1.3600000000000001E-002    -1.2087132257189609E-030
  -1.3550000000000000E-002    -4.4985614188979889E-031
  -1.3499999999999998E-002     5.6097923581377294E-031
  -1.3450000000000000E-002     1.6767271768162985E-030
  -1.3399999999999999E-002     2.6982609945278594E-030
  -1.3350000000000001E-002     3.4030917867168355E-030
  -1.3299999999999999E-002     3.5847607362780859E-030
  -1.3249999999999998E-002     3.0972670761109668E-030
  -1.3200000000000000E-002     1.8967072086210498E-030
  -1.3149999999999998E-002     7.1221058157123851E-032
  -1.3100000000000001E-002    -2.1491427556358027E-030
  -1.3049999999999999E-002    -4.4087347709895572E-030
  -1.3000000000000001E-002    -6.2708968837294868E-030
  -1.2950000000000000E-002    -7.2877077812154883E-030
  -1.2899999999999998E-002    -7.0861410779157460E-030
  -1.2850000000000000E-002    -5.4568331392773236E-030
  -1.2799999999999999E-002    -2.4283912662378544E-030