  -4.0000000000000001E-002     0.0000000000000000     
  -3.9949999999999999E-002     0.0000000000000000     
  -3.9899999999999998E-002     0.0000000000000000     
  -3.9850000000000003E-002     0.0000000000000000     
  -3.9800000000000002E-002     0.0000000000000000     
  -3.9750000000000001E-002     0.0000000000000000     
  -3.9699999999999999E-002     0.0000000000000000     
  -3.9649999999999998E-002     0.0000000000000000     
  -3.9600000000000003E-002     0.0000000000000000     
  -3.9550000000000002E-002     0.0000000000000000     
  -3.9500000000000000E-002     0.0000000000000000     
  -3.9449999999999999E-002     0.0000000000000000     
  -3.9399999999999998E-002     0.0000000000000000     
  -3.9350000000000003E-002     0.0000000000000000     
  -3.9300000000000002E-002     0.0000000000000000     
  -3.9250000000000000E-002     0.0000000000000000     
  -3.9199999999999999E-002     0.0000000000000000     
  -3.9150000000000004E-002     0.0000000000000000     
  -3.9100000000000003E-002     0.0000000000000000     
  -3.9050000000000001E-002     0.0000000000000000     
  -3.9000000000000000E-002     0.0000000000000000     
  -3.8949999999999999E-002     0.0000000000000000     
  -3.8900000000000004E-002     0.0000000000000000     
  -3.8850000000000003E-002     0.0000000000000000     
  -3.8800000000000001E-002     0.0000000000000000     
  -3.8750000000000000E-002     0.0000000000000000     
  -3.8699999999999998E-002     0.0000000000000000     
  -3.8650000000000004E-002     0.0000000000000000     
  -3.8600000000000002E-002     0.0000000000000000     
  -3.8550000000000001E-002     0.0000000000000000     
  -3.8500000000000000E-002     0.0000000000000000     
  -3.8449999999999998E-002     0.0000000000000000     
  -3.8400000000000004E-002     0.0000000000000000     
  -3.8350000000000002E-002     0.0000000000000000     
  -3.8300000000000001E-002     0.0000000000000000     
  -3.8249999999999999E-002     0.0000000000000000     
  -3.8199999999999998E-002     0.0000000000000000     
  -3.8150000000000003E-002     0.0000000000000000     
  -3.8100000000000002E-002     0.0000000000000000     
  -3.8050000000000000E-002     0.0000000000000000     
  -3.7999999999999999E-002     0.0000000000000000     
  -3.7949999999999998E-002     0.0000000000000000     
  -3.7900000000000003E-002     0.0000000000000000     
  -3.7850000000000002E-002     0.0000000000000000     
  -3.7800000000000000E-002     0.0000000000000000     
  -3.7749999999999999E-002     0.0000000000000000     
  -3.7699999999999997E-002     0.0000000000000000     
  -3.7650000000000003E-002     0.0000000000000000     
  -3.7600000000000001E-002     0.0000000000000000     
  -3.7550000000000000E-002     0.0000000000000000     
  -3.7499999999999999E-002     0.0000000000000000     
  -3.7449999999999997E-002     0.0000000000000000     
  -3.7400000000000003E-002     0.0000000000000000     
  -3.7350000000000001E-002     0.0000000000000000     
  -3.7300000000000000E-002     0.0000000000000000     
  -3.7249999999999998E-002     0.0000000000000000     
  -3.7200000000000004E-002     0.0000000000000000     
  -3.7150000000000002E-002     0.0000000000000000     
  -3.7100000000000001E-002     0.0000000000000000     
  -3.7050000000000000E-002     0.0000000000000000     
  -3.6999999999999998E-002     0.0000000000000000     
  -3.6950000000000004E-002     0.0000000000000000     
  -3.6900000000000002E-002     0.0000000000000000     
  -3.6850000000000001E-002     0.0000000000000000     
  -3.6799999999999999E-002     0.0000000000000000     
  -3.6749999999999998E-002     0.0000000000000000     
  -3.6700000000000003E-002     0.0000000000000000     
  -3.6650000000000002E-002     0.0000000000000000     
  -3.6600000000000001E-002     0.0000000000000000     
  -3.6549999999999999E-002     0.0000000000000000     
  -3.6499999999999998E-002     0.0000000000000000     
  -3.6450000000000003E-002     0.0000000000000000     
  -3.6400000000000002E-002     0.0000000000000000     
  -3.6350000000000000E-002     0.0000000000000000     
  -3.6299999999999999E-002     0.0000000000000000     
  -3.6249999999999998E-002     0.0000000000000000     
  -3.6200000000000003E-002     0.0000000000000000     
  -3.6150000000000002E-002     0.0000000000000000     
  -3.6100000000000000E-002     0.0000000000000000     
  -3.6049999999999999E-002     0.0000000000000000     
  -3.6000000000000004E-002     0.0000000000000000     
  -3.5950000000000003E-002     0.0000000000000000     
  -3.5900000000000001E-002     0.0000000000000000     
  -3.5850000000000000E-002     0.0000000000000000     
  -3.5799999999999998E-002     0.0000000000000000     
  -3.5750000000000004E-002     0.0000000000000000     
  -3.5700000000000003E-002     0.0000000000000000     
  -3.5650000000000001E-002     0.0000000000000000     
  -3.5600000000000000E-002     0.0000000000000000     
  -3.5549999999999998E-002     0.0000000000000000     
  -3.5500000000000004E-002     0.0000000000000000     
  -3.5450000000000002E-002     0.0000000000000000     
  -3.5400000000000001E-002     0.0000000000000000     
  -3.5349999999999999E-002     0.0000000000000000     
  -3.5299999999999998E-002     0.0000000000000000     
  -3.5250000000000004E-002     0.0000000000000000     
  -3.5200000000000002E-002     0.0000000000000000     
  -3.5150000000000001E-002     0.0000000000000000     
  -3.5099999999999999E-002     0.0000000000000000     
  -3.5049999999999998E-002     0.0000000000000000     
  -3.5000000000000003E-002     0.0000000000000000     
  -3.4950000000000002E-002     0.0000000000000000     
  -3.4900000000000000E-002     0.0000000000000000     
  -3.4849999999999999E-002     0.0000000000000000     
  -3.4799999999999998E-002     0.0000000000000000     
  -3.4750000000000003E-002     0.0000000000000000     
  -3.4700000000000002E-002     0.0000000000000000     
  -3.4650000000000000E-002     0.0000000000000000     
  -3.4599999999999999E-002     0.0000000000000000     
  -3.4549999999999997E-002     0.0000000000000000     
  -3.4500000000000003E-002     0.0000000000000000     
  -3.4450000000000001E-002     0.0000000000000000     
  -3.4400000000000000E-002     0.0000000000000000     
  -3.4349999999999999E-002     0.0000000000000000     
  -3.4299999999999997E-002     0.0000000000000000     
  -3.4250000000000003E-002     0.0000000000000000     
  -3.4200000000000001E-002     0.0000000000000000     
  -3.4150000000000000E-002     0.0000000000000000     
  -3.4099999999999998E-002     0.0000000000000000     
  -3.4049999999999997E-002     0.0000000000000000     
  -3.4000000000000002E-002     0.0000000000000000     
  -3.3950000000000001E-002     0.0000000000000000     
  -3.3900000000000000E-002     0.0000000000000000     
  -3.3849999999999998E-002     0.0000000000000000     
  -3.3799999999999997E-002     0.0000000000000000     
  -3.3750000000000002E-002     0.0000000000000000     
  -3.3700000000000001E-002     0.0000000000000000     
  -3.3649999999999999E-002     0.0000000000000000     
  -3.3599999999999998E-002     0.0000000000000000     
  -3.3550000000000003E-002     0.0000000000000000     
  -3.3500000000000002E-002     0.0000000000000000     
  -3.3450000000000001E-002     0.0000000000000000     
  -3.3399999999999999E-002     0.0000000000000000     
  -3.3349999999999998E-002     0.0000000000000000     
  -3.3300000000000003E-002     0.0000000000000000     
  -3.3250000000000002E-002     0.0000000000000000     
  -3.3200000000000000E-002     0.0000000000000000     
  -3.3149999999999999E-002     0.0000000000000000     
  -3.3099999999999997E-002     0.0000000000000000     
  -3.3050000000000003E-002     0.0000000000000000     
  -3.3000000000000002E-002     0.0000000000000000     
  -3.2950000000000000E-002     0.0000000000000000     
  -3.2899999999999999E-002     0.0000000000000000     
  -3.2850000000000004E-002     0.0000000000000000     
  -3.2800000000000003E-002     0.0000000000000000     
  -3.2750000000000001E-002     0.0000000000000000     
  -3.2700000000000000E-002     0.0000000000000000     
  -3.2649999999999998E-002     0.0000000000000000     
  -3.2600000000000004E-002     0.0000000000000000     
  -3.2550000000000003E-002     0.0000000000000000     
  -3.2500000000000001E-002     0.0000000000000000     
  -3.2450000000000000E-002     0.0000000000000000     
  -3.2399999999999998E-002     0.0000000000000000     
  -3.2350000000000004E-002     0.0000000000000000     
  -3.2300000000000002E-002     0.0000000000000000     
  -3.2250000000000001E-002     0.0000000000000000     
  -3.2199999999999999E-002     0.0000000000000000     
  -3.2149999999999998E-002     0.0000000000000000     
  -3.2100000000000004E-002     0.0000000000000000     
  -3.2050000000000002E-002     0.0000000000000000     
  -3.2000000000000001E-002     0.0000000000000000     
  -3.1949999999999999E-002     0.0000000000000000     
  -3.1899999999999998E-002     0.0000000000000000     
  -3.1850000000000003E-002     0.0000000000000000     
  -3.1800000000000002E-002     0.0000000000000000     
  -3.1750000000000000E-002     0.0000000000000000     
  -3.1699999999999999E-002     0.0000000000000000     
  -3.1649999999999998E-002     0.0000000000000000     
  -3.1600000000000003E-002     0.0000000000000000     
  -3.1550000000000002E-002     0.0000000000000000     
  -3.1500000000000000E-002     0.0000000000000000     
  -3.1449999999999999E-002     0.0000000000000000     
  -3.1399999999999997E-002     0.0000000000000000     
  -3.1350000000000003E-002     0.0000000000000000     
  -3.1300000000000001E-002     0.0000000000000000     
  -3.1250000000000000E-002     0.0000000000000000     
  -3.1199999999999999E-002     0.0000000000000000     
  -3.1150000000000001E-002     0.0000000000000000     
  -3.1100000000000003E-002     0.0000000000000000     
  -3.1050000000000001E-002     0.0000000000000000     
  -3.1000000000000000E-002     0.0000000000000000     
  -3.0949999999999998E-002     0.0000000000000000     
  -3.0900000000000000E-002     0.0000000000000000     
  -3.0850000000000002E-002     0.0000000000000000     
  -3.0800000000000001E-002     0.0000000000000000     
  -3.0750000000000000E-002     0.0000000000000000     
  -3.0699999999999998E-002     4.4394663323481878E-040
  -3.0650000000000000E-002     1.1095507360614833E-039
  -3.0600000000000002E-002     1.6842379095508736E-039
  -3.0550000000000001E-002     1.2181407693772221E-039
  -3.0499999999999999E-002    -6.3997240142763680E-040
  -3.0449999999999998E-002    -4.3660819010924745E-039
  -3.0400000000000000E-002    -8.3220629908584389E-039
  -3.0350000000000002E-002    -1.0840266444296480E-038
  -3.0300000000000001E-002    -1.0545462831858725E-038
  -3.0249999999999999E-002    -4.7037049003063085E-039
  -3.0200000000000001E-002     6.2695162244013890E-039
  -3.0150000000000000E-002     2.2605419537015007E-038
  -3.0100000000000002E-002     2.0740151085562273E-038
  -3.0050000000000000E-002     5.8050800408247517E-039
  -2.9999999999999999E-002    -1.8126596320267069E-038
  -2.9950000000000001E-002    -1.5534652254113103E-038
  -2.9899999999999999E-002     1.0783550138827761E-039
  -2.9850000000000002E-002     4.5329644225198310E-038
  -2.9800000000000000E-002     1.1038528229823039E-037
  -2.9749999999999999E-002     1.7018331179232742E-037
  -2.9700000000000001E-002     1.9307626904821340E-037
  -2.9650000000000003E-002     1.4531939354085225E-037
  -2.9600000000000001E-002     1.3145304374766671E-038
  -2.9550000000000000E-002    -1.9104698126959782E-037
  -2.9499999999999998E-002    -4.2773424745859974E-037
  -2.9450000000000000E-002    -6.3890315592726643E-037
  -2.9400000000000003E-002    -7.5696554928562842E-037
  -2.9350000000000001E-002    -7.1928076773333197E-037
  -2.9300000000000000E-002    -4.7977861547732546E-037
  -2.9249999999999998E-002    -2.0956141223393143E-038
  -2.9200000000000000E-002     6.3855711882593051E-037
  -2.9150000000000002E-002     1.4311176895708791E-036
  -2.9100000000000001E-002     2.2309516622227846E-036
  -2.9049999999999999E-002     2.8500884206509342E-036
  -2.8999999999999998E-002     3.0519284356409277E-036
  -2.8950000000000000E-002     2.5864805247202676E-036
  -2.8900000000000002E-002     1.2507019891934278E-036
  -2.8850000000000001E-002    -1.0312433548013593E-036
  -2.8799999999999999E-002    -4.1248347407368448E-036
  -2.8749999999999998E-002    -7.6216894090163411E-036
  -2.8700000000000000E-002    -1.0822203794788247E-035
  -2.8650000000000002E-002    -1.2788307139039275E-035
  -2.8600000000000000E-002    -1.2477183638394281E-035
  -2.8549999999999999E-002    -8.9577862052404183E-036
  -2.8500000000000001E-002    -1.6827740007740275E-036
  -2.8450000000000000E-002     9.2207453966365149E-036
  -2.8400000000000002E-002     2.2700005063333878E-035
  -2.8350000000000000E-002     3.6634182985794924E-035
  -2.8299999999999999E-002     4.7876905522463173E-035
  -2.8250000000000001E-002     5.2551119823007804E-035
  -2.8200000000000003E-002     4.6640594427378961E-035
  -2.8150000000000001E-002     2.6877253409522217E-035
  -2.8100000000000000E-002    -8.1466784665034832E-036
  -2.8049999999999999E-002    -5.6798412640652452E-035
  -2.8000000000000001E-002    -1.1340972873466854E-034
  -2.7950000000000003E-002    -1.6780007532427346E-034
  -2.7900000000000001E-002    -2.0568512638634933E-034
  -2.7850000000000000E-002    -2.1029610807587631E-034
  -2.7799999999999998E-002    -1.6538490487254798E-034
  -2.7750000000000000E-002    -5.9521452110649383E-035
  -2.7700000000000002E-002     1.0879346065542017E-034
  -2.7650000000000001E-002     3.2611880815531843E-034
  -2.7600000000000000E-002     5.6051007385727655E-034
  -2.7549999999999998E-002     7.6101879041714865E-034
  -2.7500000000000000E-002     8.6184943717279840E-034
  -2.7450000000000002E-002     7.9230933000824927E-034
  -2.7400000000000001E-002     4.9269423045799096E-034
  -2.7349999999999999E-002    -6.5260469113307001E-035
  -2.7299999999999998E-002    -8.5661529254833637E-034
  -2.7250000000000000E-002    -1.7852988858072387E-033
  -2.7200000000000002E-002    -2.6765724211606931E-033
  -2.7150000000000001E-002    -3.2867137246908857E-033
  -2.7099999999999999E-002    -3.3352633985031079E-033
  -2.7049999999999998E-002    -2.5615424775757991E-033
  -2.7000000000000000E-002    -8.0131386562516789E-034
  -2.6950000000000002E-002     1.9278436646249934E-033
  -2.6900000000000000E-002     5.3513927094667445E-033
  -2.6849999999999999E-002     8.8974784046202956E-033
  -2.6800000000000001E-002     1.1717229363584587E-032
  -2.6749999999999999E-002     1.2786384589447564E-032
  -2.6700000000000002E-002     1.1095825220005875E-032
  -2.6650000000000000E-002     5.9179090064011325E-033
  -2.6599999999999999E-002    -2.8901213391100720E-033
  -2.6550000000000001E-002    -1.4610027178414134E-032
  -2.6500000000000003E-002    -2.7496743357908113E-032
  -2.6450000000000001E-002    -3.8809560627218994E-032
  -2.6400000000000000E-002    -4.5109326586628731E-032
  -2.6349999999999998E-002    -4.2848230608180233E-032
  -2.6300000000000000E-002    -2.9213399075148220E-032
  -2.6250000000000002E-002    -3.1067358218719450E-033
  -2.6200000000000001E-002     3.3933927584884393E-032
  -2.6150000000000000E-002     7.7122270953181910E-032
  -2.6099999999999998E-002     1.1838127257969587E-031
  -2.6050000000000000E-002     1.4708427268923824E-031
  -2.6000000000000002E-002     1.5167552163772726E-031
  -2.5950000000000001E-002     1.2208831056707941E-031
  -2.5899999999999999E-002     5.2662481918629651E-032
  -2.5849999999999998E-002    -5.4952526952360498E-032
  -2.5800000000000000E-002    -1.8958814631958667E-031
  -2.5750000000000002E-002    -3.2978327753734808E-031
  -2.5700000000000001E-002    -4.4510633938715823E-031
  -2.5649999999999999E-002    -4.9997802441656047E-031
  -2.5599999999999998E-002    -4.5997691728971824E-031
  -2.5550000000000000E-002    -3.0005946174383185E-031
  -2.5500000000000002E-002    -1.3518996136997304E-032
  -2.5450000000000000E-002     3.8004433653496579E-031
  -2.5399999999999999E-002     8.2984034519103430E-031
  -2.5349999999999998E-002     1.2542395723370314E-030
  -2.5300000000000000E-002     1.5481178041621573E-030
  -2.5250000000000002E-002     1.5980530237875394E-030
  -2.5200000000000000E-002     1.3048212217836780E-030
  -2.5149999999999999E-002     6.1082689436206947E-031
  -2.5100000000000001E-002    -4.7186400343372876E-031
  -2.5049999999999999E-002    -1.8389763003693157E-030
  -2.5000000000000001E-002    -3.2841028659178600E-030
  -2.4950000000000000E-002    -4.5083653816144948E-030
  -2.4899999999999999E-002    -5.1547540666728774E-030
  -2.4850000000000001E-002    -4.8684620433317394E-030
  -2.4800000000000003E-002    -3.3789171066110668E-030
  -2.4750000000000001E-002    -5.9250710525382146E-031
  -2.4700000000000000E-002     3.3217424255073555E-030
  -2.4649999999999998E-002     7.8762640208024954E-030
  -2.4600000000000000E-002     1.2262904315562192E-029
  -2.4550000000000002E-002     1.5424877284136438E-029
  -2.4500000000000001E-002     1.6212468854249015E-029
  -2.4450000000000000E-002     1.3615707717936775E-029
  -2.4399999999999998E-002     7.0463806112130465E-030
  -2.4350000000000000E-002    -3.3798392697072409E-030
  -2.4299999999999999E-002    -1.6627496216301129E-029
  -2.4250000000000001E-002    -3.0665080999021955E-029
  -2.4199999999999999E-002    -4.2593562557066411E-029
  -2.4150000000000001E-002    -4.9018203798175238E-029
  -2.4100000000000000E-002    -4.6657687270684870E-029
  -2.4049999999999998E-002    -3.3127028959215916E-029
  -2.4000000000000000E-002    -7.7700328023860210E-030
  -2.3949999999999999E-002     2.7633708973668303E-029
  -2.3900000000000001E-002     6.8487988697343785E-029
  -2.3850000000000000E-002     1.0751324619326405E-028
  -2.3800000000000002E-002     1.3552252444985684E-028
  -2.3750000000000000E-002     1.4286231720437219E-028
  -2.3699999999999999E-002     1.2139867047112145E-028
  -2.3650000000000001E-002     6.6772087189617316E-029
  -2.3599999999999999E-002    -1.9494667867940127E-029
  -2.3550000000000001E-002    -1.2854047767909838E-028
  -2.3500000000000000E-002    -2.4386919592085576E-028
  -2.3449999999999999E-002    -3.4261500287274143E-028
  -2.3400000000000001E-002    -3.9855130281430031E-028
  -2.3349999999999999E-002    -3.8670447225194298E-028
  -2.3300000000000001E-002    -2.8905299528974672E-028
  -2.3250000000000000E-002    -1.0041655955058330E-028
  -2.3199999999999998E-002     1.6665405588943125E-028
  -2.3150000000000000E-002     4.7930402166389876E-028
  -2.3099999999999999E-002     7.8532544657383786E-028
  -2.3050000000000001E-002     1.0184485487170969E-027
  -2.3000000000000000E-002     1.1081199962829765E-027
  -2.2950000000000002E-002     9.9302320184490182E-028
  -2.2900000000000000E-002     6.3660066708528997E-028
  -2.2849999999999999E-002     4.1926110296652027E-029
  -2.2800000000000001E-002    -7.3736687989271524E-028
  -2.2749999999999999E-002    -1.5935207464995548E-027
  -2.2700000000000001E-002    -2.3713370317124264E-027
  -2.2650000000000000E-002    -2.8866885933200504E-027
  -2.2599999999999999E-002    -2.9564247389915909E-027
  -2.2550000000000001E-002    -2.4367259915419675E-027
  -2.2499999999999999E-002    -1.2643293327697243E-027
  -2.2450000000000001E-002     5.0716751731944008E-028
  -2.2400000000000000E-002     2.6849343902439262E-027
  -2.2349999999999998E-002     4.9371389608342117E-027
  -2.2300000000000000E-002     6.8221707006411787E-027
  -2.2249999999999999E-002     7.8489627950843958E-027
  -2.2200000000000001E-002     7.5645657580141979E-027
  -2.2150000000000000E-002     5.6583234531311214E-027
  -2.2100000000000002E-002     2.0655284352169813E-027
  -2.2050000000000000E-002    -2.9511437667411842E-027
  -2.1999999999999999E-002    -8.7654615398722854E-027
  -2.1950000000000001E-002    -1.4416511994348136E-026
  -2.1899999999999999E-002    -1.8714213291513763E-026
  -2.1850000000000001E-002    -2.0420189135698984E-026
  -2.1800000000000000E-002    -1.8486844767603891E-026
  -2.1749999999999999E-002    -1.2320866026219139E-026
  -2.1700000000000001E-002    -2.0238037220269781E-027
  -2.1649999999999999E-002     1.1445334087564913E-026
  -2.1600000000000001E-002     2.6238430818882104E-026
  -2.1550000000000000E-002     3.9757457589012681E-026
  -2.1499999999999998E-002     4.8979851018206031E-026
  -2.1450000000000000E-002     5.0951766789732668E-026
  -2.1399999999999999E-002     4.3392766316371294E-026
  -2.1350000000000001E-002     2.5319447958471356E-026
  -2.1299999999999999E-002    -2.4309384643000258E-027
  -2.1250000000000002E-002    -3.6904899543252409E-026
  -2.1200000000000000E-002    -7.3079495046594997E-026
  -2.1149999999999999E-002    -1.0432628264899061E-025
  -2.1100000000000001E-002    -1.2330388701089987E-025
  -2.1049999999999999E-002    -1.2320996770289561E-025
  -2.1000000000000001E-002    -9.9237142218838341E-026
  -2.0950000000000000E-002    -5.0000250473089178E-026
  -2.0899999999999998E-002     2.1347553604094465E-026
  -2.0850000000000000E-002     1.0660107644371173E-025
  -2.0799999999999999E-002     1.9283708055172538E-025
  -2.0750000000000001E-002     2.6373777792143911E-025
  -2.0700000000000000E-002     3.0189043796000138E-025
  -2.0649999999999998E-002     2.9185925149783060E-025
  -2.0600000000000000E-002     2.2362838688830783E-025
  -2.0549999999999999E-002     9.5846643368502111E-026
  -2.0500000000000001E-002    -8.1795708288455098E-026
  -2.0449999999999999E-002    -2.8772425086400116E-025
  -2.0400000000000001E-002    -4.8970538919900413E-025
  -2.0350000000000000E-002    -6.4840589328738261E-025
  -2.0299999999999999E-002    -7.2317022226568663E-025
  -2.0250000000000001E-002    -6.7944567778842224E-025
  -2.0199999999999999E-002    -4.9682976333595843E-025
  -2.0150000000000001E-002    -1.7635015307407273E-025
  -2.0100000000000000E-002     2.5460167946007106E-025
  -2.0049999999999998E-002     7.4118561562192341E-025
  -2.0000000000000000E-002     1.2049985295985959E-024
  -1.9949999999999999E-002     1.5533618667008065E-024
  -1.9900000000000001E-002     1.6935073341940512E-024
  -1.9850000000000000E-002     1.5500976712624933E-024
  -1.9799999999999998E-002     1.0835172910170862E-024
  -1.9750000000000000E-002     3.0562766221381783E-025
  -1.9699999999999999E-002    -7.1059199060488857E-025
  -1.9650000000000001E-002    -1.8307431084460523E-024
  -1.9599999999999999E-002    -2.8702169937726387E-024
  -1.9550000000000001E-002    -3.6173872536133211E-024
  -1.9500000000000000E-002    -3.8670793080581787E-024
  -1.9449999999999999E-002    -3.4602970067767305E-024
  -1.9400000000000001E-002    -2.3241187810844101E-024
  -1.9349999999999999E-002    -5.0431899330511919E-025
  -1.9300000000000001E-002     1.8169575631883695E-024
  -1.9250000000000000E-002     4.3249878438377067E-024
  -1.9199999999999998E-002     6.6016255402556861E-024
  -1.9150000000000000E-002     8.1798044752579728E-024
  -1.9099999999999999E-002     8.6186936735094010E-024
  -1.9050000000000001E-002     7.5899893506554344E-024
  -1.9000000000000000E-002     4.9618349214594134E-024
  -1.8949999999999998E-002     8.6452890329592066E-025
  -1.8900000000000000E-002    -4.2777420188450960E-024
  -1.8849999999999999E-002    -9.7618757236995383E-024
  -1.8800000000000001E-002    -1.4674388314762133E-023
  -1.8749999999999999E-002    -1.8012029755980435E-023
  -1.8700000000000001E-002    -1.8843326717402616E-023
  -1.8650000000000000E-002    -1.6490355088394824E-023
  -1.8599999999999998E-002    -1.0702242524885063E-023
  -1.8550000000000001E-002    -1.7878229508901765E-024
  -1.8499999999999999E-002     9.3243682621525931E-024
  -1.8450000000000001E-002     2.1123955186269609E-023
  -1.8400000000000000E-002     3.1667273845373420E-023
  -1.8349999999999998E-002     3.8832496553228422E-023
  -1.8300000000000000E-002     4.0657588270915229E-023
  -1.8249999999999999E-002     3.5718229182029952E-023
  -1.8200000000000001E-002     2.3487251541868951E-023
  -1.8149999999999999E-002     4.6090048929261651E-024
  -1.8100000000000002E-002    -1.8976349329127558E-023
  -1.8050000000000000E-002    -4.4110256240281415E-023
  -1.7999999999999999E-002    -6.6721539045595940E-023
  -1.7950000000000001E-002    -8.2352874619111230E-023
  -1.7899999999999999E-002    -8.6860110126067055E-023
  -1.7850000000000001E-002    -7.7197294935777077E-023
  -1.7800000000000000E-002    -5.2167809597208742E-023
  -1.7749999999999998E-002    -1.3004112873172297E-023
  -1.7700000000000000E-002     3.6358976519148301E-023
  -1.7649999999999999E-002     8.9426199644990282E-023
  -1.7600000000000001E-002     1.3775720467514914E-022
  -1.7550000000000000E-002     1.7204260155230031E-022
  -1.7499999999999998E-002     1.8354526959361750E-022
  -1.7450000000000000E-002     1.6572898911638739E-022
  -1.7399999999999999E-002     1.1582752566989421E-022
  -1.7350000000000001E-002     3.6070058529516277E-023
  -1.7299999999999999E-002    -6.5719048169640153E-023
  -1.7250000000000001E-002    -1.7637329832168224E-022
  -1.7200000000000000E-002    -2.7861348388503065E-022
  -1.7149999999999999E-002    -3.5323038975445244E-022
  -1.7100000000000001E-002    -3.8202664641466265E-022
  -1.7049999999999999E-002    -3.5115271796271934E-022
  -1.7000000000000001E-002    -2.5433358162388079E-022
  -1.6950000000000000E-002    -9.5403924227930238E-023
  -1.6899999999999998E-002     1.1041982205870689E-022
  -1.6850000000000000E-002     3.3699087063407754E-022
  -1.6799999999999999E-002     5.4965311256128716E-022
  -1.6750000000000001E-002     7.0958171188352608E-022
  -1.6700000000000000E-002     7.7964880774280283E-022
  -1.6649999999999998E-002     7.3108573958842681E-022
  -1.6600000000000000E-002     5.4993789629546229E-022
  -1.6549999999999999E-002     2.4216753839284141E-022
  -1.6500000000000001E-002    -1.6371673645195073E-022
  -1.6449999999999999E-002    -6.1739593585116835E-022
  -1.6400000000000001E-002    -1.0513157139230066E-021
  -1.6350000000000000E-002    -1.3890004116594968E-021
  -1.6299999999999999E-002    -1.5563494555408153E-021
  -1.6250000000000001E-002    -1.4945242180247642E-021
  -1.6199999999999999E-002    -1.1725244805435011E-021
  -1.6150000000000001E-002    -5.9728462576032522E-022
  -1.6100000000000000E-002     1.8082974692228673E-022
  -1.6049999999999998E-002     1.0688263767844328E-021
  -1.6000000000000000E-002     1.9391260993927352E-021
  -1.5949999999999999E-002     2.6447202627368340E-021
  -1.5900000000000001E-002     3.0401323740973465E-021
  -1.5850000000000000E-002     3.0056881003919540E-021
  -1.5799999999999998E-002     2.4716538730434267E-021
  -1.5750000000000000E-002     1.4382518661486467E-021
  -1.5699999999999999E-002    -1.2408767097195889E-023
  -1.5650000000000001E-002    -1.7157836551929334E-021
  -1.5599999999999999E-002    -3.4377040952957912E-021
  -1.5550000000000001E-002    -4.9006909993394157E-021
  -1.5500000000000000E-002    -5.8217431819358645E-021
  -1.5449999999999998E-002    -5.9573962077272900E-021
  -1.5400000000000000E-002    -5.1499621950107265E-021
  -1.5349999999999999E-002    -3.3676907705919307E-021
  -1.5300000000000001E-002    -7.3133278094887931E-022
  -1.5250000000000000E-002     2.4794512298642020E-021
  -1.5199999999999998E-002     5.8442710835932002E-021
  -1.5150000000000000E-002     8.8459915439780764E-021
  -1.5099999999999999E-002     1.0937799818143778E-020
  -1.5050000000000001E-002     1.1626437737394058E-020
  -1.4999999999999999E-002     1.0560934601266681E-020
  -1.4949999999999998E-002     7.6134364709253185E-021
  -1.4900000000000000E-002     2.9377509349019305E-021
  -1.4849999999999999E-002    -3.0076621554987188E-021
  -1.4800000000000001E-002    -9.4820044593262032E-021
  -1.4749999999999999E-002    -1.5533867994284954E-020
  -1.4700000000000001E-002    -2.0119139741026745E-020
  -1.4650000000000000E-002    -2.2253832835940418E-020
  -1.4599999999999998E-002    -2.1182924978242098E-020
  -1.4550000000000000E-002    -1.6540561328478655E-020
  -1.4499999999999999E-002    -8.4741146312259718E-021
  -1.4450000000000001E-002     2.2940614150499891E-021
  -1.4400000000000000E-002     1.4487633179964395E-020
  -1.4349999999999998E-002     2.6390353719137624E-020
  -1.4300000000000000E-002     3.6050060144179488E-020
  -1.4249999999999999E-002     4.1554194900891184E-020
  -1.4200000000000001E-002     4.1343868860399388E-020
  -1.4149999999999999E-002     3.4521792641694388E-020
  -1.4099999999999998E-002     2.1103102796131909E-020
  -1.4050000000000000E-002     2.1594531341910482E-021
  -1.3999999999999999E-002    -2.0183961064886799E-020
  -1.3950000000000001E-002    -4.2921128139851720E-020
  -1.3899999999999999E-002    -6.2506444491905908E-020
  -1.3850000000000001E-002    -7.5335759063280113E-020
  -1.3800000000000000E-002    -7.8311445641293421E-020
  -1.3749999999999998E-002    -6.9413907125224749E-020
  -1.3700000000000000E-002    -4.8188910820858659E-020
  -1.3649999999999999E-002    -1.6060273524159079E-020
  -1.3600000000000001E-002     2.3608138110448339E-020
  -1.3550000000000000E-002     6.5748451013754742E-020
  -1.3499999999999998E-002     1.0412963278580770E-019
  -1.3450000000000000E-002     1.3216262353981751E-019
  -1.3399999999999999E-002     1.4388150483790154E-019
  -1.3350000000000001E-002     1.3497200893979153E-019
  -1.3299999999999999E-002     1.0369284985565813E-019
  -1.3249999999999998E-002     5.1529911560352271E-020
  -1.3200000000000000E-002    -1.6557403744497890E-020
  -1.3149999999999998E-002    -9.2394934372300846E-020
  -1.3100000000000001E-002    -1.6538995747326180E-019
  -1.3049999999999999E-002    -2.2381839692146955E-019
  -1.3000000000000001E-002    -2.5647411541395657E-019
  -1.2950000000000000E-002    -2.5447736625126856E-019
  -1.2899999999999998E-002    -2.1298566138370480E-019
  -1.2850000000000000E-002    -1.3253028114980303E-019
  -1.2799999999999999E-002    -1.9718618972731749E-020