  -4.0000000000000001E-002     0.0000000000000000     
  -3.9949999999999999E-002     0.0000000000000000     
  -3.9899999999999998E-002     0.0000000000000000     
  -3.9850000000000003E-002     0.0000000000000000     
  -3.9800000000000002E-002     0.0000000000000000     
  -3.9750000000000001E-002     0.0000000000000000     
  -3.9699999999999999E-002     0.0000000000000000     
  -3.9649999999999998E-002     0.0000000000000000     
  -3.9600000000000003E-002     0.0000000000000000     
  -3.9550000000000002E-002     0.0000000000000000     
  -3.9500000000000000E-002     0.0000000000000000     
  -3.9449999999999999E-002     0.0000000000000000     
  -3.9399999999999998E-002     0.0000000000000000     
  -3.9350000000000003E-002     0.0000000000000000     
  -3.9300000000000002E-002     0.0000000000000000     
  -3.9250000000000000E-002     0.0000000000000000     
  -3.9199999999999999E-002     0.0000000000000000     
  -3.9150000000000004E-002     0.0000000000000000     
  -3.9100000000000003E-002     0.0000000000000000     
  -3.9050000000000001E-002     0.0000000000000000     
  -3.9000000000000000E-002     0.0000000000000000     
  -3.8949999999999999E-002     0.0000000000000000     
  -3.8900000000000004E-002     5.0285844386142701E-039
  -3.8850000000000003E-002     2.0295418521668451E-038
  -3.8800000000000001E-002     5.7585151597250646E-038
  -3.8750000000000000E-002     1.5976202433681768E-037
  -3.8699999999999998E-002     2.9955174551528589E-037
  -3.8650000000000004E-002     1.8911640196199088E-037
  -3.8600000000000002E-002    -1.4213498077497326E-036
  -3.8550000000000001E-002    -8.3474843189506434E-036
  -3.8500000000000000E-002    -2.9948298698355764E-035
  -3.8449999999999998E-002    -8.4969471771861017E-035
  -3.8400000000000004E-002    -2.0250364419878483E-034
  -3.8350000000000002E-002    -4.0896091286641304E-034
  -3.8300000000000001E-002    -6.7762212525897122E-034
  -3.8249999999999999E-002    -8.0355175808279244E-034
  -3.8199999999999998E-002    -1.6554120961694783E-034
  -3.8150000000000003E-002     2.6203086609461346E-033
  -3.8100000000000002E-002     1.0013600030723622E-032
  -3.8050000000000000E-002     2.5403279821939684E-032
  -3.7999999999999999E-002     5.1638984701883068E-032
  -3.7949999999999998E-002     8.6922518602998391E-032
  -3.7900000000000003E-002     1.1667061457372077E-031
  -3.7850000000000002E-002     1.0102965497076316E-031
  -3.7800000000000000E-002    -3.9027800680406542E-032
  -3.7749999999999999E-002    -4.2778750903350484E-031
  -3.7699999999999997E-002    -1.2147005851272654E-030
  -3.7650000000000003E-002    -2.5006794976836898E-030
  -3.7600000000000001E-002    -4.1813218954434172E-030
  -3.7550000000000000E-002    -5.6942927952974120E-030
  -3.7499999999999999E-002    -5.7075855185502893E-030
  -3.7449999999999997E-002    -1.8773484349538562E-030
  -3.7400000000000003E-002     9.0685060419684536E-030
  -3.7350000000000001E-002     3.0540666043658885E-029
  -3.7300000000000000E-002     6.4175406949407451E-029
  -3.7249999999999998E-002     1.0655622431238833E-028
  -3.7200000000000004E-002     1.4485181529562785E-028
  -3.7150000000000002E-002     1.5259984309701264E-028
  -3.7100000000000001E-002     8.8145624017352709E-029
  -3.7050000000000000E-002    -1.0051738574513581E-028
  -3.6999999999999998E-002    -4.6028086453787240E-028
  -3.6950000000000004E-002    -1.0038820516614661E-027
  -3.6900000000000002E-002    -1.6683528716136233E-027
  -3.6850000000000001E-002    -2.2692084469829101E-027
  -3.6799999999999999E-002    -2.4682087366298562E-027
  -3.6749999999999998E-002    -1.7818926464570438E-027
  -3.6700000000000003E-002     3.3740120317133876E-028
  -3.6650000000000002E-002     4.3225907150874486E-027
  -3.6600000000000001E-002     1.0212087965651115E-026
  -3.6549999999999999E-002     1.7307206564246698E-026
  -3.6499999999999998E-002     2.3859389139970800E-026
  -3.6450000000000003E-002     2.6934782695914465E-026
  -3.6400000000000002E-002     2.2636122649901808E-026
  -3.6350000000000000E-002     6.8444870418631418E-027
  -3.6299999999999999E-002    -2.3448027472790579E-026
  -3.6249999999999998E-002    -6.8317758588057292E-026
  -3.6200000000000003E-002    -1.2294303756004117E-025
  -3.6150000000000002E-002    -1.7608503197681699E-025
  -3.6100000000000000E-002    -2.0978968255416248E-025
  -3.6049999999999999E-002    -2.0109473688982722E-025
  -3.6000000000000004E-002    -1.2628056537133642E-025
  -3.5950000000000003E-002     3.2336139268474313E-026
  -3.5900000000000001E-002     2.7785850805157679E-025
  -3.5850000000000000E-002     5.9021084828908908E-025
  -3.5799999999999998E-002     9.1996734999083543E-025
  -3.5750000000000004E-002     1.1874808374379062E-024
  -3.5700000000000003E-002     1.2899099398489116E-024
  -3.5650000000000001E-002     1.1176360979286629E-024
  -3.5600000000000000E-002     5.7960791077440072E-025
  -3.5549999999999998E-002    -3.6542804347881418E-025
  -3.5500000000000004E-002    -1.6776038843193029E-024
  -3.5450000000000002E-002    -3.2125566100014732E-024
  -3.5400000000000001E-002    -4.7149896771482206E-024
  -3.5349999999999999E-002    -5.8370175823104377E-024
  -3.5299999999999998E-002    -6.1853642501831586E-024
  -3.5250000000000004E-002    -5.3951034211444775E-024
  -3.5200000000000002E-002    -3.2194073225810865E-024
  -3.5150000000000001E-002     3.8334762594668435E-025
  -3.5099999999999999E-002     5.1890502738769374E-024
  -3.5049999999999998E-002     1.0697063401335636E-023
  -3.5000000000000003E-002     1.6182912920936714E-023
  -3.4950000000000002E-002     2.0809912364884172E-023
  -3.4900000000000000E-002     2.3771234353231172E-023
  -3.4849999999999999E-002     2.4412229901288563E-023
  -3.4799999999999998E-002     2.2274368772970431E-023
  -3.4750000000000003E-002     1.7018650196238583E-023
  -3.4700000000000002E-002     8.2338166484314075E-024
  -3.4650000000000000E-002    -4.7915586333334295E-024
  -3.4599999999999999E-002    -2.3175102033900397E-023
  -3.4549999999999997E-002    -4.8218512088452628E-023
  -3.4500000000000003E-002    -8.0676975565343807E-023
  -3.4450000000000001E-002    -1.1947422851651033E-022
  -3.4400000000000000E-002    -1.6006428128090189E-022
  -3.4349999999999999E-002    -1.9295514938320923E-022
  -3.4299999999999997E-002    -2.0318959189559471E-022
  -3.4250000000000003E-002    -1.7168062230532764E-022
  -3.4200000000000001E-002    -7.9081984929937657E-023
  -3.4150000000000000E-002     8.7745037426362164E-023
  -3.4099999999999998E-002     3.2758219028447315E-022
  -3.4049999999999997E-002     6.1705257406353538E-022
  -3.4000000000000002E-002     9.0608326971646246E-022
  -3.3950000000000001E-002     1.1197577704098134E-021
  -3.3900000000000000E-002     1.1688390692182880E-021
  -3.3849999999999998E-002     9.6922461324432493E-022
  -3.3799999999999997E-002     4.6768282989538023E-022
  -3.3750000000000002E-002    -3.3186075351602866E-022
  -3.3700000000000001E-002    -1.3493967313655723E-021
  -3.3649999999999999E-002    -2.4253850208603583E-021
  -3.3599999999999998E-002    -3.3384041910742901E-021
  -3.3550000000000003E-002    -3.8443948137436704E-021
  -3.3500000000000002E-002    -3.7313000166623736E-021
  -3.3450000000000001E-002    -2.8766307635731554E-021
  -3.3399999999999999E-002    -1.2919600054527189E-021
  -3.3349999999999998E-002     8.6044206587897745E-022
  -3.3300000000000003E-002     3.2870601037549735E-021
  -3.3250000000000002E-002     5.6162245605827992E-021
  -3.3200000000000000E-002     7.4708511436979104E-021
  -3.3149999999999999E-002     8.5387246747864135E-021
  -3.3099999999999997E-002     8.6176376293347233E-021
  -3.3050000000000003E-002     7.6214614417114243E-021
  -3.3000000000000002E-002     5.5497870638857407E-021
  -3.2950000000000000E-002     2.4426283134382964E-021
  -3.2899999999999999E-002    -1.6452793157653969E-021
  -3.2850000000000004E-002    -6.6167972032968775E-021
  -3.2800000000000003E-002    -1.2236396230251045E-020
  -3.2750000000000001E-002    -1.7985636168226957E-020
  -3.2700000000000000E-002    -2.2929909478235434E-020
  -3.2649999999999998E-002    -2.5685318703625897E-020
  -3.2600000000000004E-002    -2.4574859722426447E-020
  -3.2550000000000003E-002    -1.8022923618313836E-020
  -3.2500000000000001E-002    -5.1574138739603592E-021
  -3.2450000000000000E-002     1.3512744811545414E-020
  -3.2399999999999998E-002     3.5567620243289891E-020
  -3.2350000000000004E-002     5.6556644927122553E-020
  -3.2300000000000002E-002     7.0507991723690007E-020
  -3.2250000000000001E-002     7.1144881309814452E-020
  -3.2199999999999999E-002     5.3668697845460286E-020
  -3.2149999999999998E-002     1.6728032423905398E-020
  -3.2100000000000004E-002    -3.5994182620108288E-020
  -3.2050000000000002E-002    -9.5194941976688352E-020
  -3.2000000000000001E-002    -1.4684893995981942E-019
  -3.1949999999999999E-002    -1.7474144083441284E-019
  -3.1899999999999998E-002    -1.6432528841766563E-019
  -3.1850000000000003E-002    -1.0711576341789090E-019
  -3.1800000000000002E-002    -4.4987029312151906E-021
  -3.1750000000000000E-002     1.3024021871105861E-019
  -3.1699999999999999E-002     2.7257788939488787E-019
  -3.1649999999999998E-002     3.9042519403047661E-019
  -3.1600000000000003E-002     4.5034003630014970E-019
  -3.1550000000000002E-002     4.2505784526330396E-019
  -3.1500000000000000E-002     3.0061936267352194E-019
  -3.1449999999999999E-002     8.1317593473462637E-020
  -3.1399999999999997E-002    -2.0886721077471057E-019
  -3.1350000000000003E-002    -5.2883125391320363E-019
  -3.1300000000000001E-002    -8.2638838832313431E-019
  -3.1250000000000000E-002    -1.0464103884170039E-018
  -3.1199999999999999E-002    -1.1392728270717060E-018
  -3.1150000000000001E-002    -1.0679822735177118E-018
  -3.1100000000000003E-002    -8.1305874130053365E-019
  -3.1050000000000001E-002    -3.7520870141056504E-019
  -3.1000000000000000E-002     2.2337085023947125E-019
  -3.0949999999999998E-002     9.3794823437780960E-019
  -3.0900000000000000E-002     1.6998740400550724E-018
  -3.0850000000000002E-002     2.4154587232204665E-018
  -3.0800000000000001E-002     2.9671874115339886E-018
  -3.0750000000000000E-002     3.2204309535417531E-018
  -3.0699999999999998E-002     3.0387915744324741E-018
  -3.0650000000000000E-002     2.3096175767439552E-018
  -3.0600000000000002E-002     9.7804633112191633E-019
  -3.0550000000000001E-002    -9.1617955522803832E-019
  -3.0499999999999999E-002    -3.2087172848486240E-018
  -3.0449999999999998E-002    -5.5991564781141534E-018
  -3.0400000000000000E-002    -7.6688070998954471E-018
  -3.0350000000000002E-002    -8.9337612297766157E-018
  -3.0300000000000001E-002    -8.9311899740962447E-018
  -3.0249999999999999E-002    -7.3269982826741989E-018
  -3.0200000000000001E-002    -4.0238044638085117E-018
  -3.0150000000000000E-002     7.5732692751680795E-019
  -3.0100000000000002E-002     6.4475703103083513E-018
  -3.0050000000000000E-002     1.2172100549624481E-017
  -2.9999999999999999E-002     1.6867715598190056E-017
  -2.9950000000000001E-002     1.9463546042864246E-017
  -2.9899999999999999E-002     1.9094952226438810E-017
  -2.9850000000000002E-002     1.5308642117201302E-017
  -2.9800000000000000E-002     8.2137445281608678E-018
  -2.9749999999999999E-002    -1.4591118435876801E-018
  -2.9700000000000001E-002    -1.2411818871288837E-017
  -2.9650000000000003E-002    -2.2944211449463969E-017
  -2.9600000000000001E-002    -3.1206005072084172E-017
  -2.9550000000000000E-002    -3.5492589415493322E-017
  -2.9499999999999998E-002    -3.4534111349317227E-017
  -2.9450000000000000E-002    -2.7730850340842355E-017
  -2.9400000000000003E-002    -1.5301050679763493E-017
  -2.9350000000000001E-002     1.6744541366931994E-018
  -2.9300000000000000E-002     2.1309463887120489E-017
  -2.9249999999999998E-002     4.1059605221674770E-017
  -2.9200000000000000E-002     5.7945772739523692E-017
  -2.9150000000000002E-002     6.8845391480822985E-017
  -2.9100000000000001E-002     7.0849884829776220E-017
  -2.9049999999999999E-002     6.1687236720824780E-017
  -2.8999999999999998E-002     4.0196293970932897E-017
  -2.8950000000000000E-002     6.8118890877246860E-018
  -2.8900000000000002E-002    -3.6018664648758281E-017
  -2.8850000000000001E-002    -8.3604982462921548E-017
  -2.8799999999999999E-002    -1.2910701043383269E-016
  -2.8749999999999998E-002    -1.6407706170181334E-016
  -2.8700000000000000E-002    -1.7951636352401109E-016
  -2.8650000000000002E-002    -1.6740760319634984E-016
  -2.8600000000000000E-002    -1.2255021182715588E-016
  -2.8549999999999999E-002    -4.4388293743229303E-017
  -2.8500000000000001E-002     6.1578421058450355E-017
  -2.8450000000000000E-002     1.8323553947729865E-016
  -2.8400000000000002E-002     3.0250420212038654E-016
  -2.8350000000000000E-002     3.9737348226679112E-016
  -2.8299999999999999E-002     4.4521609814915135E-016
  -2.8250000000000001E-002     4.2698061146045298E-016
  -2.8200000000000003E-002     3.3157445756161400E-016
  -2.8150000000000001E-002     1.5957581486999391E-016
  -2.8100000000000000E-002    -7.4602419624390625E-017
  -2.8049999999999999E-002    -3.4279848578432115E-016
  -2.8000000000000001E-002    -6.0578823601687765E-016
  -2.7950000000000003E-002    -8.1844898987007471E-016
  -2.7900000000000001E-002    -9.3677238459053110E-016
  -2.7850000000000000E-002    -9.2566399580557135E-016
  -2.7799999999999998E-002    -7.6620506229927068E-016
  -2.7750000000000000E-002    -4.6102381672870431E-016
  -2.7700000000000002E-002    -3.6651119261431353E-017
  -2.7650000000000001E-002     4.5781810883861497E-016
  -2.7600000000000000E-002     9.5584904504516871E-016
  -2.7549999999999998E-002     1.3818480251874352E-015
  -2.7500000000000000E-002     1.6617304212872828E-015
  -2.7450000000000002E-002     1.7342317088790690E-015
  -2.7400000000000001E-002     1.5613633762283424E-015
  -2.7349999999999999E-002     1.1364876970439629E-015
  -2.7299999999999998E-002     4.8875301712285157E-016
  -2.7250000000000000E-002    -3.1695953548571025E-016
  -2.7200000000000002E-002    -1.1849357398495402E-015
  -2.7150000000000001E-002    -1.9982076537114492E-015
  -2.7099999999999999E-002    -2.6321177053838923E-015
  -2.7049999999999998E-002    -2.9706594272312798E-015
  -2.7000000000000000E-002    -2.9239122585407811E-015
  -2.6950000000000002E-002    -2.4444820676216505E-015
  -2.6900000000000000E-002    -1.5405891323280839E-015
  -2.6849999999999999E-002    -2.8341131582550967E-016
  -2.6800000000000001E-002     1.1934266828550662E-015
  -2.6749999999999999E-002     2.7036225826695710E-015
  -2.6700000000000002E-002     4.0275120366018234E-015
  -2.6650000000000000E-002     4.9397525139599683E-015
  -2.6599999999999999E-002     5.2425713079792358E-015
  -2.6550000000000001E-002     4.8002801354411736E-015
  -2.6500000000000003E-002     3.5697141875575464E-015
  -2.6450000000000001E-002     1.6209753648313559E-015
  -2.6400000000000000E-002    -8.5644517254523035E-016
  -2.6349999999999998E-002    -3.5653823794975397E-015
  -2.6300000000000000E-002    -6.1312378672825566E-015
  -2.6250000000000002E-002    -8.1484036131633549E-015
  -2.6200000000000001E-002    -9.2375727259056449E-015
  -2.6150000000000000E-002    -9.1062494236588380E-015
  -2.6099999999999998E-002    -7.6034622888802532E-015
  -2.6050000000000000E-002    -4.7597608718834958E-015
  -2.6000000000000002E-002    -8.0505844162946497E-016
  -2.5950000000000001E-002     3.8403782341404791E-015
  -2.5899999999999999E-002     8.6029520366496110E-015
  -2.5849999999999998E-002     1.2818117055303208E-014
  -2.5800000000000000E-002     1.5811895753543221E-014
  -2.5750000000000002E-002     1.6992489999509131E-014
  -2.5700000000000001E-002     1.5941109013073528E-014
  -2.5649999999999999E-002     1.2490476818845401E-014
  -2.5599999999999998E-002     6.7799627539016076E-015
  -2.5550000000000000E-002    -7.2217469318772736E-016
  -2.5500000000000002E-002    -9.2363558572826771E-015
  -2.5450000000000000E-002    -1.7732418945685697E-014
  -2.5399999999999999E-002    -2.5032428556419083E-014
  -2.5349999999999998E-002    -2.9949136130080341E-014
  -2.5300000000000000E-002    -3.1447927821114337E-014
  -2.5250000000000002E-002    -2.8814420758852149E-014
  -2.5200000000000000E-002    -2.1805278950671122E-014
  -2.5149999999999999E-002    -1.0757351161108146E-014
  -2.5100000000000001E-002     3.3688378173379152E-015
  -2.5049999999999999E-002     1.9030133368186991E-014
  -2.5000000000000001E-002     3.4235679159331162E-014
  -2.4950000000000000E-002     4.6771612202324362E-014
  -2.4899999999999999E-002     5.4495808630643370E-014
  -2.4850000000000001E-002     5.5667533263994290E-014
  -2.4800000000000003E-002     4.9264771220320005E-014
  -2.4750000000000001E-002     3.5236188489662714E-014
  -2.4700000000000000E-002     1.4637281542036045E-014
  -2.4649999999999998E-002    -1.0387507006231267E-014
  -2.4600000000000000E-002    -3.6794327047623953E-014
  -2.4550000000000002E-002    -6.0991987115395611E-014
  -2.4500000000000001E-002    -7.9319143604281230E-014
  -2.4450000000000000E-002    -8.8584152467751903E-014
  -2.4399999999999998E-002    -8.6588115051600167E-014
  -2.4350000000000000E-002    -7.2547119261488759E-014
  -2.4299999999999999E-002    -4.7338408114639179E-014
  -2.4250000000000001E-002    -1.3517654252976542E-014
  -2.4199999999999999E-002     2.4912988493839835E-014
  -2.4150000000000001E-002     6.2968900322019248E-014
  -2.4100000000000000E-002     9.5324944748818525E-014
  -2.4049999999999998E-002     1.1705161030706310E-013
  -2.4000000000000000E-002     1.2434353658136259E-013
  -2.3949999999999999E-002     1.1513548289142183E-013
  -2.3900000000000001E-002     8.9512847977821353E-014
  -2.3850000000000000E-002     4.9849325133929888E-014
  -2.3800000000000002E-002     6.3921072615334329E-016
  -2.3750000000000000E-002    -5.1968254707484858E-014
  -2.3699999999999999E-002    -1.0088642795371877E-013
  -2.3650000000000001E-002    -1.3898067143174740E-013
  -2.3599999999999999E-002    -1.6002551905892516E-013
  -2.3550000000000001E-002    -1.5961253916224682E-013
  -2.3500000000000000E-002    -1.3589225035904185E-013
  -2.3449999999999999E-002    -9.0046242753922950E-014
  -2.3400000000000001E-002    -2.6410942719235100E-014
  -2.3349999999999999E-002     4.7790725425787888E-014
  -2.3300000000000001E-002     1.2311093346307200E-013
  -2.3250000000000000E-002     1.8888686831014785E-013
  -2.3199999999999998E-002     2.3450871734258061E-013
  -2.3150000000000000E-002     2.5081521692417167E-013
  -2.3099999999999999E-002     2.3145827520373101E-013
  -2.3050000000000001E-002     1.7406461532400143E-013
  -2.3000000000000000E-002     8.1029622634941232E-014
  -2.2950000000000002E-002    -4.0193994453224828E-014
  -2.2900000000000000E-002    -1.7740242160417700E-013
  -2.2849999999999999E-002    -3.1456840647389537E-013
  -2.2800000000000001E-002    -4.3334417510219789E-013
  -2.2749999999999999E-002    -5.1502038182342709E-013
  -2.2700000000000001E-002    -5.4275675123178699E-013
  -2.2650000000000000E-002    -5.0385152043598946E-013
  -2.2599999999999999E-002    -3.9179116376983624E-013
  -2.2550000000000001E-002    -2.0782398672658789E-013
  -2.2499999999999999E-002     3.8169662276566177E-014
  -2.2450000000000001E-002     3.2768092952354548E-013
  -2.2400000000000000E-002     6.3454254378501835E-013
  -2.2349999999999998E-002     9.2686164280699359E-013
  -2.2300000000000000E-002     1.1698089588858694E-012
  -2.2249999999999999E-002     1.3290506720848752E-012
  -2.2200000000000001E-002     1.3745181133770952E-012
  -2.2150000000000000E-002     1.2841323653804370E-012
  -2.2100000000000002E-002     1.0470611608471046E-012
  -2.2050000000000000E-002     6.6608802228217866E-013
  -2.1999999999999999E-002     1.5872604558879800E-013
  -2.1950000000000001E-002    -4.4318356368197766E-013
  -2.1899999999999999E-002    -1.0954874177456369E-012
  -2.1850000000000001E-002    -1.7452556027416870E-012
  -2.1800000000000000E-002    -2.3355335223626149E-012
  -2.1749999999999999E-002    -2.8108123877301658E-012
  -2.1700000000000001E-002    -3.1225788769121976E-012
  -2.1649999999999999E-002    -3.2342478612111127E-012
  -2.1600000000000001E-002    -3.1248169824516645E-012
  -2.1550000000000000E-002    -2.7907402909212360E-012
  -2.1499999999999998E-002    -2.2457600784950408E-012
  -2.1450000000000000E-002    -1.5187508609365651E-012
  -2.1399999999999999E-002    -6.4994838972310257E-013
  -2.1350000000000001E-002     3.1377953407001253E-013
  -2.1299999999999999E-002     1.3237849185976635E-012
  -2.1250000000000002E-002     2.3337390445088172E-012
  -2.1200000000000000E-002     3.3022245184427141E-012
  -2.1149999999999999E-002     4.1933383970054934E-012
  -2.1100000000000001E-002     4.9752061387787146E-012
  -2.1049999999999999E-002     5.6167442792730254E-012
  -2.1000000000000001E-002     6.0834117346386106E-012
  -2.0950000000000000E-002     6.3329978308748016E-012
  -2.0899999999999998E-002     6.3126397700572977E-012
  -2.0850000000000000E-002     5.9582075276385839E-012
  -2.0799999999999999E-002     5.1969466603660777E-012
  -2.0750000000000001E-002     3.9538533602912824E-012
  -2.0700000000000000E-002     2.1617418841722297E-012
  -2.0649999999999998E-002    -2.2559077740229718E-013
  -2.0600000000000000E-002    -3.2181780000407257E-012
  -2.0549999999999999E-002    -6.7741392491657137E-012
  -2.0500000000000001E-002    -1.0785030135865481E-011
  -2.0449999999999999E-002    -1.5063965369113873E-011
  -2.0400000000000001E-002    -1.9338014543272318E-011
  -2.0350000000000000E-002    -2.3246038566282578E-011
  -2.0299999999999999E-002    -2.6342718851872844E-011
  -2.0250000000000001E-002    -2.8108994408850637E-011
  -2.0199999999999999E-002    -2.7968653647278467E-011
  -2.0150000000000001E-002    -2.5310313577297780E-011
  -2.0100000000000000E-002    -1.9513613211910555E-011
  -2.0049999999999998E-002    -9.9780961881200210E-012
  -2.0000000000000000E-002     3.8469800632583488E-012
  -1.9949999999999999E-002     2.2433818997015346E-011
  -1.9900000000000001E-002     4.6150172291164964E-011
  -1.9850000000000000E-002     7.5238164473974998E-011
  -1.9799999999999998E-002     1.0979950703711113E-010
  -1.9750000000000000E-002     1.4978828042474452E-010
  -1.9699999999999999E-002     1.9501219977412707E-010
  -1.9650000000000001E-002     2.4514241083530903E-010
  -1.9599999999999999E-002     2.9973162371511756E-010
  -1.9550000000000001E-002     3.5823939052570333E-010
  -1.9500000000000000E-002     4.2006278428857012E-010
  -1.9449999999999999E-002     4.8457063154676667E-010
  -1.9400000000000001E-002     5.5113843659442204E-010
  -1.9349999999999999E-002     6.1918134270910687E-010
  -1.9300000000000001E-002     6.8818315337794658E-010
  -1.9250000000000000E-002     7.5771821192127331E-010
  -1.9199999999999998E-002     8.2746524000211524E-010
  -1.9150000000000000E-002     8.9721240984101075E-010
  -1.9099999999999999E-002     9.6685301570144411E-010
  -1.9050000000000001E-002     1.0363736326777973E-009
  -1.9000000000000000E-002     1.1058357787312995E-009
  -1.8949999999999998E-002     1.1753548406147688E-009
  -1.8900000000000000E-002     1.2450775842072234E-009
  -1.8849999999999999E-002     1.3151627565202010E-009
  -1.8800000000000001E-002     1.3857655437068863E-009
  -1.8749999999999999E-002     1.4570294025429760E-009
  -1.8700000000000001E-002     1.5290837036287204E-009
  -1.8650000000000000E-002     1.6020482798062988E-009
  -1.8599999999999998E-002     1.6760419513309244E-009
  -1.8550000000000001E-002     1.7511933852286533E-009
  -1.8499999999999999E-002     1.8276502839126272E-009
  -1.8450000000000001E-002     1.9055849766565738E-009
  -1.8400000000000000E-002     1.9851940139006948E-009
  -1.8349999999999998E-002     2.0666908320453250E-009
  -1.8300000000000000E-002     2.1502914731776906E-009
  -1.8249999999999999E-002     2.2361960905128528E-009
  -1.8200000000000001E-002     2.3245682840842838E-009
  -1.8149999999999999E-002     2.4155179580432732E-009
  -1.8100000000000002E-002     2.5090879395961013E-009
  -1.8050000000000000E-002     2.6052510937093578E-009
  -1.7999999999999999E-002     2.7039176810343198E-009
  -1.7950000000000001E-002     2.8049528902601609E-009
  -1.7899999999999999E-002     2.9082042692232982E-009
  -1.7850000000000001E-002     3.0135335711604252E-009
  -1.7800000000000000E-002     3.1208508824650816E-009
  -1.7749999999999998E-002     3.2301433826080251E-009
  -1.7700000000000000E-002     3.3414975320266414E-009
  -1.7649999999999999E-002     3.4551088281789363E-009
  -1.7600000000000001E-002     3.5712774259117529E-009
  -1.7550000000000000E-002     3.6903917677342844E-009
  -1.7499999999999998E-002     3.8128997850194302E-009
  -1.7450000000000000E-002     3.9392716984734368E-009
  -1.7399999999999999E-002     4.0699605971111851E-009
  -1.7350000000000001E-002     4.2053628063100448E-009
  -1.7299999999999999E-002     4.3457848841255171E-009
  -1.7250000000000001E-002     4.4914180163020577E-009
  -1.7200000000000000E-002     4.6423280310447218E-009
  -1.7149999999999999E-002     4.7984526741751348E-009
  -1.7100000000000001E-002     4.9596167811308552E-009
  -1.7049999999999999E-002     5.1255521931027251E-009
  -1.7000000000000001E-002     5.2959315568867439E-009
  -1.6950000000000000E-002     5.4704071063124703E-009
  -1.6899999999999998E-002     5.6486479870413448E-009
  -1.6850000000000000E-002     5.8303823156522898E-009
  -1.6799999999999999E-002     6.0154318771958291E-009
  -1.6750000000000001E-002     6.2037443266904996E-009
  -1.6700000000000000E-002     6.3954138697560492E-009
  -1.6649999999999998E-002     6.5906934754605696E-009
  -1.6600000000000000E-002     6.7899989580300465E-009
  -1.6549999999999999E-002     6.9938938773099235E-009
  -1.6500000000000001E-002     7.2030691272366593E-009
  -1.6449999999999999E-002     7.4183071325722799E-009
  -1.6400000000000001E-002     7.6404353151581433E-009
  -1.6350000000000000E-002     7.8702761007340986E-009
  -1.6299999999999999E-002     8.1085891961485575E-009
  -1.6250000000000001E-002     8.3560179246885053E-009
  -1.6199999999999999E-002     8.6130391359298174E-009
  -1.6150000000000001E-002     8.8799282944828338E-009
  -1.6100000000000000E-002     9.1567310708853890E-009
  -1.6049999999999998E-002     9.4432670880044101E-009
  -1.6000000000000000E-002     9.7391446300882367E-009
  -1.5949999999999999E-002     1.0043807148260814E-008
  -1.5900000000000001E-002     1.0356590634012161E-008
  -1.5850000000000000E-002     1.0676798589746758E-008
  -1.5799999999999998E-002     1.1003788602539669E-008
  -1.5750000000000000E-002     1.1337051189641307E-008
  -1.5699999999999999E-002     1.1676285677959480E-008
  -1.5650000000000001E-002     1.2021456025323382E-008
  -1.5599999999999999E-002     1.2372820981750378E-008
  -1.5550000000000001E-002     1.2730935514510009E-008
  -1.5500000000000000E-002     1.3096632331885257E-008
  -1.5449999999999998E-002     1.3470961913063906E-008
  -1.5400000000000000E-002     1.3855127257728493E-008
  -1.5349999999999999E-002     1.4250395486796355E-008
  -1.5300000000000001E-002     1.4658015455292982E-008
  -1.5250000000000000E-002     1.5079139380647935E-008
  -1.5199999999999998E-002     1.5514753925051280E-008
  -1.5150000000000000E-002     1.5965639698146478E-008
  -1.5099999999999999E-002     1.6432346597094147E-008
  -1.5050000000000001E-002     1.6915196156152713E-008
  -1.4999999999999999E-002     1.7414292186572424E-008
  -1.4949999999999998E-002     1.7929564655579853E-008
  -1.4900000000000000E-002     1.8460795201874801E-008
  -1.4849999999999999E-002     1.9007671293747987E-008
  -1.4800000000000001E-002     1.9569816573443539E-008
  -1.4749999999999999E-002     2.0146840427955747E-008
  -1.4700000000000001E-002     2.0738360975083086E-008
  -1.4650000000000000E-002     2.1344035407895529E-008
  -1.4599999999999998E-002     2.1963591657929910E-008
  -1.4550000000000000E-002     2.2596850021115061E-008
  -1.4499999999999999E-002     2.3243762699572720E-008
  -1.4450000000000001E-002     2.3904435396267685E-008
  -1.4400000000000000E-002     2.4579163354936107E-008
  -1.4349999999999998E-002     2.5268464717799364E-008
  -1.4300000000000000E-002     2.5973098290295478E-008
  -1.4249999999999999E-002     2.6694071262303737E-008
  -1.4200000000000001E-002     2.7432628362837580E-008
  -1.4149999999999999E-002     2.8190219351780707E-008
  -1.4099999999999998E-002     2.8968444889126211E-008
  -1.4050000000000000E-002     2.9768975349021205E-008
  -1.3999999999999999E-002     3.0593455503328058E-008
  -1.3950000000000001E-002     3.1443409460127574E-008
  -1.3899999999999999E-002     3.2320139013257709E-008
  -1.3850000000000001E-002     3.3224643041003790E-008
  -1.3800000000000000E-002     3.4157561513575613E-008
  -1.3749999999999998E-002     3.5119147189153100E-008
  -1.3700000000000000E-002     3.6109285873520836E-008
  -1.3649999999999999E-002     3.7127557243219245E-008
  -1.3600000000000001E-002     3.8173305094324929E-008
  -1.3550000000000000E-002     3.9245770001766440E-008
  -1.3499999999999998E-002     4.0344193520564492E-008
  -1.3450000000000000E-002     4.1467952437294744E-008
  -1.3399999999999999E-002     4.2616661166395399E-008
  -1.3350000000000001E-002     4.3790256338013857E-008
  -1.3299999999999999E-002     4.4989039090461083E-008
  -1.3249999999999998E-002     4.6213710703229014E-008
  -1.3200000000000000E-002     4.7465346445358978E-008
  -1.3149999999999998E-002     4.8745360909517601E-008
  -1.3100000000000001E-002     5.0055452590992985E-008
  -1.3049999999999999E-002     5.1397517401754433E-008
  -1.3000000000000001E-002     5.2773583386848096E-008
  -1.2950000000000000E-002     5.4185703622911822E-008
  -1.2899999999999998E-002     5.5635891113327533E-008
  -1.2850000000000000E-002     5.7126018533649237E-008
  -1.2799999999999999E-002     5.8657754644208204E-008