  -4.0000000000000001E-002     0.0000000000000000     
  -3.9949999999999999E-002     0.0000000000000000     
  -3.9899999999999998E-002     0.0000000000000000     
  -3.9850000000000003E-002     0.0000000000000000     
  -3.9800000000000002E-002     0.0000000000000000     
  -3.9750000000000001E-002     0.0000000000000000     
  -3.9699999999999999E-002     0.0000000000000000     
  -3.9649999999999998E-002     0.0000000000000000     
  -3.9600000000000003E-002     0.0000000000000000     
  -3.9550000000000002E-002     0.0000000000000000     
  -3.9500000000000000E-002     0.0000000000000000     
  -3.9449999999999999E-002     0.0000000000000000     
  -3.9399999999999998E-002     0.0000000000000000     
  -3.9350000000000003E-002     0.0000000000000000     
  -3.9300000000000002E-002     0.0000000000000000     
  -3.9250000000000000E-002     0.0000000000000000     
  -3.9199999999999999E-002     0.0000000000000000     
  -3.9150000000000004E-002     0.0000000000000000     
  -3.9100000000000003E-002     0.0000000000000000     
  -3.9050000000000001E-002     0.0000000000000000     
  -3.9000000000000000E-002     0.0000000000000000     
  -3.8949999999999999E-002     0.0000000000000000     
  -3.8900000000000004E-002     0.0000000000000000     
  -3.8850000000000003E-002     0.0000000000000000     
  -3.8800000000000001E-002     0.0000000000000000     
  -3.8750000000000000E-002     0.0000000000000000     
  -3.8699999999999998E-002     0.0000000000000000     
  -3.8650000000000004E-002     0.0000000000000000     
  -3.8600000000000002E-002     0.0000000000000000     
  -3.8550000000000001E-002     0.0000000000000000     
  -3.8500000000000000E-002     0.0000000000000000     
  -3.8449999999999998E-002     0.0000000000000000     
  -3.8400000000000004E-002     0.0000000000000000     
  -3.8350000000000002E-002     0.0000000000000000     
  -3.8300000000000001E-002     0.0000000000000000     
  -3.8249999999999999E-002     0.0000000000000000     
  -3.8199999999999998E-002     0.0000000000000000     
  -3.8150000000000003E-002     0.0000000000000000     
  -3.8100000000000002E-002     0.0000000000000000     
  -3.8050000000000000E-002     0.0000000000000000     
  -3.7999999999999999E-002     0.0000000000000000     
  -3.7949999999999998E-002     0.0000000000000000     
  -3.7900000000000003E-002     0.0000000000000000     
  -3.7850000000000002E-002     0.0000000000000000     
  -3.7800000000000000E-002     0.0000000000000000     
  -3.7749999999999999E-002     0.0000000000000000     
  -3.7699999999999997E-002     0.0000000000000000     
  -3.7650000000000003E-002     0.0000000000000000     
  -3.7600000000000001E-002     0.0000000000000000     
  -3.7550000000000000E-002     0.0000000000000000     
  -3.7499999999999999E-002     0.0000000000000000     
  -3.7449999999999997E-002     0.0000000000000000     
  -3.7400000000000003E-002     0.0000000000000000     
  -3.7350000000000001E-002     0.0000000000000000     
  -3.7300000000000000E-002     0.0000000000000000     
  -3.7249999999999998E-002     0.0000000000000000     
  -3.7200000000000004E-002     0.0000000000000000     
  -3.7150000000000002E-002     0.0000000000000000     
  -3.7100000000000001E-002     0.0000000000000000     
  -3.7050000000000000E-002     0.0000000000000000     
  -3.6999999999999998E-002     0.0000000000000000     
  -3.6950000000000004E-002     0.0000000000000000     
  -3.6900000000000002E-002     0.0000000000000000     
  -3.6850000000000001E-002     0.0000000000000000     
  -3.6799999999999999E-002     0.0000000000000000     
  -3.6749999999999998E-002     0.0000000000000000     
  -3.6700000000000003E-002     0.0000000000000000     
  -3.6650000000000002E-002     0.0000000000000000     
  -3.6600000000000001E-002     0.0000000000000000     
  -3.6549999999999999E-002     0.0000000000000000     
  -3.6499999999999998E-002     0.0000000000000000     
  -3.6450000000000003E-002     0.0000000000000000     
  -3.6400000000000002E-002     0.0000000000000000     
  -3.6350000000000000E-002     0.0000000000000000     
  -3.6299999999999999E-002     0.0000000000000000     
  -3.6249999999999998E-002     0.0000000000000000     
  -3.6200000000000003E-002     0.0000000000000000     
  -3.6150000000000002E-002     0.0000000000000000     
  -3.6100000000000000E-002     0.0000000000000000     
  -3.6049999999999999E-002     0.0000000000000000     
  -3.6000000000000004E-002     0.0000000000000000     
  -3.5950000000000003E-002     0.0000000000000000     
  -3.5900000000000001E-002     0.0000000000000000     
  -3.5850000000000000E-002     0.0000000000000000     
  -3.5799999999999998E-002     0.0000000000000000     
  -3.5750000000000004E-002     0.0000000000000000     
  -3.5700000000000003E-002     0.0000000000000000     
  -3.5650000000000001E-002     0.0000000000000000     
  -3.5600000000000000E-002     0.0000000000000000     
  -3.5549999999999998E-002     0.0000000000000000     
  -3.5500000000000004E-002     0.0000000000000000     
  -3.5450000000000002E-002     0.0000000000000000     
  -3.5400000000000001E-002     0.0000000000000000     
  -3.5349999999999999E-002     0.0000000000000000     
  -3.5299999999999998E-002     0.0000000000000000     
  -3.5250000000000004E-002     0.0000000000000000     
  -3.5200000000000002E-002     0.0000000000000000     
  -3.5150000000000001E-002     0.0000000000000000     
  -3.5099999999999999E-002     0.0000000000000000     
  -3.5049999999999998E-002     0.0000000000000000     
  -3.5000000000000003E-002     0.0000000000000000     
  -3.4950000000000002E-002     0.0000000000000000     
  -3.4900000000000000E-002     0.0000000000000000     
  -3.4849999999999999E-002     0.0000000000000000     
  -3.4799999999999998E-002     0.0000000000000000     
  -3.4750000000000003E-002     0.0000000000000000     
  -3.4700000000000002E-002     0.0000000000000000     
  -3.4650000000000000E-002     0.0000000000000000     
  -3.4599999999999999E-002     0.0000000000000000     
  -3.4549999999999997E-002     0.0000000000000000     
  -3.4500000000000003E-002     0.0000000000000000     
  -3.4450000000000001E-002     0.0000000000000000     
  -3.4400000000000000E-002     0.0000000000000000     
  -3.4349999999999999E-002     0.0000000000000000     
  -3.4299999999999997E-002     0.0000000000000000     
  -3.4250000000000003E-002     0.0000000000000000     
  -3.4200000000000001E-002     0.0000000000000000     
  -3.4150000000000000E-002     0.0000000000000000     
  -3.4099999999999998E-002     0.0000000000000000     
  -3.4049999999999997E-002     0.0000000000000000     
  -3.4000000000000002E-002     0.0000000000000000     
  -3.3950000000000001E-002     0.0000000000000000     
  -3.3900000000000000E-002     0.0000000000000000     
  -3.3849999999999998E-002     0.0000000000000000     
  -3.3799999999999997E-002     0.0000000000000000     
  -3.3750000000000002E-002     0.0000000000000000     
  -3.3700000000000001E-002     0.0000000000000000     
  -3.3649999999999999E-002     0.0000000000000000     
  -3.3599999999999998E-002     0.0000000000000000     
  -3.3550000000000003E-002     0.0000000000000000     
  -3.3500000000000002E-002     0.0000000000000000     
  -3.3450000000000001E-002     0.0000000000000000     
  -3.3399999999999999E-002     0.0000000000000000     
  -3.3349999999999998E-002     0.0000000000000000     
  -3.3300000000000003E-002     0.0000000000000000     
  -3.3250000000000002E-002     0.0000000000000000     
  -3.3200000000000000E-002     0.0000000000000000     
  -3.3149999999999999E-002     0.0000000000000000     
  -3.3099999999999997E-002     0.0000000000000000     
  -3.3050000000000003E-002     0.0000000000000000     
  -3.3000000000000002E-002     0.0000000000000000     
  -3.2950000000000000E-002     0.0000000000000000     
  -3.2899999999999999E-002     0.0000000000000000     
  -3.2850000000000004E-002     0.0000000000000000     
  -3.2800000000000003E-002     0.0000000000000000     
  -3.2750000000000001E-002     0.0000000000000000     
  -3.2700000000000000E-002     0.0000000000000000     
  -3.2649999999999998E-002     0.0000000000000000     
  -3.2600000000000004E-002     0.0000000000000000     
  -3.2550000000000003E-002     0.0000000000000000     
  -3.2500000000000001E-002     0.0000000000000000     
  -3.2450000000000000E-002     0.0000000000000000     
  -3.2399999999999998E-002     0.0000000000000000     
  -3.2350000000000004E-002     0.0000000000000000     
  -3.2300000000000002E-002     0.0000000000000000     
  -3.2250000000000001E-002     0.0000000000000000     
  -3.2199999999999999E-002     0.0000000000000000     
  -3.2149999999999998E-002     0.0000000000000000     
  -3.2100000000000004E-002     0.0000000000000000     
  -3.2050000000000002E-002     0.0000000000000000     
  -3.2000000000000001E-002     0.0000000000000000     
  -3.1949999999999999E-002     0.0000000000000000     
  -3.1899999999999998E-002     0.0000000000000000     
  -3.1850000000000003E-002     0.0000000000000000     
  -3.1800000000000002E-002     0.0000000000000000     
  -3.1750000000000000E-002     0.0000000000000000     
  -3.1699999999999999E-002     0.0000000000000000     
  -3.1649999999999998E-002     0.0000000000000000     
  -3.1600000000000003E-002     0.0000000000000000     
  -3.1550000000000002E-002     0.0000000000000000     
  -3.1500000000000000E-002     0.0000000000000000     
  -3.1449999999999999E-002     0.0000000000000000     
  -3.1399999999999997E-002     0.0000000000000000     
  -3.1350000000000003E-002     0.0000000000000000     
  -3.1300000000000001E-002     0.0000000000000000     
  -3.1250000000000000E-002     0.0000000000000000     
  -3.1199999999999999E-002     0.0000000000000000     
  -3.1150000000000001E-002     0.0000000000000000     
  -3.1100000000000003E-002     0.0000000000000000     
  -3.1050000000000001E-002     0.0000000000000000     
  -3.1000000000000000E-002     0.0000000000000000     
  -3.0949999999999998E-002     0.0000000000000000     
  -3.0900000000000000E-002     0.0000000000000000     
  -3.0850000000000002E-002     0.0000000000000000     
  -3.0800000000000001E-002     0.0000000000000000     
  -3.0750000000000000E-002     0.0000000000000000     
  -3.0699999999999998E-002     0.0000000000000000     
  -3.0650000000000000E-002     0.0000000000000000     
  -3.0600000000000002E-002     0.0000000000000000     
  -3.0550000000000001E-002     0.0000000000000000     
  -3.0499999999999999E-002     0.0000000000000000     
  -3.0449999999999998E-002     0.0000000000000000     
  -3.0400000000000000E-002     0.0000000000000000     
  -3.0350000000000002E-002     0.0000000000000000     
  -3.0300000000000001E-002     0.0000000000000000     
  -3.0249999999999999E-002     0.0000000000000000     
  -3.0200000000000001E-002     0.0000000000000000     
  -3.0150000000000000E-002     0.0000000000000000     
  -3.0100000000000002E-002     0.0000000000000000     
  -3.0050000000000000E-002     0.0000000000000000     
  -2.9999999999999999E-002     0.0000000000000000     
  -2.9950000000000001E-002     0.0000000000000000     
  -2.9899999999999999E-002     0.0000000000000000     
  -2.9850000000000002E-002     0.0000000000000000     
  -2.9800000000000000E-002     0.0000000000000000     
  -2.9749999999999999E-002     0.0000000000000000     
  -2.9700000000000001E-002     0.0000000000000000     
  -2.9650000000000003E-002     0.0000000000000000     
  -2.9600000000000001E-002     0.0000000000000000     
  -2.9550000000000000E-002     0.0000000000000000     
  -2.9499999999999998E-002     0.0000000000000000     
  -2.9450000000000000E-002     0.0000000000000000     
  -2.9400000000000003E-002     0.0000000000000000     
  -2.9350000000000001E-002     0.0000000000000000     
  -2.9300000000000000E-002     0.0000000000000000     
  -2.9249999999999998E-002     0.0000000000000000     
  -2.9200000000000000E-002     0.0000000000000000     
  -2.9150000000000002E-002     0.0000000000000000     
  -2.9100000000000001E-002     0.0000000000000000     
  -2.9049999999999999E-002     0.0000000000000000     
  -2.8999999999999998E-002     0.0000000000000000     
  -2.8950000000000000E-002     0.0000000000000000     
  -2.8900000000000002E-002     0.0000000000000000     
  -2.8850000000000001E-002     0.0000000000000000     
  -2.8799999999999999E-002     0.0000000000000000     
  -2.8749999999999998E-002     0.0000000000000000     
  -2.8700000000000000E-002     0.0000000000000000     
  -2.8650000000000002E-002     0.0000000000000000     
  -2.8600000000000000E-002     0.0000000000000000     
  -2.8549999999999999E-002     0.0000000000000000     
  -2.8500000000000001E-002     0.0000000000000000     
  -2.8450000000000000E-002     0.0000000000000000     
  -2.8400000000000002E-002     0.0000000000000000     
  -2.8350000000000000E-002     0.0000000000000000     
  -2.8299999999999999E-002     0.0000000000000000     
  -2.8250000000000001E-002     0.0000000000000000     
  -2.8200000000000003E-002     0.0000000000000000     
  -2.8150000000000001E-002     0.0000000000000000     
  -2.8100000000000000E-002     0.0000000000000000     
  -2.8049999999999999E-002     0.0000000000000000     
  -2.8000000000000001E-002     0.0000000000000000     
  -2.7950000000000003E-002     0.0000000000000000     
  -2.7900000000000001E-002     0.0000000000000000     
  -2.7850000000000000E-002     0.0000000000000000     
  -2.7799999999999998E-002     0.0000000000000000     
  -2.7750000000000000E-002     0.0000000000000000     
  -2.7700000000000002E-002     0.0000000000000000     
  -2.7650000000000001E-002     0.0000000000000000     
  -2.7600000000000000E-002     0.0000000000000000     
  -2.7549999999999998E-002     0.0000000000000000     
  -2.7500000000000000E-002     0.0000000000000000     
  -2.7450000000000002E-002     0.0000000000000000     
  -2.7400000000000001E-002     0.0000000000000000     
  -2.7349999999999999E-002     0.0000000000000000     
  -2.7299999999999998E-002     0.0000000000000000     
  -2.7250000000000000E-002     0.0000000000000000     
  -2.7200000000000002E-002     0.0000000000000000     
  -2.7150000000000001E-002     0.0000000000000000     
  -2.7099999999999999E-002     0.0000000000000000     
  -2.7049999999999998E-002     0.0000000000000000     
  -2.7000000000000000E-002     0.0000000000000000     
  -2.6950000000000002E-002     0.0000000000000000     
  -2.6900000000000000E-002     0.0000000000000000     
  -2.6849999999999999E-002     0.0000000000000000     
  -2.6800000000000001E-002     0.0000000000000000     
  -2.6749999999999999E-002     0.0000000000000000     
  -2.6700000000000002E-002     0.0000000000000000     
  -2.6650000000000000E-002     0.0000000000000000     
  -2.6599999999999999E-002     0.0000000000000000     
  -2.6550000000000001E-002     0.0000000000000000     
  -2.6500000000000003E-002     0.0000000000000000     
  -2.6450000000000001E-002     0.0000000000000000     
  -2.6400000000000000E-002     0.0000000000000000     
  -2.6349999999999998E-002     0.0000000000000000     
  -2.6300000000000000E-002     0.0000000000000000     
  -2.6250000000000002E-002     0.0000000000000000     
  -2.6200000000000001E-002     0.0000000000000000     
  -2.6150000000000000E-002     0.0000000000000000     
  -2.6099999999999998E-002     0.0000000000000000     
  -2.6050000000000000E-002     0.0000000000000000     
  -2.6000000000000002E-002     0.0000000000000000     
  -2.5950000000000001E-002     0.0000000000000000     
  -2.5899999999999999E-002     0.0000000000000000     
  -2.5849999999999998E-002     0.0000000000000000     
  -2.5800000000000000E-002     0.0000000000000000     
  -2.5750000000000002E-002     0.0000000000000000     
  -2.5700000000000001E-002     0.0000000000000000     
  -2.5649999999999999E-002     0.0000000000000000     
  -2.5599999999999998E-002     0.0000000000000000     
  -2.5550000000000000E-002     0.0000000000000000     
  -2.5500000000000002E-002     0.0000000000000000     
  -2.5450000000000000E-002     0.0000000000000000     
  -2.5399999999999999E-002     0.0000000000000000     
  -2.5349999999999998E-002     0.0000000000000000     
  -2.5300000000000000E-002     0.0000000000000000     
  -2.5250000000000002E-002     0.0000000000000000     
  -2.5200000000000000E-002     0.0000000000000000     
  -2.5149999999999999E-002     0.0000000000000000     
  -2.5100000000000001E-002     0.0000000000000000     
  -2.5049999999999999E-002     0.0000000000000000     
  -2.5000000000000001E-002     0.0000000000000000     
  -2.4950000000000000E-002     0.0000000000000000     
  -2.4899999999999999E-002     0.0000000000000000     
  -2.4850000000000001E-002     0.0000000000000000     
  -2.4800000000000003E-002     0.0000000000000000     
  -2.4750000000000001E-002     0.0000000000000000     
  -2.4700000000000000E-002     0.0000000000000000     
  -2.4649999999999998E-002     0.0000000000000000     
  -2.4600000000000000E-002     0.0000000000000000     
  -2.4550000000000002E-002     0.0000000000000000     
  -2.4500000000000001E-002     0.0000000000000000     
  -2.4450000000000000E-002     0.0000000000000000     
  -2.4399999999999998E-002     0.0000000000000000     
  -2.4350000000000000E-002     0.0000000000000000     
  -2.4299999999999999E-002     0.0000000000000000     
  -2.4250000000000001E-002     0.0000000000000000     
  -2.4199999999999999E-002     0.0000000000000000     
  -2.4150000000000001E-002     0.0000000000000000     
  -2.4100000000000000E-002     0.0000000000000000     
  -2.4049999999999998E-002     0.0000000000000000     
  -2.4000000000000000E-002     0.0000000000000000     
  -2.3949999999999999E-002    -5.8527075845392188E-040
  -2.3900000000000001E-002    -1.2974577319362807E-039
  -2.3850000000000000E-002    -8.0638943735990016E-040
  -2.3800000000000002E-002     0.0000000000000000     
  -2.3750000000000000E-002     6.6765068604620194E-040
  -2.3699999999999999E-002     1.4104806313468348E-039
  -2.3650000000000001E-002     2.6800338725137305E-039
  -2.3599999999999999E-002     4.5511143770103975E-039
  -2.3550000000000001E-002     5.6483905214129691E-039
  -2.3500000000000000E-002     3.1026553842569260E-039
  -2.3449999999999999E-002    -4.0658090986664987E-039
  -2.3400000000000001E-002    -1.1320617351572139E-038
  -2.3349999999999999E-002    -1.4213912829658205E-038
  -2.3300000000000001E-002    -1.2540977586840525E-038
  -2.3250000000000000E-002    -1.2268949334535260E-038
  -2.3199999999999998E-002    -8.0302555958914041E-039
  -2.3150000000000000E-002    -1.0462606583548296E-038
  -2.3099999999999999E-002    -6.7633000950480794E-039
  -2.3050000000000001E-002     8.2000557655922595E-039
  -2.3000000000000000E-002     2.8819612192300323E-038
  -2.2950000000000002E-002     3.8662757806526406E-038
  -2.2900000000000000E-002     4.2616268468963876E-038
  -2.2849999999999999E-002     3.2018374006241453E-038
  -2.2800000000000001E-002     5.7114897973518857E-038
  -2.2749999999999999E-002     8.6776373770652023E-038
  -2.2700000000000001E-002     8.9788137269634304E-038
  -2.2650000000000000E-002     2.2396364362537745E-038
  -2.2599999999999999E-002    -1.0190152465814733E-037
  -2.2550000000000001E-002    -2.3378956753848173E-037
  -2.2499999999999999E-002    -3.1758064145892839E-037
  -2.2450000000000001E-002    -3.4911341976201116E-037
  -2.2400000000000000E-002    -3.0542409125281417E-037
  -2.2349999999999998E-002    -1.7080180510725112E-037
  -2.2300000000000000E-002     9.0326918389483621E-038
  -2.2249999999999999E-002     4.6119487374030661E-037
  -2.2200000000000001E-002     8.6599608380040612E-037
  -2.2150000000000000E-002     1.1798261891767042E-036
  -2.2100000000000002E-002     1.2729423944473825E-036
  -2.2050000000000000E-002     1.0446638239439335E-036
  -2.1999999999999999E-002     4.5466503697065950E-037
  -2.1950000000000001E-002    -4.7294711077992297E-037
  -2.1899999999999999E-002    -1.6385810358640702E-036
  -2.1850000000000001E-002    -2.8418083601221911E-036
  -2.1800000000000000E-002    -3.7677794536881839E-036
  -2.1749999999999999E-002    -4.0370941090221002E-036
  -2.1700000000000001E-002    -3.3073786838986442E-036
  -2.1649999999999999E-002    -1.4213123257177879E-036
  -2.1600000000000001E-002     1.5193892642058113E-036
  -2.1550000000000000E-002     5.1216842843083969E-036
  -2.1499999999999998E-002     8.7103586471346341E-036
  -2.1450000000000000E-002     1.1381385176015431E-035
  -2.1399999999999999E-002     1.2128809634808938E-035
  -2.1350000000000001E-002     1.0062159128246356E-035
  -2.1299999999999999E-002     4.6992768581581085E-036
  -2.1250000000000002E-002    -3.7534826064301962E-036
  -2.1200000000000000E-002    -1.4228133113622360E-035
  -2.1149999999999999E-002    -2.4797524111593239E-035
  -2.1100000000000001E-002    -3.2879256555271589E-035
  -2.1049999999999999E-002    -3.5646858773945458E-035
  -2.1000000000000001E-002    -3.0626420105768245E-035
  -2.0950000000000000E-002    -1.6407001352471629E-035
  -2.0899999999999998E-002     6.6633927134978220E-036
  -2.0850000000000000E-002     3.5979719068283312E-035
  -2.0799999999999999E-002     6.6570903595402580E-035
  -2.0750000000000001E-002     9.1522235399854208E-035
  -2.0700000000000000E-002     1.0298567148678636E-034
  -2.0649999999999998E-002     9.3721993154794098E-035
  -2.0600000000000000E-002     5.8993605857883034E-035
  -2.0549999999999999E-002    -1.5084495974366121E-036
  -2.0500000000000001E-002    -8.2131008062747544E-035
  -2.0449999999999999E-002    -1.7060042041632542E-034
  -2.0400000000000001E-002    -2.4868033038407158E-034
  -2.0350000000000000E-002    -2.9443250400183980E-034
  -2.0299999999999999E-002    -2.8610706399347423E-034
  -2.0250000000000001E-002    -2.0732507723305190E-034
  -2.0199999999999999E-002    -5.2786917132818891E-035
  -2.0150000000000001E-002     1.6667573177216668E-034
  -2.0100000000000000E-002     4.2115620068036472E-034
  -2.0049999999999998E-002     6.6227953707411056E-034
  -2.0000000000000000E-002     8.2843180974186722E-034
  -1.9949999999999999E-002     8.5493649774022868E-034
  -1.9900000000000001E-002     6.8843535598675948E-034
  -1.9850000000000000E-002     3.0347166669797328E-034
  -1.9799999999999998E-002    -2.8197623789895915E-034
  -1.9750000000000000E-002    -9.9615643063192575E-034
  -1.9699999999999999E-002    -1.7127132976536407E-033
  -1.9650000000000001E-002    -2.2627914168580707E-033
  -1.9599999999999999E-002    -2.4614248989330057E-033
  -1.9550000000000001E-002    -2.1464868171308858E-033
  -1.9500000000000000E-002    -1.2248510107867099E-033
  -1.9449999999999999E-002     2.8305298296925886E-034
  -1.9400000000000001E-002     2.2115412526657352E-033
  -1.9349999999999999E-002     4.2425748220000766E-033
  -1.9300000000000001E-002     5.9327836133758368E-033
  -1.9250000000000000E-002     6.7788585224507086E-033
  -1.9199999999999998E-002     6.3175795517174905E-033
  -1.9150000000000000E-002     4.2472546096995641E-033
  -1.9099999999999999E-002     5.4824892538396167E-034
  -1.9050000000000001E-002    -4.4261480384461086E-033
  -1.9000000000000000E-002    -9.9187542260222315E-033
  -1.8949999999999998E-002    -1.4822449364283500E-032
  -1.8900000000000000E-002    -1.7831544061844870E-032
  -1.8849999999999999E-002    -1.7683935922527888E-032
  -1.8800000000000001E-002    -1.3464376415737441E-032
  -1.8749999999999999E-002    -4.9165483384630789E-033
  -1.8700000000000001E-002     7.3052726948440359E-033
  -1.8650000000000000E-002     2.1519836986426918E-032
  -1.8599999999999998E-002     3.5102749578592674E-032
  -1.8550000000000001E-002     4.4808084249114021E-032
  -1.8499999999999999E-002     4.7322046668381411E-032
  -1.8450000000000001E-002     3.9989004612377001E-032
  -1.8400000000000000E-002     2.1595001294246388E-032
  -1.8349999999999998E-002    -6.9508468202502222E-033
  -1.8300000000000000E-002    -4.2217747241505936E-032
  -1.8249999999999999E-002    -7.8304757800264003E-032
  -1.8200000000000001E-002    -1.0745557461399029E-031
  -1.8149999999999999E-002    -1.2125584575785742E-031
  -1.8100000000000002E-002    -1.1230878852360434E-031
  -1.8050000000000000E-002    -7.6150760910662279E-032
  -1.7999999999999999E-002    -1.3050609452740347E-032
  -1.7950000000000001E-002     7.0735093159270712E-032
  -1.7899999999999999E-002     1.6267559492631268E-031
  -1.7850000000000001E-002     2.4497617331500055E-031
  -1.7800000000000000E-002     2.9701749474591097E-031
  -1.7749999999999998E-002     2.9907957744565813E-031
  -1.7700000000000000E-002     2.3688584081746152E-031
  -1.7649999999999999E-002     1.0619781635699054E-031
  -1.7600000000000001E-002    -8.3528097157570681E-032
  -1.7550000000000000E-002    -3.0747032484606536E-031
  -1.7499999999999998E-002    -5.2665704575694718E-031
  -1.7450000000000000E-002    -6.9257625713341770E-031
  -1.7399999999999999E-002    -7.5508886826252969E-031
  -1.7350000000000001E-002    -6.7280917152445864E-031
  -1.7299999999999999E-002    -4.2436160148704026E-031
  -1.7250000000000001E-002    -1.8309854645575407E-032
  -1.7200000000000000E-002     5.0073431523065981E-031
  -1.7149999999999999E-002     1.0521462571762642E-030
  -1.7100000000000001E-002     1.5270633788127033E-030
  -1.7049999999999999E-002     1.8042502572303979E-030
  -1.7000000000000001E-002     1.7727424606636021E-030
  -1.6950000000000000E-002     1.3581661878804686E-030
  -1.6899999999999998E-002     5.4804898001027239E-031
  -1.6850000000000000E-002    -5.8954531127582069E-031
  -1.6799999999999999E-002    -1.8997342490826209E-030
  -1.6750000000000001E-002    -3.1513568960232562E-030
  -1.6700000000000000E-002    -4.0663470110701949E-030
  -1.6649999999999998E-002    -4.3664504279446606E-030
  -1.6600000000000000E-002    -3.8317385368069541E-030
  -1.6549999999999999E-002    -2.3615019571142879E-030
  -1.6500000000000001E-002    -2.5281196369937790E-032
  -1.6449999999999999E-002     2.9091443609722571E-030
  -1.6400000000000001E-002     5.9823450169291207E-030
  -1.6350000000000000E-002     8.5915049871878231E-030
  -1.6299999999999999E-002     1.0080446013188271E-029
  -1.6250000000000001E-002     9.8627643268578696E-030
  -1.6199999999999999E-002     7.5604839097690702E-030
  -1.6150000000000001E-002     3.1331270752127823E-030
  -1.6100000000000000E-002    -3.0318279245421313E-030
  -1.6049999999999998E-002    -1.0095102607445866E-029
  -1.6000000000000000E-002    -1.6829167479287985E-029
  -1.5949999999999999E-002    -2.1776865335025774E-029
  -1.5900000000000001E-002    -2.3495001837079373E-029
  -1.5850000000000000E-002    -2.0852955706242940E-029
  -1.5799999999999998E-002    -1.3338000741647923E-029
  -1.5750000000000000E-002    -1.3065164487095263E-030
  -1.5699999999999999E-002     1.3882925850025709E-029
  -1.5650000000000001E-002     2.9909215832258328E-029
  -1.5599999999999999E-002     4.3733184216303993E-029
  -1.5550000000000001E-002     5.2044684305540483E-029
  -1.5500000000000000E-002     5.1868383746779197E-029
  -1.5449999999999998E-002     4.1242170695078221E-029
  -1.5400000000000000E-002     1.9847688845648541E-029
  -1.5349999999999999E-002    -1.0545249770071224E-029
  -1.5300000000000001E-002    -4.5952357800503381E-029
  -1.5250000000000000E-002    -8.0464593798014732E-029
  -1.5199999999999998E-002    -1.0698998439536508E-028
  -1.5150000000000000E-002    -1.1840109511395071E-028
  -1.5099999999999999E-002    -1.0894967962455175E-028
  -1.5050000000000001E-002    -7.5725839608663337E-029
  -1.4999999999999999E-002    -1.9879998675536960E-029
  -1.4949999999999998E-002     5.2689033099329436E-029
  -1.4900000000000000E-002     1.3143572453099770E-028
  -1.4849999999999999E-002     2.0221489699325186E-028
  -1.4800000000000001E-002     2.4927530876635348E-028
  -1.4749999999999999E-002     2.5801357233339374E-028
  -1.4700000000000001E-002     2.1811049297141669E-028
  -1.4650000000000000E-002     1.2651325790171073E-028
  -1.4599999999999998E-002    -1.0358413013814821E-029
  -1.4550000000000000E-002    -1.7578746638905583E-028
  -1.4499999999999999E-002    -3.4377766368586136E-028
  -1.4450000000000001E-002    -4.8211471338981722E-028
  -1.4400000000000000E-002    -5.5731026259799151E-028
  -1.4349999999999998E-002    -5.4086522097628840E-028
  -1.4300000000000000E-002    -4.1590933681570495E-028
  -1.4249999999999999E-002    -1.8300028913245663E-028
  -1.4200000000000001E-002     1.3622855201214904E-028
  -1.4149999999999999E-002     4.9874077599500909E-028
  -1.4099999999999998E-002     8.4385736542005962E-028
  -1.4050000000000000E-002     1.1012369440114432E-027
  -1.3999999999999999E-002     1.2024200721444042E-027
  -1.3950000000000001E-002     1.0944462732593296E-027
  -1.3899999999999999E-002     7.5334698829244749E-028
  -1.3850000000000001E-002     1.9488118339240475E-028
  -1.3800000000000000E-002    -5.2013115493483889E-028
  -1.3749999999999998E-002    -1.2880285648758715E-027
  -1.3700000000000000E-002    -1.9732154921032421E-027
  -1.3649999999999999E-002    -2.4274628430470957E-027
  -1.3600000000000001E-002    -2.5156250177068896E-027
  -1.3550000000000000E-002    -2.1441727134810446E-027
  -1.3499999999999998E-002    -1.2876512371687251E-027
  -1.3450000000000000E-002    -7.5996671621695752E-030
  -1.3399999999999999E-002     1.5412329359928157E-027
  -1.3350000000000001E-002     3.1211355057163796E-027
  -1.3299999999999999E-002     4.4395466698272985E-027
  -1.3249999999999998E-002     5.1933085228585850E-027
  -1.3200000000000000E-002     5.1239145639489551E-027
  -1.3149999999999998E-002     4.0755029912332896E-027
  -1.3100000000000001E-002     2.0451472861013927E-027
  -1.3049999999999999E-002    -7.8560902579930305E-028
  -1.3000000000000001E-002    -4.0477045874099506E-027
  -1.2950000000000000E-002    -7.2162767840493584E-027
  -1.2899999999999998E-002    -9.6780835086871877E-027
  -1.2850000000000000E-002    -1.0829042687374158E-026
  -1.2799999999999999E-002    -1.0189497086199308E-026