  -4.0000000000000001E-002     0.0000000000000000     
  -3.9949999999999999E-002     0.0000000000000000     
  -3.9899999999999998E-002     0.0000000000000000     
  -3.9850000000000003E-002     0.0000000000000000     
  -3.9800000000000002E-002     0.0000000000000000     
  -3.9750000000000001E-002     0.0000000000000000     
  -3.9699999999999999E-002     0.0000000000000000     
  -3.9649999999999998E-002     0.0000000000000000     
  -3.9600000000000003E-002     0.0000000000000000     
  -3.9550000000000002E-002     0.0000000000000000     
  -3.9500000000000000E-002     0.0000000000000000     
  -3.9449999999999999E-002    -1.7930773360988272E-032
  -3.9399999999999998E-002    -3.1840812963774240E-031
  -3.9350000000000003E-002    -2.8383174383655376E-030
  -3.9300000000000002E-002    -1.6749689346448728E-029
  -3.9250000000000000E-002    -7.2375357955947529E-029
  -3.9199999999999999E-002    -2.3689340353838892E-028
  -3.9150000000000004E-002    -5.7094819128591533E-028
  -3.9100000000000003E-002    -8.1577028729348192E-028
  -3.9050000000000001E-002     6.7197544652417271E-028
  -3.9000000000000000E-002     9.4885214274713714E-027
  -3.8949999999999999E-002     3.9768376428744393E-026
  -3.8900000000000004E-002     1.1950420573123669E-025
  -3.8850000000000003E-002     2.9055068481306110E-025
  -3.8800000000000001E-002     5.8882007776087034E-025
  -3.8750000000000000E-002     9.8036951173789596E-025
  -3.8699999999999998E-002     1.2263284533767552E-024
  -3.8650000000000004E-002     6.7045455967676153E-025
  -3.8600000000000002E-002    -1.9906751115375715E-024
  -3.8550000000000001E-002    -8.7684713737356153E-024
  -3.8500000000000000E-002    -2.1917553618479548E-023
  -3.8449999999999998E-002    -4.2452827293507388E-023
  -3.8400000000000004E-002    -6.7215562383403938E-023
  -3.8350000000000002E-002    -8.4537477425330026E-023
  -3.8300000000000001E-002    -6.9657295144341948E-023
  -3.8249999999999999E-002     1.7228788434342936E-023
  -3.8199999999999998E-002     2.2549731601794286E-022
  -3.8150000000000003E-002     5.9541620685077459E-022
  -3.8100000000000002E-002     1.1220198118818562E-021
  -3.8050000000000000E-002     1.7032232443318959E-021
  -3.7999999999999999E-002     2.0850284893362060E-021
  -3.7949999999999998E-002     1.8316678740829370E-021
  -3.7900000000000003E-002     3.6231702325333858E-022
  -3.7850000000000002E-002    -2.9003561449330387E-021
  -3.7800000000000000E-002    -8.2420615508081795E-021
  -3.7749999999999999E-002    -1.5248691698264333E-020
  -3.7699999999999997E-002    -2.2374027110383247E-020
  -3.7650000000000003E-002    -2.6668398268350512E-020
  -3.7600000000000001E-002    -2.3919662552552596E-020
  -3.7550000000000000E-002    -9.4520910776540120E-021
  -3.7499999999999999E-002     2.0296265733923682E-020
  -3.7449999999999997E-002     6.5561101042382680E-020
  -3.7400000000000003E-002     1.2091465115419322E-019
  -3.7350000000000001E-002     1.7367840862802533E-019
  -3.7300000000000000E-002     2.0415503819223201E-019
  -3.7249999999999998E-002     1.8859344442463675E-019
  -3.7200000000000004E-002     1.0518285205086810E-019
  -3.7150000000000002E-002    -5.7670754426210060E-020
  -3.7100000000000001E-002    -2.9274720624530646E-019
  -3.7050000000000000E-002    -5.6800099010118835E-019
  -3.6999999999999998E-002    -8.2620738286357075E-019
  -3.6950000000000004E-002    -9.9234459264210326E-019
  -3.6900000000000002E-002    -9.8864750889429751E-019
  -3.6850000000000001E-002    -7.5448953128551614E-019
  -3.6799999999999999E-002    -2.6583475576892299E-019
  -3.6749999999999998E-002     4.5188959581833157E-019
  -3.6700000000000003E-002     1.3221934084504331E-018
  -3.6650000000000002E-002     2.2281336094373910E-018
  -3.6600000000000001E-002     3.0312219662643524E-018
  -3.6549999999999999E-002     3.5909320733871334E-018
  -3.6499999999999998E-002     3.7767127030634807E-018
  -3.6450000000000003E-002     3.4687268912303868E-018
  -3.6400000000000002E-002     2.5517090874801187E-018
  -3.6350000000000000E-002     9.1504239304991488E-019
  -3.6299999999999999E-002    -1.5237341035426000E-018
  -3.6249999999999998E-002    -4.7599897418307777E-018
  -3.6200000000000003E-002    -8.6118468404610256E-018
  -3.6150000000000002E-002    -1.2626436421769749E-017
  -3.6100000000000000E-002    -1.6031430287573844E-017
  -3.6049999999999999E-002    -1.7787074815603343E-017
  -3.6000000000000004E-002    -1.6774979631475311E-017
  -3.5950000000000003E-002    -1.2113509168551130E-017
  -3.5900000000000001E-002    -3.5270063148781166E-018
  -3.5850000000000000E-002     8.3589777272035650E-018
  -3.5799999999999998E-002     2.1941824361444889E-017
  -3.5750000000000004E-002     3.4887278702877352E-017
  -3.5700000000000003E-002     4.4691426986994762E-017
  -3.5650000000000001E-002     4.9411471763455048E-017
  -3.5600000000000000E-002     4.8293877964002003E-017
  -3.5549999999999998E-002     4.1990540011943768E-017
  -3.5500000000000004E-002     3.2151190229678551E-017
  -3.5450000000000002E-002     2.0416086412868379E-017
  -3.5400000000000001E-002     7.1443879019419394E-018
  -3.5349999999999999E-002    -9.5218538749296005E-018
  -3.5299999999999998E-002    -3.3585230244269882E-017
  -3.5250000000000004E-002    -6.9665157806660891E-017
  -3.5200000000000002E-002    -1.2009974280000318E-016
  -3.5150000000000001E-002    -1.8146783569394887E-016
  -3.5099999999999999E-002    -2.4194170002361044E-016
  -3.5049999999999998E-002    -2.8110522125197868E-016
  -3.5000000000000003E-002    -2.7345714901298279E-016
  -3.4950000000000002E-002    -1.9572107085563380E-016
  -3.4900000000000000E-002    -3.6538433775929152E-017
  -3.4849999999999999E-002     1.9437066210969403E-016
  -3.4799999999999998E-002     4.6129684299221134E-016
  -3.4750000000000003E-002     7.0517435740743268E-016
  -3.4700000000000002E-002     8.5520178593718001E-016
  -3.4650000000000000E-002     8.4794927808455188E-016
  -3.4599999999999999E-002     6.4925853618562411E-016
  -3.4549999999999997E-002     2.7197597955581064E-016
  -3.4500000000000003E-002    -2.1768042648298114E-016
  -3.4450000000000001E-002    -7.0994553518063854E-016
  -3.4400000000000000E-002    -1.0776529137373342E-015
  -3.4349999999999999E-002    -1.2130547302459599E-015
  -3.4299999999999997E-002    -1.0647263439292863E-015
  -3.4250000000000003E-002    -6.6187456253938488E-016
  -3.4200000000000001E-002    -1.1545585819690187E-016
  -3.4150000000000000E-002     4.0817588638920714E-016
  -3.4099999999999998E-002     7.3637105731084139E-016
  -3.4049999999999997E-002     7.4843217120503219E-016
  -3.4000000000000002E-002     4.2390536762905830E-016
  -3.3950000000000001E-002    -1.3770853868690542E-016
  -3.3900000000000000E-002    -7.3717753855574589E-016
  -3.3849999999999998E-002    -1.1344926361463604E-015
  -3.3799999999999997E-002    -1.1312090070472107E-015
  -3.3750000000000002E-002    -6.4996416757024614E-016
  -3.3700000000000001E-002     2.1819462842152370E-016
  -3.3649999999999999E-002     1.2211354245627659E-015
  -3.3599999999999998E-002     2.0140048500048901E-015
  -3.3550000000000003E-002     2.2740543409655641E-015
  -3.3500000000000002E-002     1.8281673036849543E-015
  -3.3450000000000001E-002     7.4892937954507046E-016
  -3.3399999999999999E-002    -6.2149549609214752E-016
  -3.3349999999999998E-002    -1.7422528577240690E-015
  -3.3300000000000003E-002    -2.0329870701110957E-015
  -3.3250000000000002E-002    -1.0831655100371836E-015
  -3.3200000000000000E-002     1.1507784327441004E-015
  -3.3149999999999999E-002     4.2302358515514289E-015
  -3.3099999999999997E-002     7.2566168094552637E-015
  -3.3050000000000003E-002     9.0517549103949838E-015
  -3.3000000000000002E-002     8.4703354017736342E-015
  -3.2950000000000000E-002     4.7718710696731913E-015
  -3.2899999999999999E-002    -2.0512596883657391E-015
  -3.2850000000000004E-002    -1.1097204799775506E-014
  -3.2800000000000003E-002    -2.0608824908663163E-014
  -3.2750000000000001E-002    -2.8282030309269984E-014
  -3.2700000000000000E-002    -3.1780632135268091E-014
  -3.2649999999999998E-002    -2.9343477788660449E-014
  -3.2600000000000004E-002    -2.0327643851492626E-014
  -3.2550000000000003E-002    -5.5295217122014288E-015
  -3.2500000000000001E-002     1.2830555235344814E-014
  -3.2450000000000000E-002     3.1492735800891722E-014
  -3.2399999999999998E-002     4.6843378378709846E-014
  -3.2350000000000004E-002     5.5743065464084265E-014
  -3.2300000000000002E-002     5.6283560575859024E-014
  -3.2250000000000001E-002     4.8263110630393513E-014
  -3.2199999999999999E-002     3.3234228764182985E-014
  -3.2149999999999998E-002     1.4091682261721007E-014
  -3.2100000000000004E-002    -5.6987415308874193E-015
  -3.2050000000000002E-002    -2.3016782029578950E-014
  -3.2000000000000001E-002    -3.5878665625510911E-014
  -3.1949999999999999E-002    -4.3854209272244787E-014
  -3.1899999999999998E-002    -4.7964538292749950E-014
  -3.1850000000000003E-002    -5.0073016750768612E-014
  -3.1800000000000002E-002    -5.1950966721862543E-014
  -3.1750000000000000E-002    -5.4325538886195249E-014
  -3.1699999999999999E-002    -5.6255256122893574E-014
  -3.1649999999999998E-002    -5.5106632012571696E-014
  -3.1600000000000003E-002    -4.7234307800790229E-014
  -3.1550000000000002E-002    -2.9241345944012315E-014
  -3.1500000000000000E-002     5.1793565977406066E-016
  -3.1449999999999999E-002     4.0662528140618381E-014
  -3.1399999999999997E-002     8.6205267100028515E-014
  -3.1350000000000003E-002     1.2898774930103496E-013
  -3.1300000000000001E-002     1.5917912062242412E-013
  -3.1250000000000000E-002     1.6756991031308816E-013
  -3.1199999999999999E-002     1.4811722269698901E-013
  -3.1150000000000001E-002     1.0005333421578971E-013
  -3.1100000000000003E-002     2.8912019534119843E-014
  -3.1050000000000001E-002    -5.3938770089951779E-014
  -3.1000000000000000E-002    -1.3329533874242849E-013
  -3.0949999999999998E-002    -1.9326868664487629E-013
  -3.0900000000000000E-002    -2.2086504717147570E-013
  -3.0850000000000002E-002    -2.0910953090619300E-013
  -3.0800000000000001E-002    -1.5889520873103163E-013
  -3.0750000000000000E-002    -7.9038636529790707E-014
  -3.0699999999999998E-002     1.5522749508304831E-014
  -3.0650000000000000E-002     1.0696781324202528E-013
  -3.0600000000000002E-002     1.7845417526508867E-013
  -3.0550000000000001E-002     2.1762740264399949E-013
  -3.0499999999999999E-002     2.1890028309955178E-013
  -3.0449999999999998E-002     1.8397676231855092E-013
  -3.0400000000000000E-002     1.2059967011580214E-013
  -3.0350000000000002E-002     4.0010495730349177E-014
  -3.0300000000000001E-002    -4.6027143549417712E-014
  -3.0249999999999999E-002    -1.2769073179461771E-013
  -3.0200000000000001E-002    -1.9830537494221201E-013
  -3.0150000000000000E-002    -2.5400650549914361E-013
  -3.0100000000000002E-002    -2.9214391322751609E-013
  -3.0050000000000000E-002    -3.0921405301705118E-013
  -2.9999999999999999E-002    -2.9936575679338773E-013
  -2.9950000000000001E-002    -2.5442514306299457E-013
  -2.9899999999999999E-002    -1.6592367128691332E-013
  -2.9850000000000002E-002    -2.8900432123401404E-014
  -2.9800000000000000E-002     1.5350401342834746E-013
  -2.9749999999999999E-002     3.6619440661224412E-013
  -2.9700000000000001E-002     5.8066919328414457E-013
  -2.9650000000000003E-002     7.5723498652036092E-013
  -2.9600000000000001E-002     8.5127000934437369E-013
  -2.9550000000000000E-002     8.2275874481452238E-013
  -2.9499999999999998E-002     6.4718543024699926E-013
  -2.9450000000000000E-002     3.2511688653757975E-013
  -2.9400000000000003E-002    -1.1230777999205951E-013
  -2.9350000000000001E-002    -6.0411392685186249E-013
  -2.9300000000000000E-002    -1.0672715966206225E-012
  -2.9249999999999998E-002    -1.4106443877587305E-012
  -2.9200000000000000E-002    -1.5525911719466157E-012
  -2.9150000000000002E-002    -1.4385658463067497E-012
  -2.9100000000000001E-002    -1.0547584940873156E-012
  -2.9049999999999999E-002    -4.3450036320627494E-013
  -2.8999999999999998E-002     3.4431813411735235E-013
  -2.8950000000000000E-002     1.1705479250820328E-012
  -2.8900000000000002E-002     1.9175360084500159E-012
  -2.8850000000000001E-002     2.4636161166657899E-012
  -2.8799999999999999E-002     2.7110956708764622E-012
  -2.8749999999999998E-002     2.6000449623170274E-012
  -2.8700000000000000E-002     2.1146595759191644E-012
  -2.8650000000000002E-002     1.2819404825864522E-012
  -2.8600000000000000E-002     1.6434577765518654E-013
  -2.8549999999999999E-002    -1.1506113986939348E-012
  -2.8500000000000001E-002    -2.5605103974590815E-012
  -2.8450000000000000E-002    -3.9553360586808139E-012
  -2.8400000000000002E-002    -5.2209439029005100E-012
  -2.8350000000000000E-002    -6.2395618186106283E-012
  -2.8299999999999999E-002    -6.8898376587300802E-012
  -2.8250000000000001E-002    -7.0496950291265570E-012
  -2.8200000000000003E-002    -6.6048468777557545E-012
  -2.8150000000000001E-002    -5.4642176200436765E-012
  -2.8100000000000000E-002    -3.5811496996995817E-012
  -2.8049999999999999E-002    -9.7676738659152607E-013
  -2.8000000000000001E-002     2.2400109111336830E-012
  -2.7950000000000003E-002     5.8618791244635648E-012
  -2.7900000000000001E-002     9.5870186789248635E-012
  -2.7850000000000000E-002     1.3039941522408061E-011
  -2.7799999999999998E-002     1.5808286971119578E-011
  -2.7750000000000000E-002     1.7490882006643282E-011
  -2.7700000000000002E-002     1.7749624686702603E-011
  -2.7650000000000001E-002     1.6356424895058730E-011
  -2.7600000000000000E-002     1.3227265636961416E-011
  -2.7549999999999998E-002     8.4379647366517041E-012
  -2.7500000000000000E-002     2.2200741679051506E-012
  -2.7450000000000002E-002    -5.0605977741646768E-012
  -2.7400000000000001E-002    -1.2937012572322715E-011
  -2.7349999999999999E-002    -2.0877889694848051E-011
  -2.7299999999999998E-002    -2.8321315778678802E-011
  -2.7250000000000000E-002    -3.4699590423237225E-011
  -2.7200000000000002E-002    -3.9453124794919248E-011
  -2.7150000000000001E-002    -4.2034591085648998E-011
  -2.7099999999999999E-002    -4.1907061154589087E-011
  -2.7049999999999998E-002    -3.8541118213553105E-011
  -2.7000000000000000E-002    -3.1415228057829481E-011
  -2.6950000000000002E-002    -2.0021883456733391E-011
  -2.6900000000000000E-002    -3.8792970571965846E-012
  -2.6849999999999999E-002     1.7453767597874759E-011
  -2.6800000000000001E-002     4.4363668988411931E-011
  -2.6749999999999999E-002     7.7171324885938475E-011
  -2.6700000000000002E-002     1.1612681649619816E-010
  -2.6650000000000000E-002     1.6140783154483529E-010
  -2.6599999999999999E-002     2.1311834241810601E-010
  -2.6550000000000001E-002     2.7128227442219099E-010
  -2.6500000000000003E-002     3.3582805980536534E-010
  -2.6450000000000001E-002     4.0656228383895154E-010
  -2.6400000000000000E-002     4.8313514300346583E-010
  -2.6349999999999998E-002     5.6500498724076920E-010
  -2.6300000000000000E-002     6.5141297911353035E-010
  -2.6250000000000002E-002     7.4137956884712253E-010
  -2.6200000000000001E-002     8.3373258297214647E-010
  -2.6150000000000000E-002     9.2717183930446367E-010
  -2.6099999999999998E-002     1.0203667910602121E-009
  -2.6050000000000000E-002     1.1120765419647682E-009
  -2.6000000000000002E-002     1.2012743022538075E-009
  -2.5950000000000001E-002     1.2872559684851126E-009
  -2.5899999999999999E-002     1.3697136758139550E-009
  -2.5849999999999998E-002     1.4487598898327292E-009
  -2.5800000000000000E-002     1.5248990958838249E-009
  -2.5750000000000002E-002     1.5989507495817179E-009
  -2.5700000000000001E-002     1.6719401418896496E-009
  -2.5649999999999999E-002     1.7449748312969859E-009
  -2.5599999999999998E-002     1.8191281814239346E-009
  -2.5550000000000000E-002     1.8953474345551058E-009
  -2.5500000000000002E-002     1.9743928714177628E-009
  -2.5450000000000000E-002     2.0568111658292310E-009
  -2.5399999999999999E-002     2.1429336083400585E-009
  -2.5349999999999998E-002     2.2328887627764971E-009
  -2.5300000000000000E-002     2.3266182314074513E-009
  -2.5250000000000002E-002     2.4238877571747253E-009
  -2.5200000000000000E-002     2.5242961054772195E-009
  -2.5149999999999999E-002     2.6272837239105229E-009
  -2.5100000000000001E-002     2.7321580553518743E-009
  -2.5049999999999999E-002     2.8381403893718016E-009
  -2.5000000000000001E-002     2.9444449101134751E-009
  -2.4950000000000000E-002     3.0503848336138617E-009
  -2.4899999999999999E-002     3.1554920898457794E-009
  -2.4850000000000001E-002     3.2596310095556191E-009
  -2.4800000000000003E-002     3.3630773721426976E-009
  -2.4750000000000001E-002     3.4665419423873800E-009
  -2.4700000000000000E-002     3.5711233969948353E-009
  -2.4649999999999998E-002     3.6781908629990312E-009
  -2.4600000000000000E-002     3.7892098347924730E-009
  -2.4550000000000002E-002     3.9055438882940052E-009
  -2.4500000000000001E-002     4.0282657209900208E-009
  -2.4450000000000000E-002     4.1580170417887530E-009
  -2.4399999999999998E-002     4.2949399592373538E-009
  -2.4350000000000000E-002     4.4386965214471275E-009
  -2.4299999999999999E-002     4.5885655275412773E-009
  -2.4250000000000001E-002     4.7435948502538849E-009
  -2.4199999999999999E-002     4.9027772952570103E-009
  -2.4150000000000001E-002     5.0652060323841397E-009
  -2.4100000000000000E-002     5.2301896147355365E-009
  -2.4049999999999998E-002     5.3973026048481643E-009
  -2.4000000000000000E-002     5.5663775810899097E-009
  -2.3949999999999999E-002     5.7374562878464985E-009
  -2.3900000000000001E-002     5.9107225780508088E-009
  -2.3850000000000000E-002     6.0864460138532195E-009
  -2.3800000000000002E-002     6.2649601062503280E-009
  -2.3750000000000000E-002     6.4466734173151963E-009
  -2.3699999999999999E-002     6.6321099723154475E-009
  -2.3650000000000001E-002     6.8219563331695099E-009
  -2.3599999999999999E-002     7.0170846910855289E-009
  -2.3550000000000001E-002     7.2185315502792946E-009
  -2.3500000000000000E-002     7.4274204564517277E-009
  -2.3449999999999999E-002     7.6448323227396031E-009
  -2.3400000000000001E-002     7.8716517748489423E-009
  -2.3349999999999999E-002     8.1084250425078608E-009
  -2.3300000000000001E-002     8.3552595953051423E-009
  -2.3250000000000000E-002     8.6118108200139432E-009
  -2.3199999999999998E-002     8.8773530748653684E-009
  -2.3150000000000000E-002     9.1509386734855980E-009
  -2.3099999999999999E-002     9.4316012777539981E-009
  -2.3050000000000001E-002     9.7185663960885904E-009
  -2.3000000000000000E-002     1.0011407702847919E-008
  -2.2950000000000002E-002     1.0310126086210403E-008
  -2.2900000000000000E-002     1.0615115009215970E-008
  -2.2849999999999999E-002     1.0927034388430457E-008
  -2.2800000000000001E-002     1.1246616082871697E-008
  -2.2749999999999999E-002     1.1574454283902469E-008
  -2.2700000000000001E-002     1.1910844754936534E-008
  -2.2650000000000000E-002     1.2255702230845600E-008
  -2.2599999999999999E-002     1.2608592392382434E-008
  -2.2550000000000001E-002     1.2968869533835914E-008
  -2.2499999999999999E-002     1.3335889725851757E-008
  -2.2450000000000001E-002     1.3709249735427420E-008
  -2.2400000000000000E-002     1.4088993083305468E-008
  -2.2349999999999998E-002     1.4475731724417074E-008
  -2.2300000000000000E-002     1.4870661146915154E-008
  -2.2249999999999999E-002     1.5275455567120844E-008
  -2.2200000000000001E-002     1.5692078747520100E-008
  -2.2150000000000000E-002     1.6122553958552999E-008
  -2.2100000000000002E-002     1.6568725058618838E-008
  -2.2050000000000000E-002     1.7032089516533233E-008
  -2.1999999999999999E-002     1.7513681171976714E-008
  -2.1950000000000001E-002     1.8014075564565246E-008
  -2.1899999999999999E-002     1.8533430790057537E-008
  -2.1850000000000001E-002     1.9071590529051718E-008
  -2.1800000000000000E-002     1.9628172864827320E-008
  -2.1749999999999999E-002     2.0202643113975682E-008
  -2.1700000000000001E-002     2.0794351129893585E-008
  -2.1649999999999999E-002     2.1402533079140085E-008
  -2.1600000000000001E-002     2.2026314994150198E-008
  -2.1550000000000000E-002     2.2664726984089612E-008
  -2.1499999999999998E-002     2.3316770736414583E-008
  -2.1450000000000000E-002     2.3981533203709660E-008
  -2.1399999999999999E-002     2.4658358910301104E-008
  -2.1350000000000001E-002     2.5347013377086114E-008
  -2.1299999999999999E-002     2.6047842993648374E-008
  -2.1250000000000002E-002     2.6761853177958983E-008
  -2.1200000000000000E-002     2.7490674625596512E-008
  -2.1149999999999999E-002     2.8236442517481919E-008
  -2.1100000000000001E-002     2.9001553158991555E-008
  -2.1049999999999999E-002     2.9788401079144933E-008
  -2.1000000000000001E-002     3.0599078826298864E-008
  -2.0950000000000000E-002     3.1435153147185702E-008
  -2.0899999999999998E-002     3.2297528207436699E-008
  -2.0850000000000000E-002     3.3186434933440978E-008
  -2.0799999999999999E-002     3.4101507395689623E-008
  -2.0750000000000001E-002     3.5041960444459619E-008
  -2.0700000000000000E-002     3.6006792214493544E-008
  -2.0649999999999998E-002     3.6994979524251903E-008
  -2.0600000000000000E-002     3.8005627089887639E-008
  -2.0549999999999999E-002     3.9038081212083853E-008
  -2.0500000000000001E-002     4.0091961750476912E-008
  -2.0449999999999999E-002     4.1167194098079563E-008
  -2.0400000000000001E-002     4.2264012733994605E-008
  -2.0350000000000000E-002     4.3383003855979041E-008
  -2.0299999999999999E-002     4.4525148013008220E-008
  -2.0250000000000001E-002     4.5691898264976771E-008
  -2.0199999999999999E-002     4.6885222815262750E-008
  -2.0150000000000001E-002     4.8107601458013960E-008
  -2.0100000000000000E-002     4.9361940313019659E-008
  -2.0049999999999998E-002     5.0651408400881337E-008
  -2.0000000000000000E-002     5.1979160531345769E-008
  -1.9949999999999999E-002     5.3348060191638069E-008
  -1.9900000000000001E-002     5.4760402434794742E-008
  -1.9850000000000000E-002     5.6217718480411349E-008
  -1.9799999999999998E-002     5.7720733082078368E-008
  -1.9750000000000000E-002     5.9269456897936834E-008
  -1.9699999999999999E-002     6.0863413864353788E-008
  -1.9650000000000001E-002     6.2501946729298652E-008
  -1.9599999999999999E-002     6.4184533243860642E-008
  -1.9550000000000001E-002     6.5911017088637891E-008
  -1.9500000000000000E-002     6.7681682480724703E-008
  -1.9449999999999999E-002     6.9497225752002123E-008
  -1.9400000000000001E-002     7.1358527975462493E-008
  -1.9349999999999999E-002     7.3266384958969866E-008
  -1.9300000000000001E-002     7.5221223028165696E-008
  -1.9250000000000000E-002     7.7222900074502832E-008
  -1.9199999999999998E-002     7.9270698449818155E-008
  -1.9150000000000000E-002     8.1363445758597663E-008
  -1.9099999999999999E-002     8.3499806180498126E-008
  -1.9050000000000001E-002     8.5678664163424401E-008
  -1.9000000000000000E-002     8.7899422851478448E-008
  -1.8949999999999998E-002     9.0162288302053639E-008
  -1.8900000000000000E-002     9.2468305012971541E-008
  -1.8849999999999999E-002     9.4819256446498912E-008
  -1.8800000000000001E-002     9.7217338179689250E-008
  -1.8749999999999999E-002     9.9664816843869630E-008
  -1.8700000000000001E-002     1.0216365353699075E-007
  -1.8650000000000000E-002     1.0471526934452413E-007
  -1.8599999999999998E-002     1.0732045296890647E-007
  -1.8550000000000001E-002     1.0997955257607828E-007
  -1.8499999999999999E-002     1.1269279553971501E-007
  -1.8450000000000001E-002     1.1546071476686848E-007
  -1.8400000000000000E-002     1.1828459633989041E-007
  -1.8349999999999998E-002     1.2116677794438147E-007
  -1.8300000000000000E-002     1.2411075545060157E-007
  -1.8249999999999999E-002     1.2712101238321338E-007
  -1.8200000000000001E-002     1.3020273570418794E-007
  -1.8149999999999999E-002     1.3336122606233403E-007
  -1.8100000000000002E-002     1.3660151410022081E-007
  -1.8050000000000000E-002     1.3992789149597229E-007
  -1.7999999999999999E-002     1.4334376885472011E-007
  -1.7950000000000001E-002     1.4685176097373187E-007
  -1.7899999999999999E-002     1.5045398527036014E-007
  -1.7850000000000001E-002     1.5415245968597446E-007
  -1.7800000000000000E-002     1.5794950058989343E-007
  -1.7749999999999998E-002     1.6184809226160723E-007
  -1.7700000000000000E-002     1.6585187267992296E-007
  -1.7649999999999999E-002     1.6996494878185331E-007
  -1.7600000000000001E-002     1.7419154119124869E-007
  -1.7550000000000000E-002     1.7853542999546335E-007
  -1.7499999999999998E-002     1.8299938631116675E-007
  -1.7450000000000000E-002     1.8758478859126626E-007
  -1.7399999999999999E-002     1.9229146630550531E-007
  -1.7350000000000001E-002     1.9711771415131807E-007
  -1.7299999999999999E-002     2.0206061890348792E-007
  -1.7250000000000001E-002     2.0711655679406249E-007
  -1.7200000000000000E-002     2.1228171931397810E-007
  -1.7149999999999999E-002     2.1755252532784652E-007
  -1.7100000000000001E-002     2.2292596213446814E-007
  -1.7049999999999999E-002     2.2839978441879794E-007
  -1.7000000000000001E-002     2.3397240056510782E-007
  -1.6950000000000000E-002     2.3964278739185829E-007
  -1.6899999999999998E-002     2.4541014909118530E-007
  -1.6850000000000000E-002     2.5127374669864366E-007
  -1.6799999999999999E-002     2.5723258545440331E-007
  -1.6750000000000001E-002     2.6328550006837759E-007
  -1.6700000000000000E-002     2.6943098418996669E-007
  -1.6649999999999998E-002     2.7566747462515195E-007
  -1.6600000000000000E-002     2.8199357871017128E-007
  -1.6549999999999999E-002     2.8840827326348517E-007
  -1.6500000000000001E-002     2.9491118880287104E-007
  -1.6449999999999999E-002     3.0150278007567977E-007
  -1.6400000000000001E-002     3.0818432605883572E-007
  -1.6350000000000000E-002     3.1495792995883676E-007
  -1.6299999999999999E-002     3.2182646236833534E-007
  -1.6250000000000001E-002     3.2879324862733483E-007
  -1.6199999999999999E-002     3.3586204040148004E-007
  -1.6150000000000001E-002     3.4303690199521952E-007
  -1.6100000000000000E-002     3.5032221035180555E-007
  -1.6049999999999998E-002     3.5772271189671301E-007
  -1.6000000000000000E-002     3.6524377833302424E-007
  -1.5949999999999999E-002     3.7289143506313849E-007
  -1.5900000000000001E-002     3.8067250329731905E-007
  -1.5850000000000000E-002     3.8859462847540271E-007
  -1.5799999999999998E-002     3.9666619500167144E-007
  -1.5750000000000000E-002     4.0489615571459581E-007
  -1.5699999999999999E-002     4.1329371924803127E-007
  -1.5650000000000001E-002     4.2186820792267099E-007
  -1.5599999999999999E-002     4.3062868826382328E-007
  -1.5550000000000001E-002     4.3958382889286440E-007
  -1.5500000000000000E-002     4.4874138893646887E-007
  -1.5449999999999998E-002     4.5810818960489996E-007
  -1.5400000000000000E-002     4.6768968786636833E-007
  -1.5349999999999999E-002     4.7748989118190366E-007
  -1.5300000000000001E-002     4.8751138592706411E-007
  -1.5250000000000000E-002     4.9775547950048349E-007
  -1.5199999999999998E-002     5.0822245611925609E-007
  -1.5150000000000000E-002     5.1891225893996307E-007
  -1.5099999999999999E-002     5.2982500164944213E-007
  -1.5050000000000001E-002     5.4096125268188189E-007
  -1.4999999999999999E-002     5.5232260365301045E-007
  -1.4949999999999998E-002     5.6391132829958224E-007
  -1.4900000000000000E-002     5.7573032563595916E-007
  -1.4849999999999999E-002     5.8778243783308426E-007
  -1.4800000000000001E-002     6.0006999547113082E-007
  -1.4749999999999999E-002     6.1259430594873265E-007
  -1.4700000000000001E-002     6.2535576716982177E-007
  -1.4650000000000000E-002     6.3835386754362844E-007
  -1.4599999999999998E-002     6.5158752704519429E-007
  -1.4550000000000000E-002     6.6505566564956098E-007
  -1.4499999999999999E-002     6.7875799913963419E-007
  -1.4450000000000001E-002     6.9269549385353457E-007
  -1.4400000000000000E-002     7.0687036668459768E-007
  -1.4349999999999998E-002     7.2128631245504948E-007
  -1.4300000000000000E-002     7.3594804916865542E-007
  -1.4249999999999999E-002     7.5086074957653182E-007
  -1.4200000000000001E-002     7.6602975696005160E-007
  -1.4149999999999999E-002     7.8145990300981794E-007
  -1.4099999999999998E-002     7.9715505307831336E-007
  -1.4050000000000000E-002     8.1311782196280546E-007
  -1.3999999999999999E-002     8.2934968759218464E-007
  -1.3950000000000001E-002     8.4585144577431493E-007
  -1.3899999999999999E-002     8.6262349441312836E-007
  -1.3850000000000001E-002     8.7966679984674556E-007
  -1.3800000000000000E-002     8.9698369265533984E-007
  -1.3749999999999998E-002     9.1457820872165030E-007
  -1.3700000000000000E-002     9.3245637344807619E-007
  -1.3649999999999999E-002     9.5062614491325803E-007
  -1.3600000000000001E-002     9.6909661806421354E-007
  -1.3550000000000000E-002     9.8787700153479818E-007
  -1.3499999999999998E-002     1.0069753670904902E-006
  -1.3450000000000000E-002     1.0263984222547151E-006
  -1.3399999999999999E-002     1.0461502597536310E-006
  -1.3350000000000001E-002     1.0662331533239922E-006
  -1.3299999999999999E-002     1.0866475577131496E-006
  -1.3249999999999998E-002     1.1073930181737524E-006
  -1.3200000000000000E-002     1.1284690799584496E-006
  -1.3149999999999998E-002     1.1498759704409167E-006
  -1.3100000000000001E-002     1.1716149401763687E-006
  -1.3049999999999999E-002     1.1936879218410468E-006
  -1.3000000000000001E-002     1.2160969617980300E-006
  -1.2950000000000000E-002     1.2388443337840727E-006
  -1.2899999999999998E-002     1.2619314020412276E-006
  -1.2850000000000000E-002     1.2853586213168455E-006
  -1.2799999999999999E-002     1.3091257642372511E-006