  -4.0000000000000001E-002     0.0000000000000000     
  -3.9949999999999999E-002     0.0000000000000000     
  -3.9899999999999998E-002     0.0000000000000000     
  -3.9850000000000003E-002     0.0000000000000000     
  -3.9800000000000002E-002     0.0000000000000000     
  -3.9750000000000001E-002     0.0000000000000000     
  -3.9699999999999999E-002     0.0000000000000000     
  -3.9649999999999998E-002     0.0000000000000000     
  -3.9600000000000003E-002     0.0000000000000000     
  -3.9550000000000002E-002     0.0000000000000000     
  -3.9500000000000000E-002     0.0000000000000000     
  -3.9449999999999999E-002     0.0000000000000000     
  -3.9399999999999998E-002     0.0000000000000000     
  -3.9350000000000003E-002     0.0000000000000000     
  -3.9300000000000002E-002     0.0000000000000000     
  -3.9250000000000000E-002     0.0000000000000000     
  -3.9199999999999999E-002     0.0000000000000000     
  -3.9150000000000004E-002     0.0000000000000000     
  -3.9100000000000003E-002     0.0000000000000000     
  -3.9050000000000001E-002     0.0000000000000000     
  -3.9000000000000000E-002     0.0000000000000000     
  -3.8949999999999999E-002     0.0000000000000000     
  -3.8900000000000004E-002     0.0000000000000000     
  -3.8850000000000003E-002     0.0000000000000000     
  -3.8800000000000001E-002     0.0000000000000000     
  -3.8750000000000000E-002     0.0000000000000000     
  -3.8699999999999998E-002     0.0000000000000000     
  -3.8650000000000004E-002     0.0000000000000000     
  -3.8600000000000002E-002     0.0000000000000000     
  -3.8550000000000001E-002     0.0000000000000000     
  -3.8500000000000000E-002     0.0000000000000000     
  -3.8449999999999998E-002     0.0000000000000000     
  -3.8400000000000004E-002     0.0000000000000000     
  -3.8350000000000002E-002     0.0000000000000000     
  -3.8300000000000001E-002     0.0000000000000000     
  -3.8249999999999999E-002     0.0000000000000000     
  -3.8199999999999998E-002     0.0000000000000000     
  -3.8150000000000003E-002     0.0000000000000000     
  -3.8100000000000002E-002     0.0000000000000000     
  -3.8050000000000000E-002     0.0000000000000000     
  -3.7999999999999999E-002     0.0000000000000000     
  -3.7949999999999998E-002     0.0000000000000000     
  -3.7900000000000003E-002     0.0000000000000000     
  -3.7850000000000002E-002     0.0000000000000000     
  -3.7800000000000000E-002     0.0000000000000000     
  -3.7749999999999999E-002     0.0000000000000000     
  -3.7699999999999997E-002     0.0000000000000000     
  -3.7650000000000003E-002     0.0000000000000000     
  -3.7600000000000001E-002     0.0000000000000000     
  -3.7550000000000000E-002     0.0000000000000000     
  -3.7499999999999999E-002     0.0000000000000000     
  -3.7449999999999997E-002     0.0000000000000000     
  -3.7400000000000003E-002     0.0000000000000000     
  -3.7350000000000001E-002     0.0000000000000000     
  -3.7300000000000000E-002     0.0000000000000000     
  -3.7249999999999998E-002     0.0000000000000000     
  -3.7200000000000004E-002     0.0000000000000000     
  -3.7150000000000002E-002     0.0000000000000000     
  -3.7100000000000001E-002     0.0000000000000000     
  -3.7050000000000000E-002     0.0000000000000000     
  -3.6999999999999998E-002     0.0000000000000000     
  -3.6950000000000004E-002     0.0000000000000000     
  -3.6900000000000002E-002     0.0000000000000000     
  -3.6850000000000001E-002     0.0000000000000000     
  -3.6799999999999999E-002     0.0000000000000000     
  -3.6749999999999998E-002     0.0000000000000000     
  -3.6700000000000003E-002     0.0000000000000000     
  -3.6650000000000002E-002     0.0000000000000000     
  -3.6600000000000001E-002     0.0000000000000000     
  -3.6549999999999999E-002     0.0000000000000000     
  -3.6499999999999998E-002    -4.3272259908888239E-041
  -3.6450000000000003E-002    -1.2841310263835451E-040
  -3.6400000000000002E-002    -2.3890603373454642E-040
  -3.6350000000000000E-002    -2.6234858598802923E-040
  -3.6299999999999999E-002     0.0000000000000000     
  -3.6249999999999998E-002     7.8557660514886325E-040
  -3.6200000000000003E-002     2.0907273752938625E-039
  -3.6150000000000002E-002     3.5888970322908516E-039
  -3.6100000000000000E-002     4.6690934673295219E-039
  -3.6049999999999999E-002     3.9753480695681022E-039
  -3.6000000000000004E-002    -4.0832243588134041E-040
  -3.5950000000000003E-002     2.5938449200915966E-038
  -3.5900000000000001E-002     7.1595915306326124E-038
  -3.5850000000000000E-002     1.1664783604057463E-037
  -3.5799999999999998E-002     1.3338437850160219E-037
  -3.5750000000000004E-002     7.8601320041159757E-038
  -3.5700000000000003E-002    -1.2338646618604270E-037
  -3.5650000000000001E-002    -4.9714735173651513E-037
  -3.5600000000000000E-002    -1.0299776741826704E-036
  -3.5549999999999998E-002    -1.6217939620538896E-036
  -3.5500000000000004E-002    -2.0419991001530524E-036
  -3.5450000000000002E-002    -1.8996135730291185E-036
  -3.5400000000000001E-002    -6.6459468452525208E-037
  -3.5349999999999999E-002     2.2152171346393778E-036
  -3.5299999999999998E-002     7.0755328240751485E-036
  -3.5250000000000004E-002     1.3655597256282649E-035
  -3.5200000000000002E-002     2.0631632453579988E-035
  -3.5150000000000001E-002     2.5204756591236134E-035
  -3.5099999999999999E-002     2.2991580519300749E-035
  -3.5049999999999998E-002     8.5411866362597576E-036
  -3.5000000000000003E-002    -2.3200188333349438E-035
  -3.4950000000000002E-002    -7.4315287211211877E-035
  -3.4900000000000000E-002    -1.4043306789569799E-034
  -3.4849999999999999E-002    -2.0710778691829225E-034
  -3.4799999999999998E-002    -2.4751017208791564E-034
  -3.4750000000000003E-002    -2.2345849094504841E-034
  -3.4700000000000002E-002    -9.1955647842559439E-035
  -3.4650000000000000E-002     1.8128745845491994E-034
  -3.4599999999999999E-002     6.0167959510264422E-034
  -3.4549999999999997E-002     1.1222469397976122E-033
  -3.4500000000000003E-002     1.6238116984712902E-033
  -3.4450000000000001E-002     1.9092006224571420E-033
  -3.4400000000000000E-002     1.7231945789670042E-033
  -3.4349999999999999E-002     8.0744594846279791E-034
  -3.4299999999999997E-002    -1.0081325225036009E-033
  -3.4250000000000003E-002    -3.6891210630426431E-033
  -3.4200000000000001E-002    -6.8835143157739132E-033
  -3.4150000000000000E-002    -9.8549559968082049E-033
  -3.4099999999999998E-002    -1.1512450530160318E-032
  -3.4049999999999997E-002    -1.0578401933196587E-032
  -3.4000000000000002E-002    -5.9081982053584966E-033
  -3.3950000000000001E-002     3.0737514116072699E-033
  -3.3900000000000000E-002     1.5915529715457733E-032
  -3.3849999999999998E-002     3.0802610255004406E-032
  -3.3799999999999997E-002     4.4512881749313268E-032
  -3.3750000000000002E-002     5.2796358030649942E-032
  -3.3700000000000001E-002     5.1217876234568832E-032
  -3.3649999999999999E-002     3.6351129565797018E-032
  -3.3599999999999998E-002     7.0464625716657675E-033
  -3.3550000000000003E-002    -3.4626764783522469E-032
  -3.3500000000000002E-002    -8.3171806395586606E-032
  -3.3450000000000001E-002    -1.3044727514669362E-031
  -3.3399999999999999E-002    -1.6738559389957277E-031
  -3.3349999999999998E-002    -1.8619020495757598E-031
  -3.3300000000000003E-002    -1.8220290320927210E-031
  -3.3250000000000002E-002    -1.5451233562756717E-031
  -3.3200000000000000E-002    -1.0463779731765046E-031
  -3.3149999999999999E-002    -3.3319787501340927E-032
  -3.3099999999999997E-002     6.3540241822585949E-032
  -3.3050000000000003E-002     1.9773835119128899E-031
  -3.3000000000000002E-002     3.8780908173611271E-031
  -3.2950000000000000E-002     6.5196974134309532E-031
  -3.2899999999999999E-002     9.9419371262785820E-031
  -3.2850000000000004E-002     1.3852170342973845E-030
  -3.2800000000000003E-002     1.7434013986170542E-030
  -3.2750000000000001E-002     1.9231006900797651E-030
  -3.2700000000000000E-002     1.7194272187169134E-030
  -3.2649999999999998E-002     8.9715341225669744E-031
  -3.2600000000000004E-002    -7.5246212165698298E-031
  -3.2550000000000003E-002    -3.3296085129183183E-030
  -3.2500000000000001E-002    -6.7292950547307942E-030
  -3.2450000000000000E-002    -1.0549018539918362E-029
  -3.2399999999999998E-002    -1.4026488026032018E-029
  -3.2350000000000004E-002    -1.6037626265285695E-029
  -3.2300000000000002E-002    -1.5185802142444848E-029
  -3.2250000000000001E-002    -1.0008813603206147E-029
  -3.2199999999999999E-002     6.8192025684136518E-031
  -3.2149999999999998E-002     1.7338494305662840E-029
  -3.2100000000000004E-002     3.9135488209085678E-029
  -3.2050000000000002E-002     6.3447550224270773E-029
  -3.2000000000000001E-002     8.5502102741060916E-029
  -3.1949999999999999E-002     9.8416152494927352E-029
  -3.1899999999999998E-002     9.3845812280929557E-029
  -3.1850000000000003E-002     6.3431931663695835E-029
  -3.1800000000000002E-002     1.0860878064038807E-030
  -3.1750000000000000E-002    -9.4080772918696025E-029
  -3.1699999999999999E-002    -2.1470646059952273E-028
  -3.1649999999999998E-002    -3.4285255311900315E-028
  -3.1600000000000003E-002    -4.4948724781889209E-028
  -3.1550000000000002E-002    -4.9685274878908315E-028
  -3.1500000000000000E-002    -4.4444517754871481E-028
  -3.1449999999999999E-002    -2.5859109589657003E-028
  -3.1399999999999997E-002     7.5462799160678666E-029
  -3.1350000000000003E-002     5.4122465683026390E-028
  -3.1300000000000001E-002     1.0816777581333350E-027
  -3.1250000000000000E-002     1.5967732646955680E-027
  -3.1199999999999999E-002     1.9509968885708091E-027
  -3.1150000000000001E-002     1.9928518245334149E-027
  -3.1100000000000003E-002     1.5857037360390450E-027
  -3.1050000000000001E-002     6.4644697362112483E-028
  -3.1000000000000000E-002    -8.1454425819555933E-028
  -3.0949999999999998E-002    -2.6610382715220672E-027
  -3.0900000000000000E-002    -4.6160235213766890E-027
  -3.0850000000000002E-002    -6.2733804433508165E-027
  -3.0800000000000001E-002    -7.1425596091131408E-027
  -3.0750000000000000E-002    -6.7279946429542464E-027
  -3.0699999999999998E-002    -4.6385649831750544E-027
  -3.0650000000000000E-002    -7.1471331556001668E-028
  -3.0600000000000002E-002     4.8474786893814496E-027
  -3.0550000000000001E-002     1.1403634175836533E-026
  -3.0499999999999999E-002     1.7833427564653130E-026
  -3.0449999999999998E-002     2.2611636856177064E-026
  -3.0400000000000000E-002     2.4003542169047105E-026
  -3.0350000000000002E-002     2.0391530326666809E-026
  -3.0300000000000001E-002     1.0709400778591699E-026
  -3.0249999999999999E-002    -5.0784263475484653E-027
  -3.0200000000000001E-002    -2.5556656607715466E-026
  -3.0150000000000000E-002    -4.7632560326832178E-026
  -3.0100000000000002E-002    -6.6644134290908739E-026
  -3.0050000000000000E-002    -7.6911858493702315E-026
  -2.9999999999999999E-002    -7.2765320549049402E-026
  -2.9950000000000001E-002    -4.9957250580758195E-026
  -2.9899999999999999E-002    -7.2374857914559807E-027
  -2.9850000000000002E-002     5.2268235382351951E-026
  -2.9800000000000000E-002     1.2030216862045244E-025
  -2.9749999999999999E-002     1.8374584574775918E-025
  -2.9700000000000001E-002     2.2618200609379711E-025
  -2.9650000000000003E-002     2.3075477619663818E-025
  -2.9600000000000001E-002     1.8400622919984868E-025
  -2.9550000000000000E-002     8.0035898847110085E-026
  -2.9499999999999998E-002    -7.5915247680971738E-026
  -2.9450000000000000E-002    -2.6543164067266495E-025
  -2.9400000000000003E-002    -4.5727191071118710E-025
  -2.9350000000000001E-002    -6.1056979730016164E-025
  -2.9300000000000000E-002    -6.8083610006482722E-025
  -2.9249999999999998E-002    -6.2813401082768479E-025
  -2.9200000000000000E-002    -4.2628916332635582E-025
  -2.9150000000000002E-002    -7.1651899954549235E-026
  -2.9100000000000001E-002     4.1019293216076208E-025
  -2.9049999999999999E-002     9.6128113207731166E-025
  -2.8999999999999998E-002     1.4929444220760868E-024
  -2.8950000000000000E-002     1.8931917094664551E-024
  -2.8900000000000002E-002     2.0402212259429050E-024
  -2.8850000000000001E-002     1.8218686177057967E-024
  -2.8799999999999999E-002     1.1599259762958283E-024
  -2.8749999999999998E-002     3.7002506961371327E-026
  -2.8700000000000000E-002    -1.4780269019689645E-024
  -2.8650000000000002E-002    -3.2117375464298166E-024
  -2.8600000000000000E-002    -4.8822231965802244E-024
  -2.8549999999999999E-002    -6.1170256378533337E-024
  -2.8500000000000001E-002    -6.4987776751824297E-024
  -2.8450000000000000E-002    -5.6401126337540654E-024
  -2.8400000000000002E-002    -3.2824082871370374E-024
  -2.8350000000000000E-002     5.9591911182846981E-025
  -2.8299999999999999E-002     5.6847486515899763E-024
  -2.8250000000000001E-002     1.1290577658147521E-023
  -2.8200000000000003E-002     1.6357711045470084E-023
  -2.8150000000000001E-002     1.9584587929281060E-023
  -2.8100000000000000E-002     1.9640913822389124E-023
  -2.8049999999999999E-002     1.5467085244661439E-023
  -2.8000000000000001E-002     6.6098543075901586E-024
  -2.7950000000000003E-002    -6.4762846762866918E-024
  -2.7900000000000001E-002    -2.2246262972418676E-023
  -2.7850000000000000E-002    -3.8080671415075170E-023
  -2.7799999999999998E-002    -5.0556264098701935E-023
  -2.7750000000000000E-002    -5.5979815183093099E-023
  -2.7700000000000002E-002    -5.1133876549723450E-023
  -2.7650000000000001E-002    -3.4119675095348358E-023
  -2.7600000000000000E-002    -5.1308563501913438E-024
  -2.7549999999999998E-002     3.3032283884535278E-023
  -2.7500000000000000E-002     7.4884487285876763E-023
  -2.7450000000000002E-002     1.1273275350763047E-022
  -2.7400000000000001E-002     1.3773393506794033E-022
  -2.7349999999999999E-002     1.4143975443602256E-022
  -2.7299999999999998E-002     1.1761603988643067E-022
  -2.7250000000000000E-002     6.4025441110055044E-023
  -2.7200000000000002E-002    -1.6188257101788920E-023
  -2.7150000000000001E-002    -1.1386639968328460E-022
  -2.7099999999999999E-002    -2.1422598626618843E-022
  -2.7049999999999998E-002    -2.9840763240465219E-022
  -2.7000000000000000E-002    -3.4612888284316469E-022
  -2.6950000000000002E-002    -3.3918433728237788E-022
  -2.6900000000000000E-002    -2.6533834360476612E-022
  -2.6849999999999999E-002    -1.2199947716267650E-022
  -2.6800000000000001E-002     8.1019856927376394E-023
  -2.6749999999999999E-002     3.2034904595820915E-022
  -2.6700000000000002E-002     5.6008299802521742E-022
  -2.6650000000000000E-002     7.5532025368765153E-022
  -2.6599999999999999E-002     8.5820240411629444E-022
  -2.6550000000000001E-002     8.2600196368369978E-022
  -2.6500000000000003E-002     6.3032376022372830E-022
  -2.6450000000000001E-002     2.6603071572429464E-022
  -2.6400000000000000E-002    -2.4182865228924001E-022
  -2.6349999999999998E-002    -8.3491828781534456E-022
  -2.6300000000000000E-002    -1.4239543101475907E-021
  -2.6250000000000002E-002    -1.8975065810348367E-021
  -2.6200000000000001E-002    -2.1373115427783224E-021
  -2.6150000000000000E-002    -2.0388835840620385E-021
  -2.6099999999999998E-002    -1.5348370073497490E-021
  -2.6050000000000000E-002    -6.1710204932423053E-022
  -2.6000000000000002E-002     6.4656695685334889E-022
  -2.5950000000000001E-002     2.1064480514560288E-021
  -2.5899999999999999E-002     3.5388587373033003E-021
  -2.5849999999999998E-002     4.6702515317528107E-021
  -2.5800000000000000E-002     5.2166487667813335E-021
  -2.5750000000000002E-002     4.9345095409019527E-021
  -2.5700000000000001E-002     3.6760069448329230E-021
  -2.5649999999999999E-002     1.4392356590638454E-021
  -2.5599999999999998E-002    -1.5972611118505497E-021
  -2.5550000000000000E-002    -5.0656576233269718E-021
  -2.5500000000000002E-002    -8.4330702385916656E-021
  -2.5450000000000000E-002    -1.1061672399186424E-020
  -2.5399999999999999E-002    -1.2301535819010069E-020
  -2.5349999999999998E-002    -1.1606397647466962E-020
  -2.5300000000000000E-002    -8.6563321644670533E-021
  -2.5250000000000002E-002    -3.4666518361942873E-021
  -2.5200000000000000E-002     3.5395575242827256E-021
  -2.5149999999999999E-002     1.1516243635111085E-020
  -2.5100000000000001E-002     1.9251839205239710E-020
  -2.5049999999999999E-002     2.5305121070688925E-020
  -2.5000000000000001E-002     2.8212543735946812E-020
  -2.4950000000000000E-002     2.6745884477548617E-020
  -2.4899999999999999E-002     2.0185268571402960E-020
  -2.4850000000000001E-002     8.5620082499267132E-021
  -2.4800000000000003E-002    -7.1793138176648112E-021
  -2.4750000000000001E-002    -2.5147022146660472E-020
  -2.4700000000000000E-002    -4.2631910168033012E-020
  -2.4649999999999998E-002    -5.6413446032020100E-020
  -2.4600000000000000E-002    -6.3226544866206350E-020
  -2.4550000000000002E-002    -6.0339449382291928E-020
  -2.4500000000000001E-002    -4.6161587314669024E-020
  -2.4450000000000000E-002    -2.0776478914107442E-020
  -2.4399999999999998E-002     1.3714450993067655E-020
  -2.4350000000000000E-002     5.3140951149694616E-020
  -2.4299999999999999E-002     9.1577372362584448E-020
  -2.4250000000000001E-002     1.2203911915014473E-019
  -2.4199999999999999E-002     1.3751340731597682E-019
  -2.4150000000000001E-002     1.3220374308828117E-019
  -2.4100000000000000E-002     1.0280422487494179E-019
  -2.4049999999999998E-002     4.9578601705600707E-020
  -2.4000000000000000E-002    -2.2987674709937846E-020
  -2.3949999999999999E-002    -1.0615951344461548E-019
  -2.3900000000000001E-002    -1.8766808422027224E-019
  -2.3850000000000000E-002    -2.5317825327973910E-019
  -2.3800000000000002E-002    -2.8838296272816574E-019
  -2.3750000000000000E-002    -2.8146881247312424E-019
  -2.3699999999999999E-002    -2.2559021030683881E-019
  -2.3650000000000001E-002    -1.2092984101032213E-019
  -2.3599999999999999E-002     2.4073428700079980E-020
  -2.3550000000000001E-002     1.9267340146894801E-019
  -2.3500000000000000E-002     3.6114241126963128E-019
  -2.3449999999999999E-002     5.0147934868404196E-019
  -2.3400000000000001E-002     5.8527972614940995E-019
  -2.3349999999999999E-002     5.8832763967254655E-019
  -2.3300000000000001E-002     4.9528568782514949E-019
  -2.3250000000000000E-002     3.0374844819120677E-019
  -2.3199999999999998E-002     2.6908135109317689E-020
  -2.3150000000000000E-002    -3.0582092588502189E-019
  -2.3099999999999999E-002    -6.5066314117859936E-019
  -2.3050000000000001E-002    -9.5395997273688677E-019
  -2.3000000000000000E-002    -1.1590154361129226E-018
  -2.2950000000000002E-002    -1.2146474499049305E-018
  -2.2900000000000000E-002    -1.0844017609089569E-018
  -2.2849999999999999E-002    -7.5508765172115478E-019
  -2.2800000000000001E-002    -2.4315637012114803E-019
  -2.2749999999999999E-002     4.0249752353834364E-019
  -2.2700000000000001E-002     1.1024325128049440E-018
  -2.2650000000000000E-002     1.7538351119191353E-018
  -2.2599999999999999E-002     2.2428143105961337E-018
  -2.2550000000000001E-002     2.4607880240102902E-018
  -2.2499999999999999E-002     2.3230659403062590E-018
  -2.2450000000000001E-002     1.7869961059367382E-018
  -2.2400000000000000E-002     8.6661199951502888E-019
  -2.2349999999999998E-002    -3.5929421284261845E-019
  -2.2300000000000000E-002    -1.7482293543281270E-018
  -2.2249999999999999E-002    -3.1056961885680227E-018
  -2.2200000000000001E-002    -4.2075378837047480E-018
  -2.2150000000000000E-002    -4.8311506203943224E-018
  -2.2100000000000002E-002    -4.7919792029980134E-018
  -2.2050000000000000E-002    -3.9801907842334018E-018
  -2.1999999999999999E-002    -2.3914934979157795E-018
  -2.1950000000000001E-002    -1.4601905217646547E-019
  -2.1899999999999999E-002     2.5098736241700817E-018
  -2.1850000000000001E-002     5.2220296784399522E-018
  -2.1800000000000000E-002     7.5675069732729307E-018
  -2.1749999999999999E-002     9.1111725624228038E-018
  -2.1700000000000001E-002     9.4735313210726053E-018
  -2.1649999999999999E-002     8.4006150678123695E-018
  -2.1600000000000001E-002     5.8249614715537148E-018
  -2.1550000000000000E-002     1.9064753888049053E-018
  -2.1499999999999998E-002    -2.9565276197147415E-018
  -2.1450000000000000E-002    -8.1524857788565789E-018
  -2.1399999999999999E-002    -1.2919542123333377E-017
  -2.1350000000000001E-002    -1.6442081461837734E-017
  -2.1299999999999999E-002    -1.7970684493707480E-017
  -2.1250000000000002E-002    -1.6950109610469596E-017
  -2.1200000000000000E-002    -1.3136347056513324E-017
  -2.1149999999999999E-002    -6.6827128920197576E-018
  -2.1100000000000001E-002     1.8231827382746696E-018
  -2.1049999999999999E-002     1.1384697129387541E-017
  -2.1000000000000001E-002     2.0688954236055365E-017
  -2.0950000000000000E-002     2.8262686879241945E-017
  -2.0899999999999998E-002     3.2676118624997660E-017
  -2.0850000000000000E-002     3.2770257112448067E-017
  -2.0799999999999999E-002     2.7875665513567197E-017
  -2.0750000000000001E-002     1.7987654594154580E-017
  -2.0700000000000000E-002     3.8645194990222549E-018
  -2.0649999999999998E-002    -1.2977297716878153E-017
  -2.0600000000000000E-002    -3.0384940833705538E-017
  -2.0549999999999999E-002    -4.5805473049169452E-017
  -2.0500000000000001E-002    -5.6616572852694827E-017
  -2.0449999999999999E-002    -6.0514151448404940E-017
  -2.0400000000000001E-002    -5.5905683876036522E-017
  -2.0350000000000000E-002    -4.2250402953696849E-017
  -2.0299999999999999E-002    -2.0287797925770927E-017
  -2.0250000000000001E-002     7.8948867246171071E-018
  -2.0199999999999999E-002     3.8987708966939472E-017
  -2.0150000000000001E-002     6.8782416375474997E-017
  -2.0100000000000000E-002     9.2674165319197626E-017
  -2.0049999999999998E-002     1.0628953143059265E-016
  -2.0000000000000000E-002     1.0616479699217571E-016
  -1.9949999999999999E-002     9.0381215156742759E-017
  -1.9900000000000001E-002     5.9058752276218867E-017
  -1.9850000000000000E-002     1.4617444583581025E-017
  -1.9799999999999998E-002    -3.8262343404455117E-017
  -1.9750000000000000E-002    -9.3014889043315422E-017
  -1.9699999999999999E-002    -1.4188970853977434E-016
  -1.9650000000000001E-002    -1.7691999038887912E-016
  -1.9599999999999999E-002    -1.9105482033353622E-016
  -1.9550000000000001E-002    -1.7931367797713039E-016
  -1.9500000000000000E-002    -1.3979890039706542E-016
  -1.9449999999999999E-002    -7.4399573960748408E-017
  -1.9400000000000001E-002     1.0958250189611628E-017
  -1.9349999999999999E-002     1.0661506369782778E-016
  -1.9300000000000001E-002     2.0006870835602238E-016
  -1.9250000000000000E-002     2.7740538623399209E-016
  -1.9199999999999998E-002     3.2513738892754776E-016
  -1.9150000000000000E-002     3.3223529555208865E-016
  -1.9099999999999999E-002     2.9208303725175445E-016
  -1.9050000000000001E-002     2.0405594621037041E-016
  -1.9000000000000000E-002     7.4435715050247040E-017
  -1.8949999999999998E-002    -8.3566446009713197E-017
  -1.8900000000000000E-002    -2.5080578488735953E-016
  -1.8849999999999999E-002    -4.0421160986798154E-016
  -1.8800000000000001E-002    -5.1964619933274621E-016
  -1.8749999999999999E-002    -5.7530437757009710E-016
  -1.8700000000000001E-002    -5.5522037478291673E-016
  -1.8650000000000000E-002    -4.5237348635672860E-016
  -1.8599999999999998E-002    -2.7087888353585067E-016
  -1.8550000000000001E-002    -2.6819075034712373E-017
  -1.8499999999999999E-002     2.5257972516154767E-016
  -1.8450000000000001E-002     5.3151237850825318E-016
  -1.8400000000000000E-002     7.6973696860841615E-016
  -1.8349999999999998E-002     9.2787597503920041E-016
  -1.8300000000000000E-002     9.7323653085713233E-016
  -1.8249999999999999E-002     8.8535687615804389E-016
  -1.8200000000000001E-002     6.6043548132961575E-016
  -1.8149999999999999E-002     3.1386810946174926E-016
  -1.8100000000000002E-002    -1.1969467899859911E-016
  -1.8050000000000000E-002    -5.8905772233051537E-016
  -1.7999999999999999E-002    -1.0318797428359806E-015
  -1.7950000000000001E-002    -1.3822821020371624E-015
  -1.7899999999999999E-002    -1.5798202900079040E-015
  -1.7850000000000001E-002    -1.5786849298239980E-015
  -1.7800000000000000E-002    -1.3558472784468433E-015
  -1.7749999999999998E-002    -9.1687608545827882E-016
  -1.7700000000000000E-002    -2.9835504516836386E-016
  -1.7649999999999999E-002     4.3380627989062041E-016
  -1.7600000000000001E-002     1.1903662125093266E-015
  -1.7550000000000000E-002     1.8686639978504636E-015
  -1.7499999999999998E-002     2.3654791915985344E-015
  -1.7450000000000000E-002     2.5913520997919618E-015
  -1.7399999999999999E-002     2.4845214996383251E-015
  -1.7350000000000001E-002     2.0225063920112080E-015
  -1.7299999999999999E-002     1.2294776061355732E-015
  -1.7250000000000001E-002     1.7796038768796590E-016
  -1.7200000000000000E-002    -1.0159545727878207E-015
  -1.7149999999999999E-002    -2.2039087476641113E-015
  -1.7100000000000001E-002    -3.2222035739178027E-015
  -1.7049999999999999E-002    -3.9126204228380715E-015
  -1.7000000000000001E-002    -4.1446843601481742E-015
  -1.6950000000000000E-002    -3.8364832620076405E-015
  -1.6899999999999998E-002    -2.9710484939912902E-015
  -1.6850000000000000E-002    -1.6056123003991428E-015
  -1.6799999999999999E-002     1.2825992141520944E-016
  -1.6750000000000001E-002     2.0346291741763415E-015
  -1.6700000000000000E-002     3.8729396829038485E-015
  -1.6649999999999998E-002     5.3859241315284415E-015
  -1.6600000000000000E-002     6.3327425510200744E-015
  -1.6549999999999999E-002     6.5234310989353645E-015
  -1.6500000000000001E-002     5.8501458908128231E-015
  -1.6449999999999999E-002     4.3106354964538196E-015
  -1.6400000000000001E-002     2.0199423403546149E-015
  -1.6350000000000000E-002    -7.9252536980227313E-016
  -1.6299999999999999E-002    -3.8017436188661113E-015
  -1.6250000000000001E-002    -6.6208298819013007E-015
  -1.6199999999999999E-002    -8.8468786957560878E-015
  -1.6150000000000001E-002    -1.0113970147424758E-014
  -1.6100000000000000E-002    -1.0146941540214358E-014
  -1.6049999999999998E-002    -8.8086561807334810E-015
  -1.6000000000000000E-002    -6.1336049369885921E-015
  -1.5949999999999999E-002    -2.3417265494775375E-015
  -1.5900000000000001E-002     2.1716385646749623E-015
  -1.5850000000000000E-002     6.8708902788015119E-015
  -1.5799999999999998E-002     1.1138321364588923E-014
  -1.5750000000000000E-002     1.4349743293040185E-014
  -1.5699999999999999E-002     1.5959032033199255E-014
  -1.5650000000000001E-002     1.5580846601231229E-014
  -1.5599999999999999E-002     1.3059870139868754E-014
  -1.5550000000000001E-002     8.5155956954806969E-015
  -1.5500000000000000E-002     2.3539434349695672E-015
  -1.5449999999999998E-002    -4.7592679055506692E-015
  -1.5400000000000000E-002    -1.1963089343919382E-014
  -1.5349999999999999E-002    -1.8299235370155329E-014
  -1.5300000000000001E-002    -2.2832572547961020E-014
  -1.5250000000000000E-002    -2.4779799120959982E-014
  -1.5199999999999998E-002    -2.3629383631442383E-014
  -1.5150000000000000E-002    -1.9235536082483830E-014
  -1.5099999999999999E-002    -1.1871026228711308E-014
  -1.5050000000000001E-002    -2.2281458869082771E-015
  -1.4999999999999999E-002     8.6367035473152652E-015
  -1.4949999999999998E-002     1.9411926550879401E-014
  -1.4900000000000000E-002     2.8682753210834386E-014
  -1.4849999999999999E-002     3.5109339832586311E-014
  -1.4800000000000001E-002     3.7609117113066365E-014
  -1.4749999999999999E-002     3.5519391488521180E-014
  -1.4700000000000001E-002     2.8717197076326839E-014
  -1.4650000000000000E-002     1.7677403275497094E-014
  -1.4599999999999998E-002     3.4570410737698192E-015
  -1.4550000000000000E-002    -1.2397312908763453E-014
  -1.4499999999999999E-002    -2.8012373301372641E-014
  -1.4450000000000001E-002    -4.1404873098985155E-014
  -1.4400000000000000E-002    -5.0727766930566792E-014
  -1.4349999999999998E-002    -5.4516141069420856E-014
  -1.4300000000000000E-002    -5.1901109246204575E-014
  -1.4249999999999999E-002    -4.2761995819996368E-014
  -1.4200000000000001E-002    -2.7793135867988104E-014
  -1.4149999999999999E-002    -8.4708721623531215E-015
  -1.4099999999999998E-002     1.3081919053872890E-014
  -1.4050000000000000E-002     3.4323544557986522E-014
  -1.3999999999999999E-002     5.2590819357857792E-014
  -1.3950000000000001E-002     6.5432890031985724E-014
  -1.3899999999999999E-002     7.0941405898974684E-014
  -1.3850000000000001E-002     6.8034323098478593E-014
  -1.3800000000000000E-002     5.6653250446869703E-014
  -1.3749999999999998E-002     3.7842129335462249E-014
  -1.3700000000000000E-002     1.3687612326845393E-014
  -1.3649999999999999E-002    -1.2882477389690203E-014
  -1.3600000000000001E-002    -3.8428214200848757E-014
  -1.3550000000000000E-002    -5.9422109929988821E-014
  -1.3499999999999998E-002    -7.2721830087994168E-014
  -1.3450000000000000E-002    -7.6033023177738197E-014
  -1.3399999999999999E-002    -6.8300148735330705E-014
  -1.3350000000000001E-002    -4.9966352433955061E-014
  -1.3299999999999999E-002    -2.3054730214768821E-014
  -1.3249999999999998E-002     8.9579611206488617E-015
  -1.3200000000000000E-002     4.1479866303778302E-014
  -1.3149999999999998E-002     6.9331972033704913E-014
  -1.3100000000000001E-002     8.7415125135261734E-014
  -1.3049999999999999E-002     9.1441876420622808E-014
  -1.3000000000000001E-002     7.8642431602195177E-014
  -1.2950000000000000E-002     4.8347457244400835E-014
  -1.2899999999999998E-002     2.3564051170152746E-015
  -1.2850000000000000E-002    -5.4981574786573578E-014
  -1.2799999999999999E-002    -1.1701674751093738E-013