  -4.0000000000000001E-002     0.0000000000000000     
  -3.9949999999999999E-002     0.0000000000000000     
  -3.9899999999999998E-002     0.0000000000000000     
  -3.9850000000000003E-002     0.0000000000000000     
  -3.9800000000000002E-002     0.0000000000000000     
  -3.9750000000000001E-002     0.0000000000000000     
  -3.9699999999999999E-002     0.0000000000000000     
  -3.9649999999999998E-002     0.0000000000000000     
  -3.9600000000000003E-002     0.0000000000000000     
  -3.9550000000000002E-002     0.0000000000000000     
  -3.9500000000000000E-002     0.0000000000000000     
  -3.9449999999999999E-002     0.0000000000000000     
  -3.9399999999999998E-002     0.0000000000000000     
  -3.9350000000000003E-002     0.0000000000000000     
  -3.9300000000000002E-002     0.0000000000000000     
  -3.9250000000000000E-002     0.0000000000000000     
  -3.9199999999999999E-002     0.0000000000000000     
  -3.9150000000000004E-002     0.0000000000000000     
  -3.9100000000000003E-002     0.0000000000000000     
  -3.9050000000000001E-002     0.0000000000000000     
  -3.9000000000000000E-002     0.0000000000000000     
  -3.8949999999999999E-002     0.0000000000000000     
  -3.8900000000000004E-002     0.0000000000000000     
  -3.8850000000000003E-002     0.0000000000000000     
  -3.8800000000000001E-002     0.0000000000000000     
  -3.8750000000000000E-002     0.0000000000000000     
  -3.8699999999999998E-002     0.0000000000000000     
  -3.8650000000000004E-002     0.0000000000000000     
  -3.8600000000000002E-002     0.0000000000000000     
  -3.8550000000000001E-002     0.0000000000000000     
  -3.8500000000000000E-002     0.0000000000000000     
  -3.8449999999999998E-002     0.0000000000000000     
  -3.8400000000000004E-002     0.0000000000000000     
  -3.8350000000000002E-002     0.0000000000000000     
  -3.8300000000000001E-002     0.0000000000000000     
  -3.8249999999999999E-002     0.0000000000000000     
  -3.8199999999999998E-002     0.0000000000000000     
  -3.8150000000000003E-002     0.0000000000000000     
  -3.8100000000000002E-002     0.0000000000000000     
  -3.8050000000000000E-002     0.0000000000000000     
  -3.7999999999999999E-002     0.0000000000000000     
  -3.7949999999999998E-002     0.0000000000000000     
  -3.7900000000000003E-002     0.0000000000000000     
  -3.7850000000000002E-002     0.0000000000000000     
  -3.7800000000000000E-002     0.0000000000000000     
  -3.7749999999999999E-002     0.0000000000000000     
  -3.7699999999999997E-002     0.0000000000000000     
  -3.7650000000000003E-002     0.0000000000000000     
  -3.7600000000000001E-002     0.0000000000000000     
  -3.7550000000000000E-002     0.0000000000000000     
  -3.7499999999999999E-002     0.0000000000000000     
  -3.7449999999999997E-002     0.0000000000000000     
  -3.7400000000000003E-002     0.0000000000000000     
  -3.7350000000000001E-002     0.0000000000000000     
  -3.7300000000000000E-002     0.0000000000000000     
  -3.7249999999999998E-002     0.0000000000000000     
  -3.7200000000000004E-002     0.0000000000000000     
  -3.7150000000000002E-002     0.0000000000000000     
  -3.7100000000000001E-002     0.0000000000000000     
  -3.7050000000000000E-002     0.0000000000000000     
  -3.6999999999999998E-002     0.0000000000000000     
  -3.6950000000000004E-002     0.0000000000000000     
  -3.6900000000000002E-002     0.0000000000000000     
  -3.6850000000000001E-002     0.0000000000000000     
  -3.6799999999999999E-002     0.0000000000000000     
  -3.6749999999999998E-002     0.0000000000000000     
  -3.6700000000000003E-002     0.0000000000000000     
  -3.6650000000000002E-002     0.0000000000000000     
  -3.6600000000000001E-002     0.0000000000000000     
  -3.6549999999999999E-002     0.0000000000000000     
  -3.6499999999999998E-002     0.0000000000000000     
  -3.6450000000000003E-002     0.0000000000000000     
  -3.6400000000000002E-002     0.0000000000000000     
  -3.6350000000000000E-002     0.0000000000000000     
  -3.6299999999999999E-002     0.0000000000000000     
  -3.6249999999999998E-002     0.0000000000000000     
  -3.6200000000000003E-002     0.0000000000000000     
  -3.6150000000000002E-002     0.0000000000000000     
  -3.6100000000000000E-002     0.0000000000000000     
  -3.6049999999999999E-002     0.0000000000000000     
  -3.6000000000000004E-002     0.0000000000000000     
  -3.5950000000000003E-002     0.0000000000000000     
  -3.5900000000000001E-002     0.0000000000000000     
  -3.5850000000000000E-002     0.0000000000000000     
  -3.5799999999999998E-002     0.0000000000000000     
  -3.5750000000000004E-002     0.0000000000000000     
  -3.5700000000000003E-002     0.0000000000000000     
  -3.5650000000000001E-002     0.0000000000000000     
  -3.5600000000000000E-002     0.0000000000000000     
  -3.5549999999999998E-002     0.0000000000000000     
  -3.5500000000000004E-002     0.0000000000000000     
  -3.5450000000000002E-002     0.0000000000000000     
  -3.5400000000000001E-002     0.0000000000000000     
  -3.5349999999999999E-002     0.0000000000000000     
  -3.5299999999999998E-002     0.0000000000000000     
  -3.5250000000000004E-002     0.0000000000000000     
  -3.5200000000000002E-002     0.0000000000000000     
  -3.5150000000000001E-002     0.0000000000000000     
  -3.5099999999999999E-002     0.0000000000000000     
  -3.5049999999999998E-002     0.0000000000000000     
  -3.5000000000000003E-002     0.0000000000000000     
  -3.4950000000000002E-002     0.0000000000000000     
  -3.4900000000000000E-002     0.0000000000000000     
  -3.4849999999999999E-002     0.0000000000000000     
  -3.4799999999999998E-002     0.0000000000000000     
  -3.4750000000000003E-002     0.0000000000000000     
  -3.4700000000000002E-002     0.0000000000000000     
  -3.4650000000000000E-002     0.0000000000000000     
  -3.4599999999999999E-002     0.0000000000000000     
  -3.4549999999999997E-002     0.0000000000000000     
  -3.4500000000000003E-002     0.0000000000000000     
  -3.4450000000000001E-002     0.0000000000000000     
  -3.4400000000000000E-002     0.0000000000000000     
  -3.4349999999999999E-002     0.0000000000000000     
  -3.4299999999999997E-002     0.0000000000000000     
  -3.4250000000000003E-002     0.0000000000000000     
  -3.4200000000000001E-002     0.0000000000000000     
  -3.4150000000000000E-002     0.0000000000000000     
  -3.4099999999999998E-002     0.0000000000000000     
  -3.4049999999999997E-002     0.0000000000000000     
  -3.4000000000000002E-002     0.0000000000000000     
  -3.3950000000000001E-002     0.0000000000000000     
  -3.3900000000000000E-002     0.0000000000000000     
  -3.3849999999999998E-002     0.0000000000000000     
  -3.3799999999999997E-002     0.0000000000000000     
  -3.3750000000000002E-002     0.0000000000000000     
  -3.3700000000000001E-002     0.0000000000000000     
  -3.3649999999999999E-002     0.0000000000000000     
  -3.3599999999999998E-002     8.4669569277264431E-040
  -3.3550000000000003E-002     2.2196538010840087E-039
  -3.3500000000000002E-002     3.5730449466337998E-039
  -3.3450000000000001E-002     3.5832614443476409E-039
  -3.3399999999999999E-002     2.2566587934277501E-039
  -3.3349999999999998E-002     0.0000000000000000     
  -3.3300000000000003E-002    -5.2435113503349588E-039
  -3.3250000000000002E-002    -1.1851812648031787E-038
  -3.3200000000000000E-002    -1.7625835301790303E-038
  -3.3149999999999999E-002    -2.3344521002831238E-038
  -3.3099999999999997E-002    -2.5226739480422694E-038
  -3.3050000000000003E-002    -1.0951537339110039E-038
  -3.3000000000000002E-002     8.4804649677290231E-039
  -3.2950000000000000E-002     3.2351583513964453E-038
  -3.2899999999999999E-002     5.9793857597772238E-038
  -3.2850000000000004E-002     7.2573543829054804E-038
  -3.2800000000000003E-002     9.2316475061621638E-038
  -3.2750000000000001E-002     1.0532896982859813E-037
  -3.2700000000000000E-002     1.1645459402463840E-037
  -3.2649999999999998E-002     1.2439577392716041E-037
  -3.2600000000000004E-002     1.0391017644791711E-037
  -3.2550000000000003E-002     6.0979316320476486E-038
  -3.2500000000000001E-002    -3.7841646093078011E-038
  -3.2450000000000000E-002    -1.9972555432760452E-037
  -3.2399999999999998E-002    -4.5493150239837645E-037
  -3.2350000000000004E-002    -7.7525703491336144E-037
  -3.2300000000000002E-002    -1.1165336457560255E-036
  -3.2250000000000001E-002    -1.3911504383634317E-036
  -3.2199999999999999E-002    -1.4732945808991576E-036
  -3.2149999999999998E-002    -1.2145702724261057E-036
  -3.2100000000000004E-002    -4.7760762621483754E-037
  -3.2050000000000002E-002     8.1460182029041255E-037
  -3.2000000000000001E-002     2.6271885348158575E-036
  -3.1949999999999999E-002     4.7695026081995674E-036
  -3.1899999999999998E-002     6.9148713647532521E-036
  -3.1850000000000003E-002     8.6429604969596667E-036
  -3.1800000000000002E-002     9.5222625092562755E-036
  -3.1750000000000000E-002     9.1650159463233269E-036
  -3.1699999999999999E-002     7.2092543919196867E-036
  -3.1649999999999998E-002     3.2008008472219141E-036
  -3.1600000000000003E-002    -3.5825930407001253E-036
  -3.1550000000000002E-002    -1.4225875195382152E-035
  -3.1500000000000000E-002    -2.9966861590222001E-035
  -3.1449999999999999E-002    -5.1457890599717472E-035
  -3.1399999999999997E-002    -7.7417051951116013E-035
  -3.1350000000000003E-002    -1.0289082903727805E-034
  -3.1300000000000001E-002    -1.1775765524893678E-034
  -3.1250000000000000E-002    -1.0648803382302334E-034
  -3.1199999999999999E-002    -5.0320933710560672E-035
  -3.1150000000000001E-002     6.7298407506450854E-035
  -3.1100000000000003E-002     2.5208541209605549E-034
  -3.1050000000000001E-002     4.8860314375395174E-034
  -3.1000000000000000E-002     7.3144317483523785E-034
  -3.0949999999999998E-002     9.0235445659442137E-034
  -3.0900000000000000E-002     8.9794065895147715E-034
  -3.0850000000000002E-002     6.1098289314809709E-034
  -3.0800000000000001E-002    -3.5061517291450041E-035
  -3.0750000000000000E-002    -1.0438226308194440E-033
  -3.0699999999999998E-002    -2.3067271640361695E-033
  -3.0650000000000000E-002    -3.5810499932284565E-033
  -3.0600000000000002E-002    -4.4999844075089722E-033
  -3.0550000000000001E-002    -4.6249544749463712E-033
  -3.0499999999999999E-002    -3.5411496381453559E-033
  -3.0449999999999998E-002    -9.8471858314515849E-034
  -3.0400000000000000E-002     3.0227556910647082E-033
  -3.0350000000000002E-002     8.0662952819243071E-033
  -3.0300000000000001E-002     1.3292563201331325E-032
  -3.0249999999999999E-002     1.7458501161327941E-032
  -3.0200000000000001E-002     1.9090140783012463E-032
  -3.0150000000000000E-002     1.6748338817285648E-032
  -3.0100000000000002E-002     9.3761193207957021E-033
  -3.0050000000000000E-002    -3.3187318524546476E-033
  -2.9999999999999999E-002    -2.0510244468142414E-032
  -2.9950000000000001E-002    -4.0008745740905527E-032
  -2.9899999999999999E-002    -5.8211603649606440E-032
  -2.9850000000000002E-002    -7.0340250514440124E-032
  -2.9800000000000000E-002    -7.1039653999646712E-032
  -2.9749999999999999E-002    -5.5375643859406845E-032
  -2.9700000000000001E-002    -2.0186978367267823E-032
  -2.9650000000000003E-002     3.4370017069205977E-032
  -2.9600000000000001E-002     1.0339258156008476E-031
  -2.9550000000000000E-002     1.7636242833960155E-031
  -2.9499999999999998E-002     2.3734872849581849E-031
  -2.9450000000000000E-002     2.6673071407486768E-031
  -2.9400000000000003E-002     2.4464260147155274E-031
  -2.9350000000000001E-002     1.5591779671239103E-031
  -2.9300000000000000E-002    -4.2302565945568953E-033
  -2.9249999999999998E-002    -2.2506589546118636E-031
  -2.9200000000000000E-002    -4.7730539106505036E-031
  -2.9150000000000002E-002    -7.1370584361942924E-031
  -2.9100000000000001E-002    -8.7421872511690539E-031
  -2.9049999999999999E-002    -8.9569530274984852E-031
  -2.8999999999999998E-002    -7.2497499605898258E-031
  -2.8950000000000000E-002    -3.3317253432663569E-031
  -2.8900000000000002E-002     2.7156017753303111E-031
  -2.8850000000000001E-002     1.0353893936453159E-030
  -2.8799999999999999E-002     1.8561281819808919E-030
  -2.8749999999999998E-002     2.5874113891948640E-030
  -2.8700000000000000E-002     3.0498910267437247E-030
  -2.8650000000000002E-002     3.0496236892535487E-030
  -2.8600000000000000E-002     2.4045751489895942E-030
  -2.8549999999999999E-002     9.8101125967700455E-031
  -2.8500000000000001E-002    -1.2587326090566719E-030
  -2.8450000000000000E-002    -4.1985147584216917E-030
  -2.8400000000000002E-002    -7.5085742326189138E-030
  -2.8350000000000000E-002    -1.0601135434905010E-029
  -2.8299999999999999E-002    -1.2629004458193487E-029
  -2.8250000000000001E-002    -1.2560522700492487E-029
  -2.8200000000000003E-002    -9.3596563145091442E-030
  -2.8150000000000001E-002    -2.2800561308421775E-030
  -2.8100000000000000E-002     8.7549833421188261E-030
  -2.8049999999999999E-002     2.2763501523440982E-029
  -2.8000000000000001E-002     3.7431845047296244E-029
  -2.7950000000000003E-002     4.9111469004907883E-029
  -2.7900000000000001E-002     5.3227817292507325E-029
  -2.7850000000000000E-002     4.5176086097515093E-029
  -2.7799999999999998E-002     2.1652930597005894E-029
  -2.7750000000000000E-002    -1.7792869794725601E-029
  -2.7700000000000002E-002    -6.9374506108400238E-029
  -2.7650000000000001E-002    -1.2434119197130902E-028
  -2.7600000000000000E-002    -1.6940393891056117E-028
  -2.7549999999999998E-002    -1.8864393909968170E-028
  -2.7500000000000000E-002    -1.6690968919678882E-028
  -2.7450000000000002E-002    -9.4265230904316827E-029
  -2.7400000000000001E-002     2.9412290038962094E-029
  -2.7349999999999999E-002     1.9093523046662440E-028
  -2.7299999999999998E-002     3.6274678233092389E-028
  -2.7250000000000000E-002     5.0536548124747815E-028
  -2.7200000000000002E-002     5.7373841935120114E-028
  -2.7150000000000001E-002     5.2695195552254958E-028
  -2.7099999999999999E-002     3.3969244112403061E-028
  -2.7049999999999998E-002     1.2972081010471923E-029
  -2.7000000000000000E-002    -4.1877921667546502E-028
  -2.6950000000000002E-002    -8.8689225635965183E-028
  -2.6900000000000000E-002    -1.2955396163942398E-027
  -2.6849999999999999E-002    -1.5367469776228369E-027
  -2.6800000000000001E-002    -1.5114707479402034E-027
  -2.6749999999999999E-002    -1.1531642670934939E-027
  -2.6700000000000002E-002    -4.4915376213181792E-028
  -2.6650000000000000E-002     5.4498909543437474E-028
  -2.6599999999999999E-002     1.7019855810812906E-027
  -2.6550000000000001E-002     2.8324202033736396E-027
  -2.6500000000000003E-002     3.7072210914634573E-027
  -2.6450000000000001E-002     4.0907651365333479E-027
  -2.6400000000000000E-002     3.7806636387041016E-027
  -2.6349999999999998E-002     2.6493989375843820E-027
  -2.6300000000000000E-002     6.8275271343993173E-028
  -2.6250000000000002E-002    -1.9899437696193712E-027
  -2.6200000000000001E-002    -5.0787270723384998E-027
  -2.6150000000000000E-002    -8.1344878130875184E-027
  -2.6099999999999998E-002    -1.0575035119981925E-026
  -2.6050000000000000E-002    -1.1741799269246481E-026
  -2.6000000000000002E-002    -1.0991547346845700E-026
  -2.5950000000000001E-002    -7.8227739710841840E-027
  -2.5899999999999999E-002    -2.0278997280596032E-027
  -2.5849999999999998E-002     6.1494732570465151E-027
  -2.5800000000000000E-002     1.5886105100955380E-026
  -2.5750000000000002E-002     2.5724019535888161E-026
  -2.5700000000000001E-002     3.3636349759259127E-026
  -2.5649999999999999E-002     3.7252629783220202E-026
  -2.5599999999999998E-002     3.4257416220273448E-026
  -2.5550000000000000E-002     2.2936552920758304E-026
  -2.5500000000000002E-002     2.7959846074394294E-027
  -2.5450000000000000E-002    -2.4871236978955449E-026
  -2.5399999999999999E-002    -5.6629046269647890E-026
  -2.5349999999999998E-002    -8.6919335906724914E-026
  -2.5300000000000000E-002    -1.0859079576502834E-025
  -2.5250000000000002E-002    -1.1398628176759429E-025
  -2.5200000000000000E-002    -9.6519266471808086E-026
  -2.5149999999999999E-002    -5.2527256956198521E-026
  -2.5100000000000001E-002     1.6945054456588619E-026
  -2.5049999999999999E-002     1.0487300806326029E-025
  -2.5000000000000001E-002     1.9794433079787097E-025
  -2.4950000000000000E-002     2.7758192681429935E-025
  -2.4899999999999999E-002     3.2246175053459888E-025
  -2.4850000000000001E-002     3.1239361719697522E-025
  -2.4800000000000003E-002     2.3308511916896580E-025
  -2.4750000000000001E-002     8.0975767804480282E-026
  -2.4700000000000000E-002    -1.3291028501351799E-025
  -2.4649999999999998E-002    -3.8120968165745501E-025
  -2.4600000000000000E-002    -6.2151577774977168E-025
  -2.4550000000000002E-002    -8.0125989857223953E-025
  -2.4500000000000001E-002    -8.6607245584054652E-025
  -2.4450000000000000E-002    -7.7074434770484113E-025
  -2.4399999999999998E-002    -4.9112922890756247E-025
  -2.4350000000000000E-002    -3.4715070570892605E-026
  -2.4299999999999999E-002     5.5268555000448692E-025
  -2.4250000000000001E-002     1.1864833245771127E-024
  -2.4199999999999999E-002     1.7507270844677420E-024
  -2.4150000000000001E-002     2.1137649795693748E-024
  -2.4100000000000000E-002     2.1509360599275904E-024
  -2.4049999999999998E-002     1.7713503979134751E-024
  -2.4000000000000000E-002     9.4431606488226021E-025
  -2.3949999999999999E-002    -2.7996360522807843E-025
  -2.3900000000000001E-002    -1.7608533142352092E-024
  -2.3850000000000000E-002    -3.2733194828731624E-024
  -2.3800000000000002E-002    -4.5318378350004485E-024
  -2.3750000000000000E-002    -5.2314825877729658E-024
  -2.3699999999999999E-002    -5.1020342338312829E-024
  -2.3650000000000001E-002    -3.9675798194663815E-024
  -2.3599999999999999E-002    -1.8014891195018298E-024
  -2.3550000000000001E-002     1.2345323781945232E-024
  -2.3500000000000000E-002     4.7779380170822167E-024
  -2.3449999999999999E-002     8.2872550841269866E-024
  -2.3400000000000001E-002     1.1101606144102125E-023
  -2.3349999999999999E-002     1.2534940593959533E-023
  -2.3300000000000001E-002     1.1995366804215418E-023
  -2.3250000000000000E-002     9.1136916730886807E-024
  -2.3199999999999998E-002     3.8605498765221796E-024
  -2.3150000000000000E-002    -3.3707604502907067E-024
  -2.3099999999999999E-002    -1.1737448051851493E-023
  -2.3050000000000001E-002    -1.9993351330053776E-023
  -2.3000000000000000E-002    -2.6616326422630767E-023
  -2.2950000000000002E-002    -3.0013597395645556E-023
  -2.2900000000000000E-002    -2.8787965501541991E-023
  -2.2849999999999999E-002    -2.2033500531542401E-023
  -2.2800000000000001E-002    -9.6167634052898312E-024
  -2.2749999999999999E-002     7.6090452015285318E-024
  -2.2700000000000001E-002     2.7711639937954225E-023
  -2.2650000000000000E-002     4.7756723925342649E-023
  -2.2599999999999999E-002     6.4085255556645751E-023
  -2.2550000000000001E-002     7.2794093100270590E-023
  -2.2499999999999999E-002     7.0386615244691918E-023
  -2.2450000000000001E-002     5.4519274404982547E-023
  -2.2400000000000000E-002     2.4730832406420523E-023
  -2.2349999999999998E-002    -1.6987471604386435E-023
  -2.2300000000000000E-002    -6.5932097748907891E-023
  -2.2249999999999999E-002    -1.1487121296104869E-022
  -2.2200000000000001E-002    -1.5475619804720627E-022
  -2.2150000000000000E-002    -1.7596360103066376E-022
  -2.2100000000000002E-002    -1.6996637423286153E-022
  -2.2050000000000000E-002    -1.3122102726785307E-022
  -2.1999999999999999E-002    -5.8958057505733157E-023
  -2.1950000000000001E-002     4.1498646035957928E-023
  -2.1899999999999999E-002     1.5825939821563075E-022
  -2.1850000000000001E-002     2.7354319514268100E-022
  -2.1800000000000000E-002     3.6564561626064869E-022
  -2.1749999999999999E-002     4.1212357676160715E-022
  -2.1700000000000001E-002     3.9386173322542720E-022
  -2.1649999999999999E-002     2.9943423672837203E-022
  -2.1600000000000001E-002     1.2898521229335789E-022
  -2.1550000000000000E-002    -1.0322559834993786E-022
  -2.1499999999999998E-002    -3.6838920775861327E-022
  -2.1450000000000000E-002    -6.2535793539272292E-022
  -2.1399999999999999E-002    -8.2563318713803978E-022
  -2.1350000000000001E-002    -9.2075950660108934E-022
  -2.1299999999999999E-002    -8.7122321426568101E-022
  -2.1250000000000002E-002    -6.5549654052642591E-022
  -2.1200000000000000E-002    -2.7758271506553917E-022
  -2.1149999999999999E-002     2.2860786761077174E-022
  -2.1100000000000001E-002     7.9944500571063351E-022
  -2.1049999999999999E-002     1.3471374976497921E-021
  -2.1000000000000001E-002     1.7706464299440906E-021
  -2.0950000000000000E-002     1.9709753439731761E-021
  -2.0899999999999998E-002     1.8689167808657491E-021
  -2.0850000000000000E-002     1.4225820873072845E-021
  -2.0799999999999999E-002     6.4163554201854594E-022
  -2.0750000000000001E-002    -4.0478777516935885E-022
  -2.0700000000000000E-002    -1.5889151505668757E-021
  -2.0649999999999998E-002    -2.7352864206386522E-021
  -2.0600000000000000E-002    -3.6417059185842676E-021
  -2.0549999999999999E-002    -4.1084172291253632E-021
  -2.0500000000000001E-002    -3.9720740790975562E-021
  -2.0449999999999999E-002    -3.1397388262638744E-021
  -2.0400000000000001E-002    -1.6173403253675318E-021
  -2.0350000000000000E-002     4.7302061807904867E-022
  -2.0299999999999999E-002     2.8916997203946273E-021
  -2.0250000000000001E-002     5.2991318268875456E-021
  -2.0199999999999999E-002     7.2930309275999865E-021
  -2.0150000000000001E-002     8.4627338341772330E-021
  -2.0100000000000000E-002     8.4550787376462008E-021
  -2.0049999999999998E-002     7.0433428746788081E-021
  -2.0000000000000000E-002     4.1886645847700873E-021
  -1.9949999999999999E-002     8.2577212770262061E-023
  -1.9900000000000001E-002    -4.8399200403255620E-021
  -1.9850000000000000E-002    -9.9246216600204835E-021
  -1.9799999999999998E-002    -1.4363081326896608E-020
  -1.9750000000000000E-002    -1.7295726539182153E-020
  -1.9699999999999999E-002    -1.7943737839752708E-020
  -1.9650000000000001E-002    -1.5753691137434738E-020
  -1.9599999999999999E-002    -1.0533566059430234E-020
  -1.9550000000000001E-002    -2.5557435925544288E-021
  -1.9500000000000000E-002     7.3968447741281428E-021
  -1.9449999999999999E-002     1.8060594060304318E-020
  -1.9400000000000001E-002     2.7807415935721346E-020
  -1.9349999999999999E-002     3.4844968140264328E-020
  -1.9300000000000001E-002     3.7483965948058168E-020
  -1.9250000000000000E-002     3.4440678483419155E-020
  -1.9199999999999998E-002     2.5130276640714152E-020
  -1.9150000000000000E-002     9.8994984510084852E-021
  -1.9099999999999999E-002    -9.8528787018814956E-021
  -1.9050000000000001E-002    -3.1709920406884223E-020
  -1.9000000000000000E-002    -5.2448748792488284E-020
  -1.8949999999999998E-002    -6.8428905440763193E-020
  -1.8900000000000000E-002    -7.6124057310494833E-020
  -1.8849999999999999E-002    -7.2733253514573125E-020
  -1.8800000000000001E-002    -5.6782502573854214E-020
  -1.8749999999999999E-002    -2.8612597726866466E-020
  -1.8700000000000001E-002     9.3501190255631948E-021
  -1.8650000000000000E-002     5.2624885065060548E-020
  -1.8599999999999998E-002     9.5057519568197156E-020
  -1.8550000000000001E-002     1.2954808582673608E-019
  -1.8499999999999999E-002     1.4906232413701843E-019
  -1.8450000000000001E-002     1.4780516708146868E-019
  -1.8400000000000000E-002     1.2238717765463887E-019
  -1.8349999999999998E-002     7.2787810739934983E-020
  -1.8300000000000000E-002     2.9222033099733114E-021
  -1.8249999999999999E-002    -7.9346682244642464E-020
  -1.8200000000000001E-002    -1.6284074663001082E-019
  -1.8149999999999999E-002    -2.3434190241890932E-019
  -1.8100000000000002E-002    -2.8040094042094980E-019
  -1.8050000000000000E-002    -2.8946739789341429E-019
  -1.7999999999999999E-002    -2.5404444718572513E-019
  -1.7950000000000001E-002    -1.7252497306735864E-019
  -1.7899999999999999E-002    -5.0367394092887230E-020
  -1.7850000000000001E-002     9.9673735088826894E-020
  -1.7800000000000000E-002     2.5843705773855808E-019
  -1.7749999999999998E-002     4.0238570190059904E-019
  -1.7700000000000000E-002     5.0662768009551805E-019
  -1.7649999999999999E-002     5.4859593965285675E-019
  -1.7600000000000001E-002     5.1191280623564501E-019
  -1.7550000000000000E-002     3.8986856624435542E-019
  -1.7499999999999998E-002     1.8792568079871680E-019
  -1.7450000000000000E-002    -7.5275397474180518E-020
  -1.7399999999999999E-002    -3.6877641313018821E-019
  -1.7350000000000001E-002    -6.5216841626522701E-019
  -1.7299999999999999E-002    -8.8032637710762976E-019
  -1.7250000000000001E-002    -1.0095713413255482E-018
  -1.7200000000000000E-002    -1.0045458571344896E-018
  -1.7149999999999999E-002    -8.4487712228924900E-019
  -1.7100000000000001E-002    -5.3059486702683809E-019
  -1.7049999999999999E-002    -8.5300272164261348E-020
  -1.7000000000000001E-002     4.4373688462562058E-019
  -1.6950000000000000E-002     9.8904856114485307E-019
  -1.6899999999999998E-002     1.4700439430772061E-018
  -1.6850000000000000E-002     1.8031952120224112E-018
  -1.6799999999999999E-002     1.9142907352555366E-018
  -1.6750000000000001E-002     1.7512258852804668E-018
  -1.6700000000000000E-002     1.2954743930093337E-018
  -1.6649999999999998E-002     5.7026877912539501E-019
  -1.6600000000000000E-002    -3.5629801090777040E-019
  -1.6549999999999999E-002    -1.3745592317239154E-018
  -1.6500000000000001E-002    -2.3434814951974368E-018
  -1.6449999999999999E-002    -3.1073458372782016E-018
  -1.6400000000000001E-002    -3.5173674548150881E-018
  -1.6350000000000000E-002    -3.4556912102593093E-018
  -1.6299999999999999E-002    -2.8584072436747134E-018
  -1.6250000000000001E-002    -1.7338384766074111E-018
  -1.6199999999999999E-002    -1.7248969434585509E-019
  -1.6150000000000001E-002     1.6542132741050610E-018
  -1.6100000000000000E-002     3.5079480325564014E-018
  -1.6049999999999998E-002     5.1100592087768567E-018
  -1.6000000000000000E-002     6.1784204391790532E-018
  -1.5949999999999999E-002     6.4703826648679471E-018
  -1.5900000000000001E-002     5.8260002467980366E-018
  -1.5850000000000000E-002     4.2048213396531361E-018
  -1.5799999999999998E-002     1.7095567643637192E-018
  -1.5750000000000000E-002    -1.4089350032318631E-018
  -1.5699999999999999E-002    -4.7688037977855171E-018
  -1.5650000000000001E-002    -7.8969358800530962E-018
  -1.5599999999999999E-002    -1.0288252269910829E-017
  -1.5550000000000001E-002    -1.1478103975289559E-017
  -1.5500000000000000E-002    -1.1118405043873824E-017
  -1.5449999999999998E-002    -9.0463336470899189E-018
  -1.5400000000000000E-002    -5.3341179479673761E-018
  -1.5349999999999999E-002    -3.0986306413018511E-019
  -1.5300000000000001E-002     5.4574954055911748E-018
  -1.5250000000000000E-002     1.1211410638889517E-017
  -1.5199999999999998E-002     1.6095980435719903E-017
  -1.5150000000000000E-002     1.9270369300367692E-017
  -1.5099999999999999E-002     2.0035619504269356E-017
  -1.5050000000000001E-002     1.7956519006609816E-017
  -1.4999999999999999E-002     1.2959880565872954E-017
  -1.4949999999999998E-002     5.3918382189427229E-018
  -1.4900000000000000E-002    -3.9792515480959834E-018
  -1.4849999999999999E-002    -1.4021343641521675E-017
  -1.4800000000000001E-002    -2.3357596235190246E-017
  -1.4749999999999999E-002    -3.0535744004032293E-017
  -1.4700000000000001E-002    -3.4229486225834168E-017
  -1.4650000000000000E-002    -3.3446782248509757E-017
  -1.4599999999999998E-002    -2.7715878600645082E-017
  -1.4550000000000000E-002    -1.7219669791645414E-017
  -1.4499999999999999E-002    -2.8527364465438686E-018
  -1.4450000000000001E-002     1.3816629518301673E-017
  -1.4400000000000000E-002     3.0685817317697129E-017
  -1.4349999999999998E-002     4.5351552108143703E-017
  -1.4300000000000000E-002     5.5416320020145874E-017
  -1.4249999999999999E-002     5.8833164233385720E-017
  -1.4200000000000001E-002     5.4244583116268156E-017
  -1.4149999999999999E-002     4.1266428474313703E-017
  -1.4099999999999998E-002     2.0669177417838903E-017
  -1.4050000000000000E-002    -5.5826675426153477E-018
  -1.3999999999999999E-002    -3.4457283925132365E-017
  -1.3950000000000001E-002    -6.2151976301380013E-017
  -1.3899999999999999E-002    -8.4539211050228848E-017
  -1.3850000000000001E-002    -9.7717832837170524E-017
  -1.3800000000000000E-002    -9.8604034593157687E-017
  -1.3749999999999998E-002    -8.5481900073676984E-017
  -1.3700000000000000E-002    -5.8428555762139039E-017
  -1.3649999999999999E-002    -1.9535614771597669E-017
  -1.3600000000000001E-002     2.7132118737838844E-017
  -1.3550000000000000E-002     7.5869566593462068E-017
  -1.3499999999999998E-002     1.1994522460298482E-016
  -1.3450000000000000E-002     1.5244350993754867E-016
  -1.3399999999999999E-002     1.6724176732859089E-016
  -1.3350000000000001E-002     1.5999645711226795E-016
  -1.3299999999999999E-002     1.2899518509449824E-016
  -1.3249999999999998E-002     7.5732799616611074E-017
  -1.3200000000000000E-002     5.0923117257063261E-018
  -1.3149999999999998E-002    -7.4944900356570746E-017
  -1.3100000000000001E-002    -1.5407488721335192E-016
  -1.3049999999999999E-002    -2.2087862241616154E-016
  -1.3000000000000001E-002    -2.6433597501721216E-016
  -1.2950000000000000E-002    -2.7546128683332035E-016
  -1.2899999999999998E-002    -2.4883623636124330E-016
  -1.2850000000000000E-002    -1.8380436916868078E-016
  -1.2799999999999999E-002    -8.5115182354897093E-017