  -4.0000000000000001E-002     0.0000000000000000     
  -3.9949999999999999E-002     0.0000000000000000     
  -3.9899999999999998E-002     0.0000000000000000     
  -3.9850000000000003E-002     0.0000000000000000     
  -3.9800000000000002E-002     0.0000000000000000     
  -3.9750000000000001E-002     0.0000000000000000     
  -3.9699999999999999E-002     0.0000000000000000     
  -3.9649999999999998E-002     0.0000000000000000     
  -3.9600000000000003E-002     0.0000000000000000     
  -3.9550000000000002E-002     0.0000000000000000     
  -3.9500000000000000E-002     0.0000000000000000     
  -3.9449999999999999E-002     0.0000000000000000     
  -3.9399999999999998E-002     0.0000000000000000     
  -3.9350000000000003E-002     0.0000000000000000     
  -3.9300000000000002E-002     0.0000000000000000     
  -3.9250000000000000E-002     0.0000000000000000     
  -3.9199999999999999E-002     0.0000000000000000     
  -3.9150000000000004E-002     0.0000000000000000     
  -3.9100000000000003E-002     0.0000000000000000     
  -3.9050000000000001E-002     0.0000000000000000     
  -3.9000000000000000E-002     0.0000000000000000     
  -3.8949999999999999E-002     0.0000000000000000     
  -3.8900000000000004E-002     0.0000000000000000     
  -3.8850000000000003E-002     0.0000000000000000     
  -3.8800000000000001E-002     0.0000000000000000     
  -3.8750000000000000E-002     0.0000000000000000     
  -3.8699999999999998E-002     0.0000000000000000     
  -3.8650000000000004E-002     0.0000000000000000     
  -3.8600000000000002E-002     0.0000000000000000     
  -3.8550000000000001E-002     0.0000000000000000     
  -3.8500000000000000E-002     0.0000000000000000     
  -3.8449999999999998E-002     0.0000000000000000     
  -3.8400000000000004E-002     0.0000000000000000     
  -3.8350000000000002E-002     0.0000000000000000     
  -3.8300000000000001E-002     0.0000000000000000     
  -3.8249999999999999E-002     0.0000000000000000     
  -3.8199999999999998E-002     0.0000000000000000     
  -3.8150000000000003E-002     0.0000000000000000     
  -3.8100000000000002E-002     0.0000000000000000     
  -3.8050000000000000E-002     0.0000000000000000     
  -3.7999999999999999E-002     0.0000000000000000     
  -3.7949999999999998E-002     0.0000000000000000     
  -3.7900000000000003E-002     0.0000000000000000     
  -3.7850000000000002E-002     0.0000000000000000     
  -3.7800000000000000E-002     0.0000000000000000     
  -3.7749999999999999E-002     0.0000000000000000     
  -3.7699999999999997E-002     0.0000000000000000     
  -3.7650000000000003E-002     0.0000000000000000     
  -3.7600000000000001E-002     0.0000000000000000     
  -3.7550000000000000E-002     0.0000000000000000     
  -3.7499999999999999E-002     0.0000000000000000     
  -3.7449999999999997E-002     0.0000000000000000     
  -3.7400000000000003E-002     0.0000000000000000     
  -3.7350000000000001E-002     0.0000000000000000     
  -3.7300000000000000E-002     0.0000000000000000     
  -3.7249999999999998E-002     0.0000000000000000     
  -3.7200000000000004E-002     0.0000000000000000     
  -3.7150000000000002E-002     0.0000000000000000     
  -3.7100000000000001E-002     0.0000000000000000     
  -3.7050000000000000E-002     0.0000000000000000     
  -3.6999999999999998E-002     0.0000000000000000     
  -3.6950000000000004E-002     0.0000000000000000     
  -3.6900000000000002E-002     0.0000000000000000     
  -3.6850000000000001E-002     0.0000000000000000     
  -3.6799999999999999E-002     0.0000000000000000     
  -3.6749999999999998E-002     0.0000000000000000     
  -3.6700000000000003E-002     0.0000000000000000     
  -3.6650000000000002E-002     0.0000000000000000     
  -3.6600000000000001E-002     0.0000000000000000     
  -3.6549999999999999E-002     0.0000000000000000     
  -3.6499999999999998E-002     0.0000000000000000     
  -3.6450000000000003E-002     0.0000000000000000     
  -3.6400000000000002E-002     0.0000000000000000     
  -3.6350000000000000E-002     0.0000000000000000     
  -3.6299999999999999E-002     0.0000000000000000     
  -3.6249999999999998E-002     0.0000000000000000     
  -3.6200000000000003E-002     0.0000000000000000     
  -3.6150000000000002E-002     0.0000000000000000     
  -3.6100000000000000E-002     0.0000000000000000     
  -3.6049999999999999E-002     0.0000000000000000     
  -3.6000000000000004E-002     0.0000000000000000     
  -3.5950000000000003E-002     0.0000000000000000     
  -3.5900000000000001E-002     0.0000000000000000     
  -3.5850000000000000E-002     0.0000000000000000     
  -3.5799999999999998E-002     0.0000000000000000     
  -3.5750000000000004E-002     0.0000000000000000     
  -3.5700000000000003E-002     0.0000000000000000     
  -3.5650000000000001E-002     0.0000000000000000     
  -3.5600000000000000E-002     0.0000000000000000     
  -3.5549999999999998E-002     0.0000000000000000     
  -3.5500000000000004E-002     0.0000000000000000     
  -3.5450000000000002E-002     0.0000000000000000     
  -3.5400000000000001E-002     0.0000000000000000     
  -3.5349999999999999E-002     0.0000000000000000     
  -3.5299999999999998E-002     0.0000000000000000     
  -3.5250000000000004E-002     0.0000000000000000     
  -3.5200000000000002E-002     0.0000000000000000     
  -3.5150000000000001E-002     0.0000000000000000     
  -3.5099999999999999E-002     0.0000000000000000     
  -3.5049999999999998E-002     0.0000000000000000     
  -3.5000000000000003E-002     0.0000000000000000     
  -3.4950000000000002E-002     0.0000000000000000     
  -3.4900000000000000E-002     0.0000000000000000     
  -3.4849999999999999E-002     0.0000000000000000     
  -3.4799999999999998E-002     0.0000000000000000     
  -3.4750000000000003E-002     0.0000000000000000     
  -3.4700000000000002E-002     0.0000000000000000     
  -3.4650000000000000E-002     0.0000000000000000     
  -3.4599999999999999E-002     0.0000000000000000     
  -3.4549999999999997E-002     0.0000000000000000     
  -3.4500000000000003E-002     0.0000000000000000     
  -3.4450000000000001E-002     0.0000000000000000     
  -3.4400000000000000E-002     0.0000000000000000     
  -3.4349999999999999E-002     0.0000000000000000     
  -3.4299999999999997E-002     0.0000000000000000     
  -3.4250000000000003E-002     0.0000000000000000     
  -3.4200000000000001E-002     0.0000000000000000     
  -3.4150000000000000E-002     0.0000000000000000     
  -3.4099999999999998E-002     0.0000000000000000     
  -3.4049999999999997E-002     0.0000000000000000     
  -3.4000000000000002E-002     0.0000000000000000     
  -3.3950000000000001E-002     0.0000000000000000     
  -3.3900000000000000E-002     0.0000000000000000     
  -3.3849999999999998E-002     0.0000000000000000     
  -3.3799999999999997E-002     0.0000000000000000     
  -3.3750000000000002E-002     0.0000000000000000     
  -3.3700000000000001E-002     0.0000000000000000     
  -3.3649999999999999E-002     0.0000000000000000     
  -3.3599999999999998E-002     0.0000000000000000     
  -3.3550000000000003E-002     0.0000000000000000     
  -3.3500000000000002E-002     0.0000000000000000     
  -3.3450000000000001E-002     0.0000000000000000     
  -3.3399999999999999E-002     0.0000000000000000     
  -3.3349999999999998E-002     0.0000000000000000     
  -3.3300000000000003E-002     0.0000000000000000     
  -3.3250000000000002E-002     0.0000000000000000     
  -3.3200000000000000E-002     0.0000000000000000     
  -3.3149999999999999E-002     0.0000000000000000     
  -3.3099999999999997E-002     0.0000000000000000     
  -3.3050000000000003E-002     0.0000000000000000     
  -3.3000000000000002E-002     0.0000000000000000     
  -3.2950000000000000E-002     0.0000000000000000     
  -3.2899999999999999E-002     0.0000000000000000     
  -3.2850000000000004E-002     0.0000000000000000     
  -3.2800000000000003E-002     0.0000000000000000     
  -3.2750000000000001E-002     0.0000000000000000     
  -3.2700000000000000E-002     0.0000000000000000     
  -3.2649999999999998E-002     0.0000000000000000     
  -3.2600000000000004E-002     0.0000000000000000     
  -3.2550000000000003E-002     0.0000000000000000     
  -3.2500000000000001E-002     0.0000000000000000     
  -3.2450000000000000E-002     0.0000000000000000     
  -3.2399999999999998E-002     0.0000000000000000     
  -3.2350000000000004E-002     0.0000000000000000     
  -3.2300000000000002E-002     0.0000000000000000     
  -3.2250000000000001E-002     0.0000000000000000     
  -3.2199999999999999E-002     0.0000000000000000     
  -3.2149999999999998E-002     0.0000000000000000     
  -3.2100000000000004E-002     0.0000000000000000     
  -3.2050000000000002E-002     0.0000000000000000     
  -3.2000000000000001E-002     0.0000000000000000     
  -3.1949999999999999E-002     0.0000000000000000     
  -3.1899999999999998E-002     0.0000000000000000     
  -3.1850000000000003E-002     0.0000000000000000     
  -3.1800000000000002E-002     0.0000000000000000     
  -3.1750000000000000E-002     0.0000000000000000     
  -3.1699999999999999E-002     0.0000000000000000     
  -3.1649999999999998E-002     0.0000000000000000     
  -3.1600000000000003E-002     0.0000000000000000     
  -3.1550000000000002E-002     0.0000000000000000     
  -3.1500000000000000E-002     0.0000000000000000     
  -3.1449999999999999E-002     0.0000000000000000     
  -3.1399999999999997E-002     0.0000000000000000     
  -3.1350000000000003E-002     0.0000000000000000     
  -3.1300000000000001E-002     0.0000000000000000     
  -3.1250000000000000E-002     0.0000000000000000     
  -3.1199999999999999E-002     0.0000000000000000     
  -3.1150000000000001E-002     0.0000000000000000     
  -3.1100000000000003E-002     0.0000000000000000     
  -3.1050000000000001E-002     0.0000000000000000     
  -3.1000000000000000E-002     0.0000000000000000     
  -3.0949999999999998E-002     0.0000000000000000     
  -3.0900000000000000E-002     0.0000000000000000     
  -3.0850000000000002E-002     0.0000000000000000     
  -3.0800000000000001E-002     0.0000000000000000     
  -3.0750000000000000E-002     0.0000000000000000     
  -3.0699999999999998E-002     0.0000000000000000     
  -3.0650000000000000E-002     0.0000000000000000     
  -3.0600000000000002E-002     0.0000000000000000     
  -3.0550000000000001E-002     0.0000000000000000     
  -3.0499999999999999E-002     0.0000000000000000     
  -3.0449999999999998E-002     0.0000000000000000     
  -3.0400000000000000E-002     0.0000000000000000     
  -3.0350000000000002E-002     0.0000000000000000     
  -3.0300000000000001E-002     0.0000000000000000     
  -3.0249999999999999E-002     0.0000000000000000     
  -3.0200000000000001E-002     0.0000000000000000     
  -3.0150000000000000E-002     0.0000000000000000     
  -3.0100000000000002E-002     0.0000000000000000     
  -3.0050000000000000E-002     0.0000000000000000     
  -2.9999999999999999E-002     0.0000000000000000     
  -2.9950000000000001E-002     0.0000000000000000     
  -2.9899999999999999E-002     0.0000000000000000     
  -2.9850000000000002E-002     0.0000000000000000     
  -2.9800000000000000E-002     0.0000000000000000     
  -2.9749999999999999E-002     0.0000000000000000     
  -2.9700000000000001E-002     0.0000000000000000     
  -2.9650000000000003E-002     0.0000000000000000     
  -2.9600000000000001E-002     0.0000000000000000     
  -2.9550000000000000E-002     0.0000000000000000     
  -2.9499999999999998E-002     0.0000000000000000     
  -2.9450000000000000E-002     0.0000000000000000     
  -2.9400000000000003E-002     0.0000000000000000     
  -2.9350000000000001E-002     6.7232649211196424E-039
  -2.9300000000000000E-002     1.2694827169202324E-038
  -2.9249999999999998E-002     1.2694827169202420E-038
  -2.9200000000000000E-002     7.6799031478846493E-039
  -2.9150000000000002E-002     1.6553270061853258E-052
  -2.9100000000000001E-002    -1.6908533536068359E-038
  -2.9049999999999999E-002    -4.7331643062137529E-038
  -2.8999999999999998E-002    -7.8693790528293857E-038
  -2.8950000000000000E-002    -9.9829742052039305E-038
  -2.8900000000000002E-002    -9.6386453938920657E-038
  -2.8850000000000001E-002    -7.2042169571646090E-038
  -2.8799999999999999E-002    -1.6047150341683440E-038
  -2.8749999999999998E-002     8.1161636016873740E-038
  -2.8700000000000000E-002     2.1066865425312691E-037
  -2.8650000000000002E-002     3.2031037666800667E-037
  -2.8600000000000000E-002     3.9038359572102376E-037
  -2.8549999999999999E-002     4.1546677564459718E-037
  -2.8500000000000001E-002     3.3921261718162693E-037
  -2.8450000000000000E-002     1.6837183027615814E-037
  -2.8400000000000002E-002    -9.4331670565189530E-038
  -2.8350000000000000E-002    -4.2224132868007384E-037
  -2.8299999999999999E-002    -8.0059547848585295E-037
  -2.8250000000000001E-002    -1.1690937214570914E-036
  -2.8200000000000003E-002    -1.4787537290428063E-036
  -2.8150000000000001E-002    -1.6465828597477829E-036
  -2.8100000000000000E-002    -1.5766354209884600E-036
  -2.8049999999999999E-002    -1.1388255769120970E-036
  -2.8000000000000001E-002    -1.9065224185185071E-037
  -2.7950000000000003E-002     1.3636605615409579E-036
  -2.7900000000000001E-002     3.5409926476861986E-036
  -2.7850000000000000E-002     6.1249091810869761E-036
  -2.7799999999999998E-002     8.6170730679120035E-036
  -2.7750000000000000E-002     1.0195285419327896E-035
  -2.7700000000000002E-002     9.7672139502422478E-036
  -2.7650000000000001E-002     6.1815657410421809E-036
  -2.7600000000000000E-002    -1.4036069299019135E-036
  -2.7549999999999998E-002    -1.3020450596564329E-035
  -2.7500000000000000E-002    -2.7369875078509754E-035
  -2.7450000000000002E-002    -4.1467406762500828E-035
  -2.7400000000000001E-002    -5.0691528029348850E-035
  -2.7349999999999999E-002    -4.9445227438393188E-035
  -2.7299999999999998E-002    -3.2519583891135457E-035
  -2.7250000000000000E-002     2.9579125275058670E-036
  -2.7200000000000002E-002     5.5381538169913355E-035
  -2.7150000000000001E-002     1.1698193121410041E-034
  -2.7099999999999999E-002     1.7338129311592628E-034
  -2.7049999999999998E-002     2.0510252150389657E-034
  -2.7000000000000000E-002     1.9139344309128937E-034
  -2.6950000000000002E-002     1.1611040054368885E-034
  -2.6900000000000000E-002    -2.5377611612852644E-035
  -2.6849999999999999E-002    -2.2004359880139202E-034
  -2.6800000000000001E-002    -4.3403389040504008E-034
  -2.6749999999999999E-002    -6.1457249728999571E-034
  -2.6700000000000002E-002    -6.9819590889558703E-034
  -2.6650000000000000E-002    -6.2504987719487287E-034
  -2.6599999999999999E-002    -3.5704294191819785E-034
  -2.6550000000000001E-002     1.0421145301772351E-034
  -2.6500000000000003E-002     7.0489230712543376E-034
  -2.6450000000000001E-002     1.3370376125045396E-033
  -2.6400000000000000E-002     1.8506364450559904E-033
  -2.6349999999999998E-002     2.0800868925255362E-033
  -2.6300000000000000E-002     1.8814162711301991E-033
  -2.6250000000000002E-002     1.1729412768639537E-033
  -2.6200000000000001E-002    -3.0280586243877615E-035
  -2.6150000000000000E-002    -1.5977960944573650E-033
  -2.6099999999999998E-002    -3.2877110321284066E-033
  -2.6050000000000000E-002    -4.7750582451947676E-033
  -2.6000000000000002E-002    -5.7005276963978527E-033
  -2.5950000000000001E-002    -5.7306421284311054E-033
  -2.5899999999999999E-002    -4.6183875946794400E-033
  -2.5849999999999998E-002    -2.2548796205199870E-033
  -2.5800000000000000E-002     1.2926930395296130E-033
  -2.5750000000000002E-002     5.7559398341497306E-033
  -2.5700000000000001E-002     1.0648661350478563E-032
  -2.5649999999999999E-002     1.5256385312120694E-032
  -2.5599999999999998E-002     1.8638408043576688E-032
  -2.5550000000000000E-002     1.9662418111721130E-032
  -2.5500000000000002E-002     1.7105142031281550E-032
  -2.5450000000000000E-002     9.8568637106864500E-033
  -2.5399999999999999E-002    -2.7459578331222345E-033
  -2.5349999999999998E-002    -2.0473294565951613E-032
  -2.5300000000000000E-002    -4.1712809042991465E-032
  -2.5250000000000002E-002    -6.3083803239864026E-032
  -2.5200000000000000E-002    -7.9356263287898692E-032
  -2.5149999999999999E-002    -8.3893503820384838E-032
  -2.5100000000000001E-002    -6.9781327098164225E-032
  -2.5049999999999999E-002    -3.1662649787189662E-032
  -2.5000000000000001E-002     3.1929378009116433E-032
  -2.4950000000000000E-002     1.1621588611258961E-031
  -2.4899999999999999E-002     2.0851190572763851E-031
  -2.4850000000000001E-002     2.8809966794073593E-031
  -2.4800000000000003E-002     3.2838175006775044E-031
  -2.4750000000000001E-002     3.0169447608081536E-031
  -2.4700000000000000E-002     1.8652304877595645E-031
  -2.4649999999999998E-002    -2.3964289702774300E-032
  -2.4600000000000000E-002    -3.1397339637030768E-031
  -2.4550000000000002E-002    -6.4022947830633673E-031
  -2.4500000000000001E-002    -9.3278337519474536E-031
  -2.4450000000000000E-002    -1.1034122384005353E-030
  -2.4399999999999998E-002    -1.0621197951317269E-030
  -2.4350000000000000E-002    -7.4017165309502626E-031
  -2.4299999999999999E-002    -1.1574789328053508E-031
  -2.4250000000000001E-002     7.6375588914604406E-031
  -2.4199999999999999E-002     1.7698342860369814E-030
  -2.4150000000000001E-002     2.6979572539995713E-030
  -2.4100000000000000E-002     3.2938055943360617E-030
  -2.4049999999999998E-002     3.3005758626250754E-030
  -2.4000000000000000E-002     2.5217879142930647E-030
  -2.3949999999999999E-002     8.8841450323288962E-031
  -2.3900000000000001E-002    -1.4851645766611654E-030
  -2.3850000000000000E-002    -4.2733976834241920E-030
  -2.3800000000000002E-002    -6.9546467945777756E-030
  -2.3750000000000000E-002    -8.8771427335379859E-030
  -2.3699999999999999E-002    -9.3735990677373323E-030
  -2.3650000000000001E-002    -7.9101146250149259E-030
  -2.3599999999999999E-002    -4.2434963467869814E-030
  -2.3550000000000001E-002     1.4467755917574134E-030
  -2.3500000000000000E-002     8.4874983570674702E-030
  -2.3449999999999999E-002     1.5731179832035502E-029
  -2.3400000000000001E-002     2.1681814825485471E-029
  -2.3349999999999999E-002     2.4723317360419830E-029
  -2.3300000000000001E-002     2.3424852315133938E-029
  -2.3250000000000000E-002     1.6877170456989420E-029
  -2.3199999999999998E-002     5.0002085364785311E-030
  -2.3150000000000000E-002    -1.1242152285586482E-029
  -2.3099999999999999E-002    -2.9777465044336627E-029
  -2.3050000000000001E-002    -4.7550380253251769E-029
  -2.3000000000000000E-002    -6.0853704246083648E-029
  -2.2950000000000002E-002    -6.5850216940915310E-029
  -2.2900000000000000E-002    -5.9240428883345612E-029
  -2.2849999999999999E-002    -3.9002858401544908E-029
  -2.2800000000000001E-002    -5.1083095150126713E-030
  -2.2749999999999999E-002     3.9910308364175170E-029
  -2.2700000000000001E-002     9.0664939324225193E-029
  -2.2650000000000000E-002     1.3903099222239575E-028
  -2.2599999999999999E-002     1.7479703752848682E-028
  -2.2550000000000001E-002     1.8692205987716141E-028
  -2.2499999999999999E-002     1.6539534825001635E-028
  -2.2450000000000001E-002     1.0357226355122270E-028
  -2.2400000000000000E-002     6.9961564352358499E-031
  -2.2349999999999998E-002    -1.3582700458754657E-028
  -2.2300000000000000E-002    -2.8907720534014914E-028
  -2.2249999999999999E-002    -4.3273671407418920E-028
  -2.2200000000000001E-002    -5.3338461791604574E-028
  -2.2150000000000000E-002    -5.5521865013580315E-028
  -2.2100000000000002E-002    -4.6708785396805314E-028
  -2.2050000000000000E-002    -2.5106531475983384E-028
  -2.1999999999999999E-002     8.8888934011673267E-029
  -2.1950000000000001E-002     5.2020346278402737E-028
  -2.1899999999999999E-002     9.7921783843910956E-028
  -2.1850000000000001E-002     1.3750508474324531E-027
  -2.1800000000000000E-002     1.6011004838546574E-027
  -2.1749999999999999E-002     1.5540266922726973E-027
  -2.1700000000000001E-002     1.1581939723120910E-027
  -2.1649999999999999E-002     3.9156074621766148E-028
  -2.1600000000000001E-002    -6.9263507267640715E-028
  -2.1550000000000000E-002    -1.9547890126079253E-027
  -2.1499999999999998E-002    -3.1742463482474587E-027
  -2.1450000000000000E-002    -4.0746435248571157E-027
  -2.1399999999999999E-002    -4.3692141448216311E-027
  -2.1350000000000001E-002    -3.8213035638621579E-027
  -2.1299999999999999E-002    -2.3104897661937405E-027
  -2.1250000000000002E-002     1.0915221319030513E-028
  -2.1200000000000000E-002     3.1738063697881449E-027
  -2.1149999999999999E-002     6.4114817361014796E-027
  -2.1100000000000001E-002     9.1893020749606256E-027
  -2.1049999999999999E-002     1.0807380837310887E-026
  -2.1000000000000001E-002     1.0630070310240626E-026
  -2.0950000000000000E-002     8.2351087628285841E-027
  -2.0899999999999998E-002     3.5530167956088112E-027
  -2.0850000000000000E-002    -3.0347966111150687E-027
  -2.0799999999999999E-002    -1.0668639813342734E-026
  -2.0750000000000001E-002    -1.8074567119494471E-026
  -2.0700000000000000E-002    -2.3725902246037726E-026
  -2.0649999999999998E-002    -2.6089723861316960E-026
  -2.0600000000000000E-002    -2.3926554623291477E-026
  -2.0549999999999999E-002    -1.6595302841352738E-026
  -2.0500000000000001E-002    -4.3058508262478464E-027
  -2.0449999999999999E-002     1.1738397841468744E-026
  -2.0400000000000001E-002     2.9355187160357676E-026
  -2.0350000000000000E-002     4.5582015627572063E-026
  -2.0299999999999999E-002     5.7057005534061751E-026
  -2.0250000000000001E-002     6.0548462774657023E-026
  -2.0199999999999999E-002     5.3568546795012215E-026
  -2.0150000000000001E-002     3.4981252610193148E-026
  -2.0100000000000000E-002     5.5002003086655918E-027
  -2.0049999999999998E-002    -3.2029701090751790E-026
  -2.0000000000000000E-002    -7.2658181414693013E-026
  -1.9949999999999999E-002    -1.0972424105561596E-025
  -1.9900000000000001E-002    -1.3563522514733208E-025
  -1.9850000000000000E-002    -1.4298838497108589E-025
  -1.9799999999999998E-002    -1.2592791171276933E-025
  -1.9750000000000000E-002    -8.1565233342209518E-026
  -1.9699999999999999E-002    -1.1234457509999618E-026
  -1.9650000000000001E-002     7.8679624530134982E-026
  -1.9599999999999999E-002     1.7660273543386191E-025
  -1.9550000000000001E-002     2.6653654408101631E-025
  -1.9500000000000000E-002     3.2984086194027381E-025
  -1.9449999999999999E-002     3.4798941364781046E-025
  -1.9400000000000001E-002     3.0605721584084317E-025
  -1.9349999999999999E-002     1.9648347756719841E-025
  -1.9300000000000001E-002     2.2462961591049407E-026
  -1.9250000000000000E-002    -1.9980061534321977E-025
  -1.9199999999999998E-002    -4.4074321527891990E-025
  -1.9150000000000000E-002    -6.5959311193955286E-025
  -1.9099999999999999E-002    -8.0929443645361965E-025
  -1.9050000000000001E-002    -8.4397776795867094E-025
  -1.9000000000000000E-002    -7.2816880439426957E-025
  -1.8949999999999998E-002    -4.4634845895210093E-025
  -1.8900000000000000E-002    -1.1035116595988511E-026
  -1.8849999999999999E-002     5.3262130948706862E-025
  -1.8800000000000001E-002     1.1075443997719467E-024
  -1.8749999999999999E-002     1.6119187028562327E-024
  -1.8700000000000001E-002     1.9330078693554505E-024
  -1.8650000000000000E-002     1.9664397153960372E-024
  -1.8599999999999998E-002     1.6384002404495268E-024
  -1.8550000000000001E-002     9.2699709765345464E-025
  -1.8499999999999999E-002    -1.2163023758148853E-025
  -1.8450000000000001E-002    -1.3868159863544553E-024
  -1.8400000000000000E-002    -2.6798743763805049E-024
  -1.8349999999999998E-002    -3.7651458572416653E-024
  -1.8300000000000000E-002    -4.3945681855125924E-024
  -1.8249999999999999E-002    -4.3519001620711511E-024
  -1.8200000000000001E-002    -3.5000739817216983E-024
  -1.8149999999999999E-002    -1.8232680229753960E-024
  -1.8100000000000002E-002     5.4530948154888453E-025
  -1.8050000000000000E-002     3.3179112064241957E-024
  -1.7999999999999999E-002     6.0742707843370920E-024
  -1.7950000000000001E-002     8.3122211649558027E-024
  -1.7899999999999999E-002     9.5228630289792277E-024
  -1.7850000000000001E-002     9.2810536910746359E-024
  -1.7800000000000000E-002     7.3376298046078840E-024
  -1.7749999999999998E-002     3.6971865726767022E-024
  -1.7700000000000000E-002    -1.3348742204520039E-024
  -1.7649999999999999E-002    -7.1495640898981801E-024
  -1.7600000000000001E-002    -1.2883899652963455E-023
  -1.7550000000000000E-002    -1.7523231289152569E-023
  -1.7499999999999998E-002    -2.0047877686028377E-023
  -1.7450000000000000E-002    -1.9606844417221534E-023
  -1.7399999999999999E-002    -1.5694165152967547E-023
  -1.7350000000000001E-002    -8.2990458222384906E-024
  -1.7299999999999999E-002     1.9994567060499115E-024
  -1.7250000000000001E-002     1.4018506663869470E-023
  -1.7200000000000000E-002     2.6054913663346645E-023
  -1.7149999999999999E-002     3.6070010582967052E-023
  -1.7100000000000001E-002     4.1964816946044915E-023
  -1.7049999999999999E-002     4.1917949093242406E-023
  -1.7000000000000001E-002     3.4743716965531545E-023
  -1.6950000000000000E-002     2.0216308648707191E-023
  -1.6899999999999998E-002    -6.9944452660555626E-025
  -1.6850000000000000E-002    -2.5767477782641316E-023
  -1.6799999999999999E-002    -5.1594591430149226E-023
  -1.6750000000000001E-002    -7.3961410915658333E-023
  -1.6700000000000000E-002    -8.8361705069567534E-023
  -1.6649999999999998E-002    -9.0704652037493324E-023
  -1.6600000000000000E-002    -7.8097051634948140E-023
  -1.6549999999999999E-002    -4.9589700298522244E-023
  -1.6500000000000001E-002    -6.7519030888160004E-024
  -1.6449999999999999E-002     4.6063466495477988E-023
  -1.6400000000000001E-002     1.0187936705527022E-022
  -1.6350000000000000E-002     1.5174455632070747E-022
  -1.6299999999999999E-002     1.8586838687100194E-022
  -1.6250000000000001E-002     1.9514610604778326E-022
  -1.6199999999999999E-002     1.7288915214306982E-022
  -1.6150000000000001E-002     1.1649639840222308E-022
  -1.6100000000000000E-002     2.8754933096014162E-023
  -1.6049999999999998E-002    -8.1540626976859625E-023
  -1.6000000000000000E-002    -1.9990434461233302E-022
  -1.5949999999999999E-002    -3.0754745621767708E-022
  -1.5900000000000001E-002    -3.8380812595588429E-022
  -1.5850000000000000E-002    -4.0939716445556301E-022
  -1.5799999999999998E-002    -3.7003922186763159E-022
  -1.5750000000000000E-002    -2.5993587637609666E-022
  -1.5699999999999999E-002    -8.4399108938996381E-023
  -1.5650000000000001E-002     1.3897033362530734E-022
  -1.5599999999999999E-002     3.8103859106406978E-022
  -1.5550000000000001E-002     6.0404724040063099E-022
  -1.5500000000000000E-002     7.6655077769975120E-022
  -1.5449999999999998E-002     8.2987480858778743E-022
  -1.5400000000000000E-002     7.6523360680698855E-022
  -1.5349999999999999E-002     5.6038575266933793E-022
  -1.5300000000000001E-002     2.2460156200088870E-022
  -1.5250000000000000E-002    -2.0918882487460663E-022
  -1.5199999999999998E-002    -6.8589262625583120E-022
  -1.5150000000000000E-002    -1.1337316670543102E-021
  -1.5099999999999999E-002    -1.4734087790804739E-021
  -1.5050000000000001E-002    -1.6300162611993457E-021
  -1.4999999999999999E-002    -1.5461351510008123E-021
  -1.4949999999999998E-002    -1.1941546582897436E-021
  -1.4900000000000000E-002    -5.8567739979478907E-022
  -1.4849999999999999E-002     2.2396000241695706E-022
  -1.4800000000000001E-002     1.1375218305671997E-021
  -1.4749999999999999E-002     2.0247353650886145E-021
  -1.4700000000000001E-002     2.7378367425901897E-021
  -1.4650000000000000E-002     3.1323683450036966E-021
  -1.4599999999999998E-002     3.0907602566518013E-021
  -1.4550000000000000E-002     2.5454347401885633E-021
  -1.4499999999999999E-002     1.4977660801469744E-021
  -1.4450000000000001E-002     2.9289989886926676E-023
  -1.4400000000000000E-002    -1.6978139397458394E-021
  -1.4349999999999998E-002    -3.4527770399917950E-021
  -1.4300000000000000E-002    -4.9610397027116046E-021
  -1.4249999999999999E-002    -5.9400824635631444E-021
  -1.4200000000000001E-002    -6.1426141271828093E-021
  -1.4149999999999999E-002    -5.4016694326998943E-021
  -1.4099999999999998E-002    -3.6709400775157228E-021
  -1.4050000000000000E-002    -1.0531793271229695E-021
  -1.3999999999999999E-002     2.1898962840065971E-021
  -1.3950000000000001E-002     5.6511132741037007E-021
  -1.3899999999999999E-002     8.8168718039187697E-021
  -1.3850000000000001E-002     1.1130161877742085E-020
  -1.3800000000000000E-002     1.2071897759176319E-020
  -1.3749999999999998E-002     1.1250890978684855E-020
  -1.3700000000000000E-002     8.4895035543581099E-021
  -1.3649999999999999E-002     3.8903146816508843E-021
  -1.3600000000000001E-002    -2.1305683027243924E-021
  -1.3550000000000000E-002    -8.8551212948140749E-021
  -1.3499999999999998E-002    -1.5326266115213228E-020
  -1.3450000000000000E-002    -2.0460942742643389E-020
  -1.3399999999999999E-002    -2.3203837944837810E-020
  -1.3350000000000001E-002    -2.2703667441326809E-020
  -1.3299999999999999E-002    -1.8486854389781671E-020
  -1.3249999999999998E-002    -1.0599410811967785E-020
  -1.3200000000000000E-002     3.1198652775940731E-022
  -1.3149999999999998E-002     1.3003579744567300E-020
  -1.3100000000000001E-002     2.5736525849436113E-020
  -1.3049999999999999E-002     3.6476941522404139E-020
  -1.3000000000000001E-002     4.3177159236676506E-020
  -1.2950000000000000E-002     4.4105051280020070E-020
  -1.2899999999999998E-002     3.8175025883888616E-020
  -1.2850000000000000E-002     2.5226612640343422E-020
  -1.2799999999999999E-002     6.1968778549822374E-021