  -4.0000000000000001E-002     0.0000000000000000     
  -3.9949999999999999E-002     0.0000000000000000     
  -3.9899999999999998E-002     0.0000000000000000     
  -3.9850000000000003E-002     0.0000000000000000     
  -3.9800000000000002E-002     0.0000000000000000     
  -3.9750000000000001E-002     0.0000000000000000     
  -3.9699999999999999E-002     0.0000000000000000     
  -3.9649999999999998E-002     0.0000000000000000     
  -3.9600000000000003E-002     0.0000000000000000     
  -3.9550000000000002E-002     0.0000000000000000     
  -3.9500000000000000E-002     0.0000000000000000     
  -3.9449999999999999E-002     0.0000000000000000     
  -3.9399999999999998E-002     0.0000000000000000     
  -3.9350000000000003E-002     0.0000000000000000     
  -3.9300000000000002E-002     0.0000000000000000     
  -3.9250000000000000E-002     0.0000000000000000     
  -3.9199999999999999E-002     0.0000000000000000     
  -3.9150000000000004E-002     0.0000000000000000     
  -3.9100000000000003E-002     0.0000000000000000     
  -3.9050000000000001E-002     0.0000000000000000     
  -3.9000000000000000E-002     0.0000000000000000     
  -3.8949999999999999E-002     0.0000000000000000     
  -3.8900000000000004E-002     0.0000000000000000     
  -3.8850000000000003E-002     0.0000000000000000     
  -3.8800000000000001E-002     0.0000000000000000     
  -3.8750000000000000E-002     0.0000000000000000     
  -3.8699999999999998E-002     0.0000000000000000     
  -3.8650000000000004E-002     0.0000000000000000     
  -3.8600000000000002E-002     0.0000000000000000     
  -3.8550000000000001E-002     0.0000000000000000     
  -3.8500000000000000E-002     0.0000000000000000     
  -3.8449999999999998E-002     0.0000000000000000     
  -3.8400000000000004E-002     0.0000000000000000     
  -3.8350000000000002E-002     0.0000000000000000     
  -3.8300000000000001E-002     0.0000000000000000     
  -3.8249999999999999E-002     0.0000000000000000     
  -3.8199999999999998E-002     0.0000000000000000     
  -3.8150000000000003E-002     0.0000000000000000     
  -3.8100000000000002E-002     0.0000000000000000     
  -3.8050000000000000E-002     0.0000000000000000     
  -3.7999999999999999E-002     0.0000000000000000     
  -3.7949999999999998E-002     0.0000000000000000     
  -3.7900000000000003E-002     0.0000000000000000     
  -3.7850000000000002E-002     0.0000000000000000     
  -3.7800000000000000E-002     0.0000000000000000     
  -3.7749999999999999E-002     0.0000000000000000     
  -3.7699999999999997E-002     0.0000000000000000     
  -3.7650000000000003E-002     0.0000000000000000     
  -3.7600000000000001E-002     0.0000000000000000     
  -3.7550000000000000E-002     0.0000000000000000     
  -3.7499999999999999E-002     0.0000000000000000     
  -3.7449999999999997E-002     0.0000000000000000     
  -3.7400000000000003E-002     0.0000000000000000     
  -3.7350000000000001E-002     0.0000000000000000     
  -3.7300000000000000E-002     0.0000000000000000     
  -3.7249999999999998E-002     0.0000000000000000     
  -3.7200000000000004E-002     0.0000000000000000     
  -3.7150000000000002E-002     0.0000000000000000     
  -3.7100000000000001E-002     0.0000000000000000     
  -3.7050000000000000E-002     0.0000000000000000     
  -3.6999999999999998E-002     0.0000000000000000     
  -3.6950000000000004E-002     0.0000000000000000     
  -3.6900000000000002E-002     0.0000000000000000     
  -3.6850000000000001E-002     0.0000000000000000     
  -3.6799999999999999E-002     0.0000000000000000     
  -3.6749999999999998E-002     0.0000000000000000     
  -3.6700000000000003E-002     0.0000000000000000     
  -3.6650000000000002E-002     0.0000000000000000     
  -3.6600000000000001E-002     0.0000000000000000     
  -3.6549999999999999E-002     0.0000000000000000     
  -3.6499999999999998E-002     0.0000000000000000     
  -3.6450000000000003E-002     0.0000000000000000     
  -3.6400000000000002E-002     0.0000000000000000     
  -3.6350000000000000E-002     0.0000000000000000     
  -3.6299999999999999E-002     0.0000000000000000     
  -3.6249999999999998E-002     0.0000000000000000     
  -3.6200000000000003E-002     0.0000000000000000     
  -3.6150000000000002E-002     0.0000000000000000     
  -3.6100000000000000E-002     0.0000000000000000     
  -3.6049999999999999E-002     0.0000000000000000     
  -3.6000000000000004E-002     0.0000000000000000     
  -3.5950000000000003E-002     0.0000000000000000     
  -3.5900000000000001E-002     0.0000000000000000     
  -3.5850000000000000E-002     0.0000000000000000     
  -3.5799999999999998E-002     0.0000000000000000     
  -3.5750000000000004E-002     0.0000000000000000     
  -3.5700000000000003E-002     0.0000000000000000     
  -3.5650000000000001E-002     0.0000000000000000     
  -3.5600000000000000E-002     0.0000000000000000     
  -3.5549999999999998E-002     0.0000000000000000     
  -3.5500000000000004E-002     0.0000000000000000     
  -3.5450000000000002E-002     0.0000000000000000     
  -3.5400000000000001E-002     0.0000000000000000     
  -3.5349999999999999E-002     0.0000000000000000     
  -3.5299999999999998E-002     0.0000000000000000     
  -3.5250000000000004E-002     0.0000000000000000     
  -3.5200000000000002E-002     0.0000000000000000     
  -3.5150000000000001E-002     0.0000000000000000     
  -3.5099999999999999E-002     0.0000000000000000     
  -3.5049999999999998E-002     0.0000000000000000     
  -3.5000000000000003E-002     0.0000000000000000     
  -3.4950000000000002E-002     0.0000000000000000     
  -3.4900000000000000E-002     0.0000000000000000     
  -3.4849999999999999E-002     0.0000000000000000     
  -3.4799999999999998E-002     0.0000000000000000     
  -3.4750000000000003E-002     0.0000000000000000     
  -3.4700000000000002E-002     0.0000000000000000     
  -3.4650000000000000E-002     0.0000000000000000     
  -3.4599999999999999E-002     0.0000000000000000     
  -3.4549999999999997E-002     0.0000000000000000     
  -3.4500000000000003E-002     0.0000000000000000     
  -3.4450000000000001E-002     0.0000000000000000     
  -3.4400000000000000E-002     0.0000000000000000     
  -3.4349999999999999E-002     0.0000000000000000     
  -3.4299999999999997E-002     0.0000000000000000     
  -3.4250000000000003E-002     0.0000000000000000     
  -3.4200000000000001E-002     0.0000000000000000     
  -3.4150000000000000E-002     0.0000000000000000     
  -3.4099999999999998E-002     0.0000000000000000     
  -3.4049999999999997E-002     0.0000000000000000     
  -3.4000000000000002E-002     0.0000000000000000     
  -3.3950000000000001E-002     0.0000000000000000     
  -3.3900000000000000E-002     0.0000000000000000     
  -3.3849999999999998E-002     0.0000000000000000     
  -3.3799999999999997E-002     0.0000000000000000     
  -3.3750000000000002E-002     0.0000000000000000     
  -3.3700000000000001E-002     5.3432799328822278E-040
  -3.3649999999999999E-002     1.5961659076262458E-039
  -3.3599999999999998E-002     2.8115632278411007E-039
  -3.3550000000000003E-002     2.6572393027520002E-039
  -3.3500000000000002E-002     3.6697568608877507E-040
  -3.3450000000000001E-002    -5.4655577487279516E-039
  -3.3399999999999999E-002    -1.2630409331311754E-038
  -3.3349999999999998E-002    -1.7555043612849219E-038
  -3.3300000000000003E-002    -1.9399328814923518E-038
  -3.3250000000000002E-002    -1.1779470190302502E-038
  -3.3200000000000000E-002     4.1745208124923358E-039
  -3.3149999999999999E-002     2.8133229296266928E-038
  -3.3099999999999997E-002     5.6982594708484509E-038
  -3.3050000000000003E-002     8.1281640016976502E-038
  -3.3000000000000002E-002     9.4461479475799496E-038
  -3.2950000000000000E-002     8.8514155687714872E-038
  -3.2899999999999999E-002     6.3093519588441942E-038
  -3.2850000000000004E-002     1.0842174382295738E-038
  -3.2800000000000003E-002    -6.6114389222307932E-038
  -3.2750000000000001E-002    -1.6982261397775060E-037
  -3.2700000000000000E-002    -2.8682188903793006E-037
  -3.2649999999999998E-002    -3.9263784084552795E-037
  -3.2600000000000004E-002    -4.4894702512745719E-037
  -3.2550000000000003E-002    -4.2797091339371298E-037
  -3.2500000000000001E-002    -2.9655894140542033E-037
  -3.2450000000000000E-002    -3.6336859764791411E-038
  -3.2399999999999998E-002     3.3095092622472922E-037
  -3.2350000000000004E-002     7.4453826215561177E-037
  -3.2300000000000002E-002     1.1344928826649498E-036
  -3.2250000000000001E-002     1.4276164754611834E-036
  -3.2199999999999999E-002     1.5846331752459785E-036
  -3.2149999999999998E-002     1.5998883583375693E-036
  -3.2100000000000004E-002     1.5122495577949384E-036
  -3.2050000000000002E-002     1.3646701820901416E-036
  -3.2000000000000001E-002     1.1309471601372369E-036
  -3.1949999999999999E-002     6.7547968401573779E-037
  -3.1899999999999998E-002    -3.1009632192888717E-037
  -3.1850000000000003E-002    -2.2904668358324231E-036
  -3.1800000000000002E-002    -5.7832402525236539E-036
  -3.1750000000000000E-002    -1.1136554864249555E-035
  -3.1699999999999999E-002    -1.8180645995949800E-035
  -3.1649999999999998E-002    -2.5820906449644901E-035
  -3.1600000000000003E-002    -3.1671281841892537E-035
  -3.1550000000000002E-002    -3.1930864427138136E-035
  -3.1500000000000000E-002    -2.1727389318816625E-035
  -3.1449999999999999E-002     3.8511055784576298E-036
  -3.1399999999999997E-002     4.7941682389075572E-035
  -3.1350000000000003E-002     1.0945297739512158E-034
  -3.1300000000000001E-002     1.8046580761422325E-034
  -3.1250000000000000E-002     2.4435587428738777E-034
  -3.1199999999999999E-002     2.7578055093324027E-034
  -3.1150000000000001E-002     2.4367391060047841E-034
  -3.1100000000000003E-002     1.1798099556810537E-034
  -3.1050000000000001E-002    -1.2003780362560938E-034
  -3.1000000000000000E-002    -4.6540356154499990E-034
  -3.0949999999999998E-002    -8.7782860360077034E-034
  -3.0900000000000000E-002    -1.2750022792823680E-033
  -3.0850000000000002E-002    -1.5351779094603129E-033
  -3.0800000000000001E-002    -1.5126249128595769E-033
  -3.0750000000000000E-002    -1.0672422220118792E-033
  -3.0699999999999998E-002    -1.0612755709805482E-034
  -3.0650000000000000E-002     1.3692366202713515E-033
  -3.0600000000000002E-002     3.2203824680756386E-033
  -3.0550000000000001E-002     5.1465742362070030E-033
  -3.0499999999999999E-002     6.6898910660527379E-033
  -3.0449999999999998E-002     7.2812365447646294E-033
  -3.0400000000000000E-002     6.3324355583699662E-033
  -3.0350000000000002E-002     3.3715302841409153E-033
  -3.0300000000000001E-002    -1.7917692278754323E-033
  -3.0249999999999999E-002    -8.8950979985268030E-033
  -3.0200000000000001E-002    -1.7083347937163014E-032
  -3.0150000000000000E-002    -2.4846221452590245E-032
  -3.0100000000000002E-002    -3.0085545138875958E-032
  -3.0050000000000000E-002    -3.0360279655295668E-032
  -2.9999999999999999E-002    -2.3337366958251406E-032
  -2.9950000000000001E-002    -7.4363149017189679E-033
  -2.9899999999999999E-002     1.7406256631443685E-032
  -2.9850000000000002E-002     4.9002068324275844E-032
  -2.9800000000000000E-002     8.2429726018694042E-032
  -2.9749999999999999E-002     1.1007190635718779E-031
  -2.9700000000000001E-002     1.2241542057153095E-031
  -2.9650000000000003E-002     1.0974630639117055E-031
  -2.9600000000000001E-002     6.4660639224172324E-032
  -2.9550000000000000E-002    -1.4973461167949527E-032
  -2.9499999999999998E-002    -1.2326355909877266E-031
  -2.9450000000000000E-002    -2.4462274745109530E-031
  -2.9400000000000003E-002    -3.5407468009065765E-031
  -2.9350000000000001E-002    -4.2017889239571954E-031
  -2.9300000000000000E-002    -4.1068953484136833E-031
  -2.9249999999999998E-002    -3.0032531569485243E-031
  -2.9200000000000000E-002    -7.9262798139974953E-032
  -2.9150000000000002E-002     2.3959747177580726E-031
  -2.9100000000000001E-002     6.1668344973377139E-031
  -2.9049999999999999E-002     9.8680851468322345E-031
  -2.8999999999999998E-002     1.2660129280618502E-030
  -2.8950000000000000E-002     1.3637868515728349E-030
  -2.8900000000000002E-002     1.1991696885672379E-030
  -2.8850000000000001E-002     7.1853020485085377E-031
  -2.8799999999999999E-002    -8.7265985818471175E-032
  -2.8749999999999998E-002    -1.1682439646353319E-030
  -2.8700000000000000E-002    -2.4048372207931666E-030
  -2.8650000000000002E-002    -3.6033126546581894E-030
  -2.8600000000000000E-002    -4.5000596975625856E-030
  -2.8549999999999999E-002    -4.7796734130043423E-030
  -2.8500000000000001E-002    -4.1135228760243375E-030
  -2.8450000000000000E-002    -2.2252403598149897E-030
  -2.8400000000000002E-002     1.0148160805484999E-030
  -2.8350000000000000E-002     5.4739822581825581E-030
  -2.8299999999999999E-002     1.0643429189877911E-029
  -2.8250000000000001E-002     1.5565600076505369E-029
  -2.8200000000000003E-002     1.8854737730442219E-029
  -2.8150000000000001E-002     1.8861775687256767E-029
  -2.8100000000000000E-002     1.4014051511560768E-029
  -2.8049999999999999E-002     3.3157844587210986E-030
  -2.8000000000000001E-002    -1.3068705650678199E-029
  -2.7950000000000003E-002    -3.3296497997217739E-029
  -2.7900000000000001E-002    -5.3591697896370315E-029
  -2.7850000000000000E-002    -6.8462198094158789E-029
  -2.7799999999999998E-002    -7.1534695912189088E-029
  -2.7750000000000000E-002    -5.7019530040002214E-029
  -2.7700000000000002E-002    -2.1619993994828519E-029
  -2.7650000000000001E-002     3.3515436925338320E-029
  -2.7600000000000000E-002     1.0137061116899321E-028
  -2.7549999999999998E-002     1.6879466605818961E-028
  -2.7500000000000000E-002     2.1789179709057279E-028
  -2.7450000000000002E-002     2.2924590093971015E-028
  -2.7400000000000001E-002     1.8667274122943679E-028
  -2.7349999999999999E-002     8.2644954479786334E-029
  -2.7299999999999998E-002    -7.6923919014811318E-029
  -2.7250000000000000E-002    -2.7005471751370731E-028
  -2.7200000000000002E-002    -4.5957381453120549E-028
  -2.7150000000000001E-002    -5.9820128315146738E-028
  -2.7099999999999999E-002    -6.3760239897771839E-028
  -2.7049999999999998E-002    -5.4001493461751572E-028
  -2.7000000000000000E-002    -2.9006723092637963E-028
  -2.6950000000000002E-002     9.6146584143436945E-029
  -2.6900000000000000E-002     5.6752739920625718E-028
  -2.6849999999999999E-002     1.0418511503272581E-027
  -2.6800000000000001E-002     1.4174143751333538E-027
  -2.6749999999999999E-002     1.5909686230144828E-027
  -2.6700000000000002E-002     1.4788281844803095E-027
  -2.6650000000000000E-002     1.0370527601474633E-027
  -2.6599999999999999E-002     2.7657830213717655E-028
  -2.6550000000000001E-002    -7.2987223050106619E-028
  -2.6500000000000003E-002    -1.8506118597869538E-027
  -2.6450000000000001E-002    -2.9072366250889683E-027
  -2.6400000000000000E-002    -3.6945864186978134E-027
  -2.6349999999999998E-002    -4.0061525951183179E-027
  -2.6300000000000000E-002    -3.6629874266967389E-027
  -2.6250000000000002E-002    -2.5449567134532202E-027
  -2.6200000000000001E-002    -6.2362801646696508E-028
  -2.6150000000000000E-002     2.0046693305637180E-027
  -2.6099999999999998E-002     5.0895621213371136E-027
  -2.6050000000000000E-002     8.2090581119387523E-027
  -2.6000000000000002E-002     1.0775834250579961E-026
  -2.5950000000000001E-002     1.2081938548484200E-026
  -2.5899999999999999E-002     1.1394426544750348E-026
  -2.5849999999999998E-002     8.1061536117347664E-027
  -2.5800000000000000E-002     1.9307516703491976E-027
  -2.5750000000000002E-002    -6.8891714503724924E-027
  -2.5700000000000001E-002    -1.7411820937436900E-026
  -2.5649999999999999E-002    -2.7928997434528212E-026
  -2.5599999999999998E-002    -3.6066697805547550E-026
  -2.5550000000000000E-002    -3.9098506252050238E-026
  -2.5500000000000002E-002    -3.4475295567998263E-026
  -2.5450000000000000E-002    -2.0515968246618745E-026
  -2.5399999999999999E-002     2.8613586027538114E-027
  -2.5349999999999998E-002     3.3543580265570928E-026
  -2.5300000000000000E-002     6.6964337607421092E-026
  -2.5250000000000002E-002     9.6365714718844006E-026
  -2.5200000000000000E-002     1.1368766552125832E-025
  -2.5149999999999999E-002     1.1106647805859032E-025
  -2.5100000000000001E-002     8.2763009279688508E-026
  -2.5049999999999999E-002     2.7179348657825281E-026
  -2.5000000000000001E-002    -5.1500440202744873E-026
  -2.4950000000000000E-002    -1.4255147333466783E-025
  -2.4899999999999999E-002    -2.2926543443142402E-025
  -2.4850000000000001E-002    -2.9106154494245774E-025
  -2.4800000000000003E-002    -3.0708280446445011E-025
  -2.4750000000000001E-002    -2.6084064536017468E-025
  -2.4700000000000000E-002    -1.4511379687586614E-025
  -2.4649999999999998E-002     3.3953866979201114E-026
  -2.4600000000000000E-002     2.5469065020246705E-025
  -2.4550000000000002E-002     4.8064144307632241E-025
  -2.4500000000000001E-002     6.6476886224987129E-025
  -2.4450000000000000E-002     7.5701629997480922E-025
  -2.4399999999999998E-002     7.1436860575727159E-025
  -2.4350000000000000E-002     5.1179522690860717E-025
  -2.4299999999999999E-002     1.5190259731128135E-025
  -2.4250000000000001E-002    -3.2908119921839255E-025
  -2.4199999999999999E-002    -8.6109076809505357E-025
  -2.4150000000000001E-002    -1.3470915017097407E-024
  -2.4100000000000000E-002    -1.6771074215385356E-024
  -2.4049999999999998E-002    -1.7479816247896019E-024
  -2.4000000000000000E-002    -1.4859427855070201E-024
  -2.3949999999999999E-002    -8.6787912973842796E-025
  -2.3900000000000001E-002     6.3300513090592014E-026
  -2.3850000000000000E-002     1.1934954544164320E-024
  -2.3800000000000002E-002     2.3454097918061574E-024
  -2.3750000000000000E-002     3.3005526028457985E-024
  -2.3699999999999999E-002     3.8334234301113620E-024
  -2.3650000000000001E-002     3.7533433025864020E-024
  -2.3599999999999999E-002     2.9471859005406183E-024
  -2.3550000000000001E-002     1.4150689661045176E-024
  -2.3500000000000000E-002    -7.0874520245795306E-025
  -2.3449999999999999E-002    -3.1558056304110664E-024
  -2.3400000000000001E-002    -5.5473690253429045E-024
  -2.3349999999999999E-002    -7.4414768758570117E-024
  -2.3300000000000001E-002    -8.3984432724811504E-024
  -2.3250000000000000E-002    -8.0564547073684593E-024
  -2.3199999999999998E-002    -6.2065852354751919E-024
  -2.3150000000000000E-002    -2.8555621157059885E-024
  -2.3099999999999999E-002     1.7347791787765668E-024
  -2.3050000000000001E-002     7.0404710298545280E-024
  -2.3000000000000000E-002     1.2306956683801259E-023
  -2.2950000000000002E-002     1.6621590828932616E-023
  -2.2900000000000000E-002     1.9025218348274200E-023
  -2.2849999999999999E-002     1.8656027050297820E-023
  -2.2800000000000001E-002     1.4913281768357406E-023
  -2.2749999999999999E-002     7.6222964888199760E-024
  -2.2700000000000001E-002    -2.8244522917866077E-024
  -2.2650000000000000E-002    -1.5380542819066030E-023
  -2.2599999999999999E-002    -2.8346008245749763E-023
  -2.2550000000000001E-002    -3.9484656281034067E-023
  -2.2499999999999999E-002    -4.6276945434349181E-023
  -2.2450000000000001E-002    -4.6306655811070467E-023
  -2.2400000000000000E-002    -3.7750636501765909E-023
  -2.2349999999999998E-002    -1.9906758987069497E-023
  -2.2300000000000000E-002     6.3372032772137060E-024
  -2.2249999999999999E-002     3.8212926232682720E-023
  -2.2200000000000001E-002     7.1079751286447053E-023
  -2.2150000000000000E-002     9.8825110329847262E-023
  -2.2100000000000002E-002     1.1469209476857193E-022
  -2.2050000000000000E-002     1.1248262554195582E-022
  -2.1999999999999999E-002     8.7983252218853688E-023
  -2.1950000000000001E-002     4.0364923953310061E-023
  -2.1899999999999999E-002    -2.6757415151935376E-023
  -2.1850000000000001E-002    -1.0492928150751188E-022
  -2.1800000000000000E-002    -1.8138569424682204E-022
  -2.1749999999999999E-002    -2.4062477009260010E-022
  -2.1700000000000001E-002    -2.6694218337134488E-022
  -2.1649999999999999E-002    -2.4760792785578302E-022
  -2.1600000000000001E-002    -1.7615041236369442E-022
  -2.1550000000000000E-002    -5.5067922422664453E-023
  -2.1499999999999998E-002     1.0273507837807810E-022
  -2.1450000000000000E-002     2.7435996509951760E-022
  -2.1399999999999999E-002     4.2946361065956254E-022
  -2.1350000000000001E-002     5.3483363789798836E-022
  -2.1299999999999999E-002     5.6042353688140963E-022
  -2.1250000000000002E-002     4.8587202582263179E-022
  -2.1200000000000000E-002     3.0625993798803923E-022
  -2.1149999999999999E-002     3.5809566087683101E-023
  -2.1100000000000001E-002    -2.9155083110737532E-022
  -2.1049999999999999E-002    -6.2535930158596198E-022
  -2.1000000000000001E-002    -9.0546434103941959E-022
  -2.0950000000000000E-002    -1.0717370728894576E-021
  -2.0899999999999998E-002    -1.0751789659323696E-021
  -2.0850000000000000E-002    -8.8850458643251690E-022
  -2.0799999999999999E-002    -5.1416222429429491E-022
  -2.0750000000000001E-002     1.1977626404540608E-023
  -2.0700000000000000E-002     6.2240464468829873E-022
  -2.0649999999999998E-002     1.2254719302933126E-021
  -2.0600000000000000E-002     1.7178742451917267E-021
  -2.0549999999999999E-002     2.0004405400638440E-021
  -2.0500000000000001E-002     1.9949166814669151E-021
  -2.0449999999999999E-002     1.6591225848658870E-021
  -2.0400000000000001E-002     9.9799779583810879E-022
  -2.0350000000000000E-002     6.8568173958122024E-023
  -2.0299999999999999E-002    -1.0223287743619829E-021
  -2.0250000000000001E-002    -2.1277757008884748E-021
  -2.0199999999999999E-002    -3.0772338265359347E-021
  -2.0150000000000001E-002    -3.6981607037043054E-021
  -2.0100000000000000E-002    -3.8405836381733285E-021
  -2.0049999999999998E-002    -3.4019649101976067E-021
  -2.0000000000000000E-002    -2.3494166817457389E-021
  -1.9949999999999999E-002    -7.3621510484808822E-022
  -1.9900000000000001E-002     1.2904035052329859E-021
  -1.9850000000000000E-002     3.4928796709106441E-021
  -1.9799999999999998E-002     5.5604615459735826E-021
  -1.9750000000000000E-002     7.1407406762445530E-021
  -1.9699999999999999E-002     7.8847132441358997E-021
  -1.9650000000000001E-002     7.5021452585601788E-021
  -1.9599999999999999E-002     5.8212686344389142E-021
  -1.9550000000000001E-002     2.8441671281152216E-021
  -1.9500000000000000E-002    -1.2128173953613732E-021
  -1.9449999999999999E-002    -5.9049377125656465E-021
  -1.9400000000000001E-002    -1.0580963912873184E-020
  -1.9349999999999999E-002    -1.4447035138779873E-020
  -1.9300000000000001E-002    -1.6671947890286457E-020
  -1.9250000000000000E-002    -1.6525092546515493E-020
  -1.9199999999999998E-002    -1.3529555430019770E-020
  -1.9150000000000000E-002    -7.6051751917818502E-021
  -1.9099999999999999E-002     8.2810158321731850E-022
  -1.9050000000000001E-002     1.0815820767772279E-020
  -1.9000000000000000E-002     2.0926282935903724E-020
  -1.8949999999999998E-002     2.9409377988951706E-020
  -1.8900000000000000E-002     3.4449148551295275E-020
  -1.8849999999999999E-002     3.4481937500355559E-020
  -1.8800000000000001E-002     2.8532971026169278E-020
  -1.8749999999999999E-002     1.6510780301736316E-020
  -1.8700000000000001E-002    -6.0533451501012009E-022
  -1.8650000000000000E-002    -2.0741432244050617E-020
  -1.8599999999999998E-002    -4.0904235077788533E-020
  -1.8550000000000001E-002    -5.7559145274909959E-020
  -1.8499999999999999E-002    -6.7175768503581107E-020
  -1.8450000000000001E-002    -6.6867157427614156E-020
  -1.8400000000000000E-002    -5.5018441896230053E-020
  -1.8349999999999998E-002    -3.1785408250462537E-020
  -1.8300000000000000E-002     6.5075993743363808E-022
  -1.8249999999999999E-002     3.8157152231017528E-020
  -1.8200000000000001E-002     7.5086414684347235E-020
  -1.8149999999999999E-002     1.0504923913860151E-019
  -1.8100000000000002E-002     1.2192729739648476E-019
  -1.8050000000000000E-002     1.2097454352014001E-019
  -1.7999999999999999E-002     9.9819946647038528E-020
  -1.7950000000000001E-002     5.9180946486249014E-020
  -1.7899999999999999E-002     3.1279489809336006E-021
  -1.7850000000000001E-002    -6.1195220593542979E-020
  -1.7800000000000000E-002    -1.2440227365111589E-019
  -1.7749999999999998E-002    -1.7615790138848103E-019
  -1.7700000000000000E-002    -2.0675635360332820E-019
  -1.7649999999999999E-002    -2.0874677581963009E-019
  -1.7600000000000001E-002    -1.7834190448600451E-019
  -1.7550000000000000E-002    -1.1636888452995571E-019
  -1.7499999999999998E-002    -2.8582086517217726E-020
  -1.7450000000000000E-002     7.4746859035847776E-020
  -1.7399999999999999E-002     1.7993892150688463E-019
  -1.7350000000000001E-002     2.7158921979986503E-019
  -1.7299999999999999E-002     3.3460849349906491E-019
  -1.7250000000000001E-002     3.5636400638259398E-019
  -1.7200000000000000E-002     3.2864566615777551E-019
  -1.7149999999999999E-002     2.4920723709104925E-019
  -1.7100000000000001E-002     1.2268224372977591E-019
  -1.7049999999999999E-002    -3.9263397833822553E-020
  -1.7000000000000001E-002    -2.1861135257325933E-019
  -1.6950000000000000E-002    -3.9250703407944330E-019
  -1.6899999999999998E-002    -5.3555024397362315E-019
  -1.6850000000000000E-002    -6.2273124243333125E-019
  -1.6799999999999999E-002    -6.3280191961892677E-019
  -1.6750000000000001E-002    -5.5178285975862154E-019
  -1.6700000000000000E-002    -3.7620454219042890E-019
  -1.6649999999999998E-002    -1.1559383301448656E-019
  -1.6600000000000000E-002     2.0633571186856781E-019
  -1.6549999999999999E-002     5.5230627435804506E-019
  -1.6500000000000001E-002     8.7429791137841012E-019
  -1.6449999999999999E-002     1.1187016675053781E-018
  -1.6400000000000001E-002     1.2335617206117865E-018
  -1.6350000000000000E-002     1.1772145705336652E-018
  -1.6299999999999999E-002     9.2718067224843679E-019
  -1.6250000000000001E-002     4.8780375499783127E-019
  -1.6199999999999999E-002    -1.0501665926715976E-019
  -1.6150000000000001E-002    -7.8352154444743557E-019
  -1.6100000000000000E-002    -1.4532571479991196E-018
  -1.6049999999999998E-002    -2.0039507874428176E-018
  -1.6000000000000000E-002    -2.3253039480017395E-018
  -1.5949999999999999E-002    -2.3258160517289008E-018
  -1.5900000000000001E-002    -1.9517925416577196E-018
  -1.5850000000000000E-002    -1.2031147931336608E-018
  -1.5799999999999998E-002    -1.4232396558567361E-019
  -1.5750000000000000E-002     1.1057850502792072E-018
  -1.5699999999999999E-002     2.3655620883008458E-018
  -1.5650000000000001E-002     3.4325984456359493E-018
  -1.5599999999999999E-002     4.1041990234322463E-018
  -1.5550000000000001E-002     4.2140175584222567E-018
  -1.5500000000000000E-002     3.6652864209233947E-018
  -1.5449999999999998E-002     2.4565705642485186E-018
  -1.5400000000000000E-002     6.9454589975414415E-019
  -1.5349999999999999E-002    -1.4100427755670233E-018
  -1.5300000000000001E-002    -3.5645252887453658E-018
  -1.5250000000000000E-002    -5.4327720774060202E-018
  -1.5199999999999998E-002    -6.6851512932515563E-018
  -1.5150000000000000E-002    -7.0526562251818424E-018
  -1.5099999999999999E-002    -6.3765097891240074E-018
  -1.5050000000000001E-002    -4.6445852956579031E-018
  -1.4999999999999999E-002    -2.0075396746862612E-018
  -1.4949999999999998E-002     1.2295538542491125E-018
  -1.4900000000000000E-002     4.6405025227306776E-018
  -1.4849999999999999E-002     7.7326069462719591E-018
  -1.4800000000000001E-002     1.0015355716692408E-017
  -1.4749999999999999E-002     1.1073441182074636E-017
  -1.4700000000000001E-002     1.0633306366025042E-017
  -1.4650000000000000E-002     8.6131219246047554E-018
  -1.4599999999999998E-002     5.1483150457472389E-018
  -1.4550000000000000E-002     5.8824759933096201E-019
  -1.4499999999999999E-002    -4.5364038842412638E-018
  -1.4450000000000001E-002    -9.5720304429706961E-018
  -1.4400000000000000E-002    -1.3819448217705550E-017
  -1.4349999999999998E-002    -1.6621215022206696E-017
  -1.4300000000000000E-002    -1.7448866254173789E-017
  -1.4249999999999999E-002    -1.5980235120271586E-017
  -1.4200000000000001E-002    -1.2158094144274352E-017
  -1.4149999999999999E-002    -6.2229922661583098E-018
  -1.4099999999999998E-002     1.2848556586261393E-018
  -1.4050000000000000E-002     9.5575882377788997E-018
  -1.3999999999999999E-002     1.7586264704403354E-017
  -1.3950000000000001E-002     2.4259863435721290E-017
  -1.3899999999999999E-002     2.8491295274413410E-017
  -1.3850000000000001E-002     2.9361092871752869E-017
  -1.3800000000000000E-002     2.6264984127581071E-017
  -1.3749999999999998E-002     1.9047440723276170E-017
  -1.3700000000000000E-002     8.1000413452334859E-018
  -1.3649999999999999E-002    -5.5972205886144216E-018
  -1.3600000000000001E-002    -2.0510917837600316E-017
  -1.3550000000000000E-002    -3.4677790590677113E-017
  -1.3499999999999998E-002    -4.5917805461670802E-017
  -1.3450000000000000E-002    -5.2122781646904014E-017
  -1.3399999999999999E-002    -5.1590365486026990E-017
  -1.3350000000000001E-002    -4.3357827340582563E-017
  -1.3299999999999999E-002    -2.7480417816903820E-017
  -1.3249999999999998E-002    -5.1963215478991705E-018
  -1.3200000000000000E-002     2.1071428336435139E-017
  -1.3149999999999998E-002     4.7906673127433469E-017
  -1.3100000000000001E-002     7.1287422717974191E-017
  -1.3049999999999999E-002     8.7136353902504994E-017
  -1.3000000000000001E-002     9.1967156211355788E-017
  -1.2950000000000000E-002     8.3531596013668201E-017
  -1.2899999999999998E-002     6.1356500144009567E-017
  -1.2850000000000000E-002     2.7063052830630743E-017
  -1.2799999999999999E-002    -1.5616577064321362E-017