  -4.0000000000000001E-002     0.0000000000000000     
  -3.9949999999999999E-002     0.0000000000000000     
  -3.9899999999999998E-002     0.0000000000000000     
  -3.9850000000000003E-002     0.0000000000000000     
  -3.9800000000000002E-002     0.0000000000000000     
  -3.9750000000000001E-002     0.0000000000000000     
  -3.9699999999999999E-002     0.0000000000000000     
  -3.9649999999999998E-002     0.0000000000000000     
  -3.9600000000000003E-002     0.0000000000000000     
  -3.9550000000000002E-002     0.0000000000000000     
  -3.9500000000000000E-002     0.0000000000000000     
  -3.9449999999999999E-002     0.0000000000000000     
  -3.9399999999999998E-002     0.0000000000000000     
  -3.9350000000000003E-002     0.0000000000000000     
  -3.9300000000000002E-002     0.0000000000000000     
  -3.9250000000000000E-002     0.0000000000000000     
  -3.9199999999999999E-002     0.0000000000000000     
  -3.9150000000000004E-002     0.0000000000000000     
  -3.9100000000000003E-002     0.0000000000000000     
  -3.9050000000000001E-002     0.0000000000000000     
  -3.9000000000000000E-002     0.0000000000000000     
  -3.8949999999999999E-002     0.0000000000000000     
  -3.8900000000000004E-002     0.0000000000000000     
  -3.8850000000000003E-002     0.0000000000000000     
  -3.8800000000000001E-002     0.0000000000000000     
  -3.8750000000000000E-002     0.0000000000000000     
  -3.8699999999999998E-002     0.0000000000000000     
  -3.8650000000000004E-002     0.0000000000000000     
  -3.8600000000000002E-002     0.0000000000000000     
  -3.8550000000000001E-002     0.0000000000000000     
  -3.8500000000000000E-002     0.0000000000000000     
  -3.8449999999999998E-002     0.0000000000000000     
  -3.8400000000000004E-002     0.0000000000000000     
  -3.8350000000000002E-002     0.0000000000000000     
  -3.8300000000000001E-002     0.0000000000000000     
  -3.8249999999999999E-002     0.0000000000000000     
  -3.8199999999999998E-002     0.0000000000000000     
  -3.8150000000000003E-002     0.0000000000000000     
  -3.8100000000000002E-002     0.0000000000000000     
  -3.8050000000000000E-002     0.0000000000000000     
  -3.7999999999999999E-002     0.0000000000000000     
  -3.7949999999999998E-002     0.0000000000000000     
  -3.7900000000000003E-002     0.0000000000000000     
  -3.7850000000000002E-002     0.0000000000000000     
  -3.7800000000000000E-002     0.0000000000000000     
  -3.7749999999999999E-002     0.0000000000000000     
  -3.7699999999999997E-002     0.0000000000000000     
  -3.7650000000000003E-002     0.0000000000000000     
  -3.7600000000000001E-002     0.0000000000000000     
  -3.7550000000000000E-002     0.0000000000000000     
  -3.7499999999999999E-002     0.0000000000000000     
  -3.7449999999999997E-002     0.0000000000000000     
  -3.7400000000000003E-002     0.0000000000000000     
  -3.7350000000000001E-002     0.0000000000000000     
  -3.7300000000000000E-002     0.0000000000000000     
  -3.7249999999999998E-002     0.0000000000000000     
  -3.7200000000000004E-002     0.0000000000000000     
  -3.7150000000000002E-002     0.0000000000000000     
  -3.7100000000000001E-002     0.0000000000000000     
  -3.7050000000000000E-002     0.0000000000000000     
  -3.6999999999999998E-002     0.0000000000000000     
  -3.6950000000000004E-002     0.0000000000000000     
  -3.6900000000000002E-002     0.0000000000000000     
  -3.6850000000000001E-002     0.0000000000000000     
  -3.6799999999999999E-002     0.0000000000000000     
  -3.6749999999999998E-002     0.0000000000000000     
  -3.6700000000000003E-002     0.0000000000000000     
  -3.6650000000000002E-002     0.0000000000000000     
  -3.6600000000000001E-002     0.0000000000000000     
  -3.6549999999999999E-002     0.0000000000000000     
  -3.6499999999999998E-002     0.0000000000000000     
  -3.6450000000000003E-002     0.0000000000000000     
  -3.6400000000000002E-002     0.0000000000000000     
  -3.6350000000000000E-002     0.0000000000000000     
  -3.6299999999999999E-002     0.0000000000000000     
  -3.6249999999999998E-002     0.0000000000000000     
  -3.6200000000000003E-002     0.0000000000000000     
  -3.6150000000000002E-002     0.0000000000000000     
  -3.6100000000000000E-002     0.0000000000000000     
  -3.6049999999999999E-002     0.0000000000000000     
  -3.6000000000000004E-002     0.0000000000000000     
  -3.5950000000000003E-002     0.0000000000000000     
  -3.5900000000000001E-002     0.0000000000000000     
  -3.5850000000000000E-002     0.0000000000000000     
  -3.5799999999999998E-002     0.0000000000000000     
  -3.5750000000000004E-002     0.0000000000000000     
  -3.5700000000000003E-002     0.0000000000000000     
  -3.5650000000000001E-002     0.0000000000000000     
  -3.5600000000000000E-002     0.0000000000000000     
  -3.5549999999999998E-002     0.0000000000000000     
  -3.5500000000000004E-002     0.0000000000000000     
  -3.5450000000000002E-002     0.0000000000000000     
  -3.5400000000000001E-002     0.0000000000000000     
  -3.5349999999999999E-002     0.0000000000000000     
  -3.5299999999999998E-002     0.0000000000000000     
  -3.5250000000000004E-002     0.0000000000000000     
  -3.5200000000000002E-002     0.0000000000000000     
  -3.5150000000000001E-002     0.0000000000000000     
  -3.5099999999999999E-002     0.0000000000000000     
  -3.5049999999999998E-002     0.0000000000000000     
  -3.5000000000000003E-002     0.0000000000000000     
  -3.4950000000000002E-002     0.0000000000000000     
  -3.4900000000000000E-002     0.0000000000000000     
  -3.4849999999999999E-002     0.0000000000000000     
  -3.4799999999999998E-002     0.0000000000000000     
  -3.4750000000000003E-002     0.0000000000000000     
  -3.4700000000000002E-002     0.0000000000000000     
  -3.4650000000000000E-002     0.0000000000000000     
  -3.4599999999999999E-002     0.0000000000000000     
  -3.4549999999999997E-002     0.0000000000000000     
  -3.4500000000000003E-002     0.0000000000000000     
  -3.4450000000000001E-002     0.0000000000000000     
  -3.4400000000000000E-002     0.0000000000000000     
  -3.4349999999999999E-002     0.0000000000000000     
  -3.4299999999999997E-002     0.0000000000000000     
  -3.4250000000000003E-002     0.0000000000000000     
  -3.4200000000000001E-002     0.0000000000000000     
  -3.4150000000000000E-002     0.0000000000000000     
  -3.4099999999999998E-002     0.0000000000000000     
  -3.4049999999999997E-002     0.0000000000000000     
  -3.4000000000000002E-002     0.0000000000000000     
  -3.3950000000000001E-002     0.0000000000000000     
  -3.3900000000000000E-002     0.0000000000000000     
  -3.3849999999999998E-002     0.0000000000000000     
  -3.3799999999999997E-002     0.0000000000000000     
  -3.3750000000000002E-002     0.0000000000000000     
  -3.3700000000000001E-002     0.0000000000000000     
  -3.3649999999999999E-002     0.0000000000000000     
  -3.3599999999999998E-002     0.0000000000000000     
  -3.3550000000000003E-002     0.0000000000000000     
  -3.3500000000000002E-002     0.0000000000000000     
  -3.3450000000000001E-002     0.0000000000000000     
  -3.3399999999999999E-002     0.0000000000000000     
  -3.3349999999999998E-002     0.0000000000000000     
  -3.3300000000000003E-002     0.0000000000000000     
  -3.3250000000000002E-002     0.0000000000000000     
  -3.3200000000000000E-002     0.0000000000000000     
  -3.3149999999999999E-002     0.0000000000000000     
  -3.3099999999999997E-002     0.0000000000000000     
  -3.3050000000000003E-002     0.0000000000000000     
  -3.3000000000000002E-002     0.0000000000000000     
  -3.2950000000000000E-002     0.0000000000000000     
  -3.2899999999999999E-002     0.0000000000000000     
  -3.2850000000000004E-002     0.0000000000000000     
  -3.2800000000000003E-002     0.0000000000000000     
  -3.2750000000000001E-002     0.0000000000000000     
  -3.2700000000000000E-002     0.0000000000000000     
  -3.2649999999999998E-002     0.0000000000000000     
  -3.2600000000000004E-002     0.0000000000000000     
  -3.2550000000000003E-002     0.0000000000000000     
  -3.2500000000000001E-002     0.0000000000000000     
  -3.2450000000000000E-002     0.0000000000000000     
  -3.2399999999999998E-002     0.0000000000000000     
  -3.2350000000000004E-002     0.0000000000000000     
  -3.2300000000000002E-002     0.0000000000000000     
  -3.2250000000000001E-002     0.0000000000000000     
  -3.2199999999999999E-002     0.0000000000000000     
  -3.2149999999999998E-002     0.0000000000000000     
  -3.2100000000000004E-002     0.0000000000000000     
  -3.2050000000000002E-002     0.0000000000000000     
  -3.2000000000000001E-002     0.0000000000000000     
  -3.1949999999999999E-002     0.0000000000000000     
  -3.1899999999999998E-002     0.0000000000000000     
  -3.1850000000000003E-002     0.0000000000000000     
  -3.1800000000000002E-002     0.0000000000000000     
  -3.1750000000000000E-002     0.0000000000000000     
  -3.1699999999999999E-002     0.0000000000000000     
  -3.1649999999999998E-002     0.0000000000000000     
  -3.1600000000000003E-002     0.0000000000000000     
  -3.1550000000000002E-002     0.0000000000000000     
  -3.1500000000000000E-002     0.0000000000000000     
  -3.1449999999999999E-002     0.0000000000000000     
  -3.1399999999999997E-002     0.0000000000000000     
  -3.1350000000000003E-002     0.0000000000000000     
  -3.1300000000000001E-002     0.0000000000000000     
  -3.1250000000000000E-002     0.0000000000000000     
  -3.1199999999999999E-002     0.0000000000000000     
  -3.1150000000000001E-002     0.0000000000000000     
  -3.1100000000000003E-002     0.0000000000000000     
  -3.1050000000000001E-002     0.0000000000000000     
  -3.1000000000000000E-002     0.0000000000000000     
  -3.0949999999999998E-002     0.0000000000000000     
  -3.0900000000000000E-002     0.0000000000000000     
  -3.0850000000000002E-002     0.0000000000000000     
  -3.0800000000000001E-002     0.0000000000000000     
  -3.0750000000000000E-002     0.0000000000000000     
  -3.0699999999999998E-002     0.0000000000000000     
  -3.0650000000000000E-002     0.0000000000000000     
  -3.0600000000000002E-002     0.0000000000000000     
  -3.0550000000000001E-002     0.0000000000000000     
  -3.0499999999999999E-002     0.0000000000000000     
  -3.0449999999999998E-002     0.0000000000000000     
  -3.0400000000000000E-002     0.0000000000000000     
  -3.0350000000000002E-002     0.0000000000000000     
  -3.0300000000000001E-002     0.0000000000000000     
  -3.0249999999999999E-002     0.0000000000000000     
  -3.0200000000000001E-002     0.0000000000000000     
  -3.0150000000000000E-002     0.0000000000000000     
  -3.0100000000000002E-002     0.0000000000000000     
  -3.0050000000000000E-002     0.0000000000000000     
  -2.9999999999999999E-002     0.0000000000000000     
  -2.9950000000000001E-002     0.0000000000000000     
  -2.9899999999999999E-002     0.0000000000000000     
  -2.9850000000000002E-002     0.0000000000000000     
  -2.9800000000000000E-002     0.0000000000000000     
  -2.9749999999999999E-002     0.0000000000000000     
  -2.9700000000000001E-002     0.0000000000000000     
  -2.9650000000000003E-002     0.0000000000000000     
  -2.9600000000000001E-002     0.0000000000000000     
  -2.9550000000000000E-002     0.0000000000000000     
  -2.9499999999999998E-002     0.0000000000000000     
  -2.9450000000000000E-002     0.0000000000000000     
  -2.9400000000000003E-002     0.0000000000000000     
  -2.9350000000000001E-002     0.0000000000000000     
  -2.9300000000000000E-002     0.0000000000000000     
  -2.9249999999999998E-002     0.0000000000000000     
  -2.9200000000000000E-002     0.0000000000000000     
  -2.9150000000000002E-002     0.0000000000000000     
  -2.9100000000000001E-002     0.0000000000000000     
  -2.9049999999999999E-002     0.0000000000000000     
  -2.8999999999999998E-002     0.0000000000000000     
  -2.8950000000000000E-002     0.0000000000000000     
  -2.8900000000000002E-002     0.0000000000000000     
  -2.8850000000000001E-002     0.0000000000000000     
  -2.8799999999999999E-002     0.0000000000000000     
  -2.8749999999999998E-002     0.0000000000000000     
  -2.8700000000000000E-002     0.0000000000000000     
  -2.8650000000000002E-002     0.0000000000000000     
  -2.8600000000000000E-002     0.0000000000000000     
  -2.8549999999999999E-002     0.0000000000000000     
  -2.8500000000000001E-002     0.0000000000000000     
  -2.8450000000000000E-002     0.0000000000000000     
  -2.8400000000000002E-002     0.0000000000000000     
  -2.8350000000000000E-002     0.0000000000000000     
  -2.8299999999999999E-002     0.0000000000000000     
  -2.8250000000000001E-002     0.0000000000000000     
  -2.8200000000000003E-002     0.0000000000000000     
  -2.8150000000000001E-002     0.0000000000000000     
  -2.8100000000000000E-002     0.0000000000000000     
  -2.8049999999999999E-002     0.0000000000000000     
  -2.8000000000000001E-002     0.0000000000000000     
  -2.7950000000000003E-002     0.0000000000000000     
  -2.7900000000000001E-002     0.0000000000000000     
  -2.7850000000000000E-002     0.0000000000000000     
  -2.7799999999999998E-002     0.0000000000000000     
  -2.7750000000000000E-002     0.0000000000000000     
  -2.7700000000000002E-002     0.0000000000000000     
  -2.7650000000000001E-002     0.0000000000000000     
  -2.7600000000000000E-002     0.0000000000000000     
  -2.7549999999999998E-002     0.0000000000000000     
  -2.7500000000000000E-002     0.0000000000000000     
  -2.7450000000000002E-002     0.0000000000000000     
  -2.7400000000000001E-002     0.0000000000000000     
  -2.7349999999999999E-002     0.0000000000000000     
  -2.7299999999999998E-002     0.0000000000000000     
  -2.7250000000000000E-002     0.0000000000000000     
  -2.7200000000000002E-002     0.0000000000000000     
  -2.7150000000000001E-002     0.0000000000000000     
  -2.7099999999999999E-002     0.0000000000000000     
  -2.7049999999999998E-002     0.0000000000000000     
  -2.7000000000000000E-002     0.0000000000000000     
  -2.6950000000000002E-002     0.0000000000000000     
  -2.6900000000000000E-002     0.0000000000000000     
  -2.6849999999999999E-002     0.0000000000000000     
  -2.6800000000000001E-002     0.0000000000000000     
  -2.6749999999999999E-002     0.0000000000000000     
  -2.6700000000000002E-002     0.0000000000000000     
  -2.6650000000000000E-002     0.0000000000000000     
  -2.6599999999999999E-002     0.0000000000000000     
  -2.6550000000000001E-002     0.0000000000000000     
  -2.6500000000000003E-002     0.0000000000000000     
  -2.6450000000000001E-002     0.0000000000000000     
  -2.6400000000000000E-002     0.0000000000000000     
  -2.6349999999999998E-002     0.0000000000000000     
  -2.6300000000000000E-002     0.0000000000000000     
  -2.6250000000000002E-002     0.0000000000000000     
  -2.6200000000000001E-002     0.0000000000000000     
  -2.6150000000000000E-002     0.0000000000000000     
  -2.6099999999999998E-002     0.0000000000000000     
  -2.6050000000000000E-002     0.0000000000000000     
  -2.6000000000000002E-002     0.0000000000000000     
  -2.5950000000000001E-002     0.0000000000000000     
  -2.5899999999999999E-002     0.0000000000000000     
  -2.5849999999999998E-002     0.0000000000000000     
  -2.5800000000000000E-002     0.0000000000000000     
  -2.5750000000000002E-002     0.0000000000000000     
  -2.5700000000000001E-002     0.0000000000000000     
  -2.5649999999999999E-002     0.0000000000000000     
  -2.5599999999999998E-002     0.0000000000000000     
  -2.5550000000000000E-002     0.0000000000000000     
  -2.5500000000000002E-002     0.0000000000000000     
  -2.5450000000000000E-002     0.0000000000000000     
  -2.5399999999999999E-002     0.0000000000000000     
  -2.5349999999999998E-002     0.0000000000000000     
  -2.5300000000000000E-002     0.0000000000000000     
  -2.5250000000000002E-002     0.0000000000000000     
  -2.5200000000000000E-002     0.0000000000000000     
  -2.5149999999999999E-002     0.0000000000000000     
  -2.5100000000000001E-002     0.0000000000000000     
  -2.5049999999999999E-002     0.0000000000000000     
  -2.5000000000000001E-002     0.0000000000000000     
  -2.4950000000000000E-002     0.0000000000000000     
  -2.4899999999999999E-002     0.0000000000000000     
  -2.4850000000000001E-002     0.0000000000000000     
  -2.4800000000000003E-002     0.0000000000000000     
  -2.4750000000000001E-002     0.0000000000000000     
  -2.4700000000000000E-002     0.0000000000000000     
  -2.4649999999999998E-002     0.0000000000000000     
  -2.4600000000000000E-002     0.0000000000000000     
  -2.4550000000000002E-002     0.0000000000000000     
  -2.4500000000000001E-002     0.0000000000000000     
  -2.4450000000000000E-002     0.0000000000000000     
  -2.4399999999999998E-002     0.0000000000000000     
  -2.4350000000000000E-002     0.0000000000000000     
  -2.4299999999999999E-002     0.0000000000000000     
  -2.4250000000000001E-002     0.0000000000000000     
  -2.4199999999999999E-002     0.0000000000000000     
  -2.4150000000000001E-002     0.0000000000000000     
  -2.4100000000000000E-002     0.0000000000000000     
  -2.4049999999999998E-002     0.0000000000000000     
  -2.4000000000000000E-002     0.0000000000000000     
  -2.3949999999999999E-002     0.0000000000000000     
  -2.3900000000000001E-002     0.0000000000000000     
  -2.3850000000000000E-002     0.0000000000000000     
  -2.3800000000000002E-002     0.0000000000000000     
  -2.3750000000000000E-002     0.0000000000000000     
  -2.3699999999999999E-002     0.0000000000000000     
  -2.3650000000000001E-002     0.0000000000000000     
  -2.3599999999999999E-002     0.0000000000000000     
  -2.3550000000000001E-002     0.0000000000000000     
  -2.3500000000000000E-002     0.0000000000000000     
  -2.3449999999999999E-002     0.0000000000000000     
  -2.3400000000000001E-002     0.0000000000000000     
  -2.3349999999999999E-002     0.0000000000000000     
  -2.3300000000000001E-002     0.0000000000000000     
  -2.3250000000000000E-002     0.0000000000000000     
  -2.3199999999999998E-002     0.0000000000000000     
  -2.3150000000000000E-002     0.0000000000000000     
  -2.3099999999999999E-002     0.0000000000000000     
  -2.3050000000000001E-002     0.0000000000000000     
  -2.3000000000000000E-002     0.0000000000000000     
  -2.2950000000000002E-002     0.0000000000000000     
  -2.2900000000000000E-002     0.0000000000000000     
  -2.2849999999999999E-002     0.0000000000000000     
  -2.2800000000000001E-002     0.0000000000000000     
  -2.2749999999999999E-002     0.0000000000000000     
  -2.2700000000000001E-002     0.0000000000000000     
  -2.2650000000000000E-002     0.0000000000000000     
  -2.2599999999999999E-002     0.0000000000000000     
  -2.2550000000000001E-002     0.0000000000000000     
  -2.2499999999999999E-002     0.0000000000000000     
  -2.2450000000000001E-002     0.0000000000000000     
  -2.2400000000000000E-002     0.0000000000000000     
  -2.2349999999999998E-002     0.0000000000000000     
  -2.2300000000000000E-002     0.0000000000000000     
  -2.2249999999999999E-002     0.0000000000000000     
  -2.2200000000000001E-002     0.0000000000000000     
  -2.2150000000000000E-002     0.0000000000000000     
  -2.2100000000000002E-002     0.0000000000000000     
  -2.2050000000000000E-002     0.0000000000000000     
  -2.1999999999999999E-002     0.0000000000000000     
  -2.1950000000000001E-002     0.0000000000000000     
  -2.1899999999999999E-002     0.0000000000000000     
  -2.1850000000000001E-002     0.0000000000000000     
  -2.1800000000000000E-002     0.0000000000000000     
  -2.1749999999999999E-002     0.0000000000000000     
  -2.1700000000000001E-002     0.0000000000000000     
  -2.1649999999999999E-002     0.0000000000000000     
  -2.1600000000000001E-002     0.0000000000000000     
  -2.1550000000000000E-002     0.0000000000000000     
  -2.1499999999999998E-002    -2.7668389324731040E-039
  -2.1450000000000000E-002    -5.7704872589010885E-039
  -2.1399999999999999E-002    -3.4328855723229776E-039
  -2.1350000000000001E-002     0.0000000000000000     
  -2.1299999999999999E-002     5.7891594734505676E-039
  -2.1250000000000002E-002     1.2571663045753778E-038
  -2.1200000000000000E-002     1.8224983767255037E-038
  -2.1149999999999999E-002     1.9829763139694742E-038
  -2.1100000000000001E-002     1.9829763139694742E-038
  -2.1049999999999999E-002     2.5498430200461708E-039
  -2.1000000000000001E-002    -3.1961548756416387E-038
  -2.0950000000000000E-002    -6.2500943181349527E-038
  -2.0899999999999998E-002    -8.6974895673829199E-038
  -2.0850000000000000E-002    -1.0061522416390694E-037
  -2.0799999999999999E-002    -1.0406689389186554E-037
  -2.0750000000000001E-002    -6.5874887071931162E-038
  -2.0700000000000000E-002     3.1508221986269662E-038
  -2.0649999999999998E-002     1.4452261114487988E-037
  -2.0600000000000000E-002     2.4204495809354994E-037
  -2.0549999999999999E-002     2.7399310444451158E-037
  -2.0500000000000001E-002     2.3271621666200128E-037
  -2.0449999999999999E-002     1.6059143204158469E-037
  -2.0400000000000001E-002     8.6621143529019709E-038
  -2.0350000000000000E-002    -2.0804880401751244E-038
  -2.0299999999999999E-002    -1.9835458593651423E-037
  -2.0250000000000001E-002    -4.4867317485856855E-037
  -2.0199999999999999E-002    -7.1454279422225381E-037
  -2.0150000000000001E-002    -8.5553020679763853E-037
  -2.0100000000000000E-002    -7.6036546491229736E-037
  -2.0049999999999998E-002    -3.7991649697947546E-037
  -2.0000000000000000E-002     2.0242786455676003E-037
  -1.9949999999999999E-002     8.8513912117268034E-037
  -1.9900000000000001E-002     1.5618983343662487E-036
  -1.9850000000000000E-002     2.1246449483746491E-036
  -1.9799999999999998E-002     2.4147134648798369E-036
  -1.9750000000000000E-002     2.2172668771522523E-036
  -1.9699999999999999E-002     1.3435508503660804E-036
  -1.9650000000000001E-002    -2.3400901573456500E-037
  -1.9599999999999999E-002    -2.3212636997954060E-036
  -1.9550000000000001E-002    -4.5183006003492790E-036
  -1.9500000000000000E-002    -6.3074495608240593E-036
  -1.9449999999999999E-002    -7.1475841942972130E-036
  -1.9400000000000001E-002    -6.5515491056358540E-036
  -1.9349999999999999E-002    -4.1785958795682970E-036
  -1.9300000000000001E-002     2.8903750855720930E-038
  -1.9250000000000000E-002     5.6756520169197795E-036
  -1.9199999999999998E-002     1.1831086591380052E-035
  -1.9150000000000000E-002     1.7106501836939544E-035
  -1.9099999999999999E-002     1.9900441558603259E-035
  -1.9050000000000001E-002     1.8751092545843713E-035
  -1.9000000000000000E-002     1.2715026033110101E-035
  -1.8949999999999998E-002     1.7103591964203952E-036
  -1.8900000000000000E-002    -1.3215956164568833E-035
  -1.8849999999999999E-002    -2.9762728430409325E-035
  -1.8800000000000001E-002    -4.4492880599662965E-035
  -1.8749999999999999E-002    -5.3290817409321941E-035
  -1.8700000000000001E-002    -5.2163374324343012E-035
  -1.8650000000000000E-002    -3.8274104012043192E-035
  -1.8599999999999998E-002    -1.0975335883566315E-035
  -1.8550000000000001E-002     2.7399957429776766E-035
  -1.8499999999999999E-002     7.1215735245161106E-035
  -1.8450000000000001E-002     1.1185982340615051E-034
  -1.8400000000000000E-002     1.3883398672228736E-034
  -1.8349999999999998E-002     1.4162099753302257E-034
  -1.8300000000000000E-002     1.1215287810316119E-034
  -1.8249999999999999E-002     4.7474752185124026E-035
  -1.8200000000000001E-002    -4.8003629228459741E-035
  -1.8149999999999999E-002    -1.6134449426726284E-034
  -1.8100000000000002E-002    -2.7158032101438255E-034
  -1.8050000000000000E-002    -3.5220765924424985E-034
  -1.7999999999999999E-002    -3.7566324684378360E-034
  -1.7950000000000001E-002    -3.1936276528127209E-034
  -1.7899999999999999E-002    -1.7241262543161535E-034
  -1.7850000000000001E-002     5.8346343707333476E-035
  -1.7800000000000000E-002     3.4460672899622726E-034
  -1.7749999999999998E-002     6.3677749694406644E-034
  -1.7700000000000000E-002     8.6921190715438555E-034
  -1.7649999999999999E-002     9.7071038455109620E-034
  -1.7600000000000001E-002     8.7936185909510897E-034
  -1.7550000000000000E-002     5.5955284285166068E-034
  -1.7499999999999998E-002     1.7869374452892571E-035
  -1.7450000000000000E-002    -6.8609346538812202E-034
  -1.7399999999999999E-002    -1.4380398026873325E-033
  -1.7350000000000001E-002    -2.0794985948485266E-033
  -1.7299999999999999E-002    -2.4316834895272230E-033
  -1.7250000000000001E-002    -2.3309360596496324E-033
  -1.7200000000000000E-002    -1.6707614559743447E-033
  -1.7149999999999999E-002    -4.4255302988626068E-034
  -1.7100000000000001E-002     1.2347736464663603E-033
  -1.7049999999999999E-002     3.1061592916001666E-033
  -1.7000000000000001E-002     4.8006669522156541E-033
  -1.6950000000000000E-002     5.8840599628336341E-033
  -1.6899999999999998E-002     5.9405604451495166E-033
  -1.6850000000000000E-002     4.6729631877117048E-033
  -1.6799999999999999E-002     2.0030036933813111E-033
  -1.6750000000000001E-002    -1.8510932132268394E-033
  -1.6700000000000000E-002    -6.3438078130838710E-033
  -1.6649999999999998E-002    -1.0637785828594562E-032
  -1.6600000000000000E-002    -1.3715095251296490E-032
  -1.6549999999999999E-002    -1.4559019108220202E-032
  -1.6500000000000001E-002    -1.2383678909462469E-032
  -1.6449999999999999E-002    -6.8719096491992510E-033
  -1.6400000000000001E-002     1.6304504793723301E-033
  -1.6350000000000000E-002     1.2019080272203348E-032
  -1.6299999999999999E-002     2.2481420668819876E-032
  -1.6250000000000001E-002     3.0718448257433449E-032
  -1.6199999999999999E-002     3.4331654299785181E-032
  -1.6150000000000001E-002     3.1330301025557981E-032
  -1.6100000000000000E-002     2.0676042476523024E-032
  -1.6049999999999998E-002     2.7530843575401157E-033
  -1.6000000000000000E-002    -2.0358846041233509E-032
  -1.5949999999999999E-002    -4.4917845487971253E-032
  -1.5900000000000001E-002    -6.5927173574936865E-032
  -1.5850000000000000E-002    -7.7918249808051011E-032
  -1.5799999999999998E-002    -7.6028591264181908E-032
  -1.5750000000000000E-002    -5.7210100791091760E-032
  -1.5699999999999999E-002    -2.1335449338483869E-032
  -1.5650000000000001E-002     2.8062550677440132E-032
  -1.5599999999999999E-002     8.3666532891418721E-032
  -1.5550000000000001E-002     1.3503810737466088E-031
  -1.5500000000000000E-002     1.7011318843507922E-031
  -1.5449999999999998E-002     1.7740356315182069E-031
  -1.5400000000000000E-002     1.4859810747101357E-031
  -1.5349999999999999E-002     8.1099993040133540E-032
  -1.5300000000000001E-002    -2.0057396523914580E-032
  -1.5250000000000000E-002    -1.4147006496083468E-031
  -1.5199999999999998E-002    -2.6222977268013515E-031
  -1.5150000000000000E-002    -3.5658828809470863E-031
  -1.5099999999999999E-002    -3.9827174561469329E-031
  -1.5050000000000001E-002    -3.6591613689375326E-031
  -1.4999999999999999E-002    -2.4873454719993594E-031
  -1.4949999999999998E-002    -5.1274424022232235E-032
  -1.4900000000000000E-002     2.0394912197673156E-031
  -1.4849999999999999E-002     4.7698777094984191E-031
  -1.4800000000000001E-002     7.1478231350979817E-031
  -1.4749999999999999E-002     8.5923967693913479E-031
  -1.4700000000000001E-002     8.5823476412186427E-031
  -1.4650000000000000E-002     6.7790647925454079E-031
  -1.4599999999999998E-002     3.1397157296132567E-031
  -1.4550000000000000E-002    -2.0053622554909514E-031
  -1.4499999999999999E-002    -7.9354051363536571E-031
  -1.4450000000000001E-002    -1.3599454629316919E-030
  -1.4400000000000000E-002    -1.7759279660419448E-030
  -1.4349999999999998E-002    -1.9204025633318368E-030
  -1.4300000000000000E-002    -1.7008220105734527E-030
  -1.4249999999999999E-002    -1.0789224937859742E-030
  -1.4200000000000001E-002    -9.1043527864976167E-032
  -1.4149999999999999E-002     1.1424359012655121E-030
  -1.4099999999999998E-002     2.4229648330729517E-030
  -1.4050000000000000E-002     3.4972196031622921E-030
  -1.3999999999999999E-002     4.0971213631901383E-030
  -1.3950000000000001E-002     3.9918861275951592E-030
  -1.3899999999999999E-002     3.0440069516078343E-030
  -1.3850000000000001E-002     1.2584487051848893E-030
  -1.3800000000000000E-002    -1.1866224649129565E-030
  -1.3749999999999998E-002    -3.9380094169368685E-030
  -1.3700000000000000E-002    -6.5012812196036372E-030
  -1.3649999999999999E-002    -8.3110500612582585E-030
  -1.3600000000000001E-002    -8.8312103740671859E-030
  -1.3550000000000000E-002    -7.6710434232586386E-030
  -1.3499999999999998E-002    -4.6967749981843973E-030
  -1.3450000000000000E-002    -1.1473114168094406E-031
  -1.3399999999999999E-002     5.4970259214449739E-030
  -1.3350000000000001E-002     1.1226046639760698E-029
  -1.3299999999999999E-002     1.5938914294707398E-029
  -1.3249999999999998E-002     1.8463718683161630E-029
  -1.3200000000000000E-002     1.7819084960768708E-029
  -1.3149999999999998E-002     1.3453028614165148E-029
  -1.3100000000000001E-002     5.4453113689388377E-030
  -1.3049999999999999E-002    -5.3752048108480956E-030
  -1.3000000000000001E-002    -1.7439527930426364E-029
  -1.2950000000000000E-002    -2.8598143178433369E-029
  -1.2899999999999998E-002    -3.6430222008446302E-029
  -1.2850000000000000E-002    -3.8671160393342148E-029
  -1.2799999999999999E-002    -3.3697042670327185E-029