  -4.0000000000000001E-002     0.0000000000000000     
  -3.9949999999999999E-002     0.0000000000000000     
  -3.9899999999999998E-002     0.0000000000000000     
  -3.9850000000000003E-002     0.0000000000000000     
  -3.9800000000000002E-002     0.0000000000000000     
  -3.9750000000000001E-002     0.0000000000000000     
  -3.9699999999999999E-002     0.0000000000000000     
  -3.9649999999999998E-002     0.0000000000000000     
  -3.9600000000000003E-002     0.0000000000000000     
  -3.9550000000000002E-002     0.0000000000000000     
  -3.9500000000000000E-002     0.0000000000000000     
  -3.9449999999999999E-002     0.0000000000000000     
  -3.9399999999999998E-002     0.0000000000000000     
  -3.9350000000000003E-002     0.0000000000000000     
  -3.9300000000000002E-002     0.0000000000000000     
  -3.9250000000000000E-002     0.0000000000000000     
  -3.9199999999999999E-002     0.0000000000000000     
  -3.9150000000000004E-002     0.0000000000000000     
  -3.9100000000000003E-002     0.0000000000000000     
  -3.9050000000000001E-002     0.0000000000000000     
  -3.9000000000000000E-002     0.0000000000000000     
  -3.8949999999999999E-002     0.0000000000000000     
  -3.8900000000000004E-002     0.0000000000000000     
  -3.8850000000000003E-002     0.0000000000000000     
  -3.8800000000000001E-002     0.0000000000000000     
  -3.8750000000000000E-002     0.0000000000000000     
  -3.8699999999999998E-002     0.0000000000000000     
  -3.8650000000000004E-002     0.0000000000000000     
  -3.8600000000000002E-002     0.0000000000000000     
  -3.8550000000000001E-002     0.0000000000000000     
  -3.8500000000000000E-002     0.0000000000000000     
  -3.8449999999999998E-002     0.0000000000000000     
  -3.8400000000000004E-002     0.0000000000000000     
  -3.8350000000000002E-002     0.0000000000000000     
  -3.8300000000000001E-002     0.0000000000000000     
  -3.8249999999999999E-002     0.0000000000000000     
  -3.8199999999999998E-002     0.0000000000000000     
  -3.8150000000000003E-002     0.0000000000000000     
  -3.8100000000000002E-002     0.0000000000000000     
  -3.8050000000000000E-002     0.0000000000000000     
  -3.7999999999999999E-002     0.0000000000000000     
  -3.7949999999999998E-002     0.0000000000000000     
  -3.7900000000000003E-002     0.0000000000000000     
  -3.7850000000000002E-002     0.0000000000000000     
  -3.7800000000000000E-002     0.0000000000000000     
  -3.7749999999999999E-002     0.0000000000000000     
  -3.7699999999999997E-002     0.0000000000000000     
  -3.7650000000000003E-002     0.0000000000000000     
  -3.7600000000000001E-002     0.0000000000000000     
  -3.7550000000000000E-002     0.0000000000000000     
  -3.7499999999999999E-002     0.0000000000000000     
  -3.7449999999999997E-002     0.0000000000000000     
  -3.7400000000000003E-002     0.0000000000000000     
  -3.7350000000000001E-002     0.0000000000000000     
  -3.7300000000000000E-002    -4.6248949160307631E-039
  -3.7249999999999998E-002    -1.0595609028203943E-038
  -3.7200000000000004E-002    -1.8141132064745953E-038
  -3.7150000000000002E-002    -1.9050358304003685E-038
  -3.7100000000000001E-002     1.7812740069075559E-038
  -3.7050000000000000E-002     1.0636832952140239E-037
  -3.6999999999999998E-002     2.5368820505620037E-037
  -3.6950000000000004E-002     4.2512785694062650E-037
  -3.6900000000000002E-002     5.4528079616651840E-037
  -3.6850000000000001E-002     4.4475604027018489E-037
  -3.6799999999999999E-002    -1.5008058026870189E-037
  -3.6749999999999998E-002    -1.6131618003216685E-036
  -3.6700000000000003E-002    -4.2817386265315248E-036
  -3.6650000000000002E-002    -8.1597698953149655E-036
  -3.6600000000000001E-002    -1.2405266118502467E-035
  -3.6549999999999999E-002    -1.4673121779590507E-035
  -3.6499999999999998E-002    -1.0558832802060458E-035
  -3.6450000000000003E-002     6.3545705681113580E-036
  -3.6400000000000002E-002     4.3087990297446312E-035
  -3.6350000000000000E-002     1.0366629485268744E-034
  -3.6299999999999999E-002     1.8284607915322781E-034
  -3.6249999999999998E-002     2.5773603339489436E-034
  -3.6200000000000003E-002     2.7977233005612925E-034
  -3.6150000000000002E-002     1.7206859386002320E-034
  -3.6100000000000000E-002    -1.6038876072926265E-034
  -3.6049999999999999E-002    -7.9936323074673462E-034
  -3.6000000000000004E-002    -1.7552777476050299E-033
  -3.5950000000000003E-002    -2.8854546591775118E-033
  -3.5900000000000001E-002    -3.8070967114423708E-033
  -3.5850000000000000E-002    -3.8440115958991795E-033
  -3.5799999999999998E-002    -2.0661960927250423E-033
  -3.5750000000000004E-002     2.5093874079245724E-033
  -3.5700000000000003E-002     1.0504415738123032E-032
  -3.5650000000000001E-002     2.1553677089140110E-032
  -3.5600000000000000E-002     3.3571814727068743E-032
  -3.5549999999999998E-002     4.2153625179805815E-032
  -3.5500000000000004E-002     4.0490440997033899E-032
  -3.5450000000000002E-002     2.0268423619297597E-032
  -3.5400000000000001E-002    -2.6043152849766135E-032
  -3.5349999999999999E-002    -1.0138781049045845E-031
  -3.5299999999999998E-002    -1.9922919393858218E-031
  -3.5250000000000004E-002    -2.9878373184248959E-031
  -3.5200000000000002E-002    -3.6244481084789412E-031
  -3.5150000000000001E-002    -3.3806634038588673E-031
  -3.5099999999999999E-002    -1.6868830764946223E-031
  -3.5049999999999998E-002     1.8892998047932332E-031
  -3.5000000000000003E-002     7.3822563101519370E-031
  -3.4950000000000002E-002     1.4143360566022285E-030
  -3.4900000000000000E-002     2.0626928200933385E-030
  -3.4849999999999999E-002     2.4375504474403317E-030
  -3.4799999999999998E-002     2.2335598493658306E-030
  -3.4750000000000003E-002     1.1586278842511862E-030
  -3.4700000000000002E-002    -9.5485509789040745E-031
  -3.4650000000000000E-002    -4.0199849203602033E-030
  -3.4599999999999999E-002    -7.5845080907929789E-030
  -3.4549999999999997E-002    -1.0790763620843651E-029
  -3.4500000000000003E-002    -1.2458235678558950E-029
  -3.4450000000000001E-002    -1.1319936095920124E-029
  -3.4400000000000000E-002    -6.3997646258364234E-030
  -3.4349999999999999E-002     2.5432891937144494E-030
  -3.4299999999999997E-002     1.4639239952860810E-029
  -3.4250000000000003E-002     2.7768751103711274E-029
  -3.4200000000000001E-002     3.8809988769384408E-029
  -3.4150000000000000E-002     4.4323021450740337E-029
  -3.4099999999999998E-002     4.1561598588277440E-029
  -3.4049999999999997E-002     2.9514531103649889E-029
  -3.4000000000000002E-002     9.5416187299265277E-030
  -3.3950000000000001E-002    -1.4826487891354448E-029
  -3.3900000000000000E-002    -3.9139668222746769E-029
  -3.3849999999999998E-002    -6.0117016216416618E-029
  -3.3799999999999997E-002    -7.7818384434840861E-029
  -3.3750000000000002E-002    -9.6704476037217237E-029
  -3.3700000000000001E-002    -1.2432805824771823E-028
  -3.3649999999999999E-002    -1.6694773057808564E-028
  -3.3599999999999998E-002    -2.2257572488802996E-028
  -3.3550000000000003E-002    -2.7362124489188140E-028
  -3.3500000000000002E-002    -2.8279109564219552E-028
  -3.3450000000000001E-002    -1.9645518641035082E-028
  -3.3399999999999999E-002     4.1486252133431978E-029
  -3.3349999999999998E-002     4.6540638103688272E-028
  -3.3300000000000003E-002     1.0583685541960111E-027
  -3.3250000000000002E-002     1.7269929106303509E-027
  -3.3200000000000000E-002     2.2934678213316269E-027
  -3.3149999999999999E-002     2.5160321377276992E-027
  -3.3099999999999997E-002     2.1424404006960609E-027
  -3.3050000000000003E-002     9.8943910154691364E-028
  -3.3000000000000002E-002    -9.7165899651737724E-028
  -3.2950000000000000E-002    -3.5524212409753886E-027
  -3.2899999999999999E-002    -6.3368616841704381E-027
  -3.2850000000000004E-002    -8.7397259393720579E-027
  -3.2800000000000003E-002    -1.0126514118402702E-026
  -3.2750000000000001E-002    -9.9609830605722742E-027
  -3.2700000000000000E-002    -7.9268376099636172E-027
  -3.2649999999999998E-002    -3.9722623020525107E-027
  -3.2600000000000004E-002     1.7442830939015050E-027
  -3.2550000000000003E-002     8.9756246553157845E-027
  -3.2500000000000001E-002     1.7486481871024986E-026
  -3.2450000000000000E-002     2.7014361842665051E-026
  -3.2399999999999998E-002     3.6998965029824522E-026
  -3.2350000000000004E-002     4.6088624506381578E-026
  -3.2300000000000002E-002     5.1590523814630414E-026
  -3.2250000000000001E-002     4.9194674125529376E-026
  -3.2199999999999999E-002     3.3385733084307042E-026
  -3.2149999999999998E-002    -1.1253395602220609E-027
  -3.2100000000000004E-002    -5.6916805775240083E-026
  -3.2050000000000002E-002    -1.3077360492772423E-025
  -3.2000000000000001E-002    -2.1100750365464339E-025
  -3.1949999999999999E-002    -2.7656562071341131E-025
  -3.1899999999999998E-002    -2.9928868105912819E-025
  -3.1850000000000003E-002    -2.5006535453615985E-025
  -3.1800000000000002E-002    -1.0842139203891560E-025
  -3.1750000000000000E-002     1.2647399811853270E-025
  -3.1699999999999999E-002     4.2681201124021172E-025
  -3.1649999999999998E-002     7.3323041444205469E-025
  -3.1600000000000003E-002     9.6138103417413214E-025
  -3.1550000000000002E-002     1.0191800232320698E-024
  -3.1500000000000000E-002     8.3253101590278385E-025
  -3.1449999999999999E-002     3.7359319949562710E-025
  -3.1399999999999997E-002    -3.1704285370833958E-025
  -3.1350000000000003E-002    -1.1232939766624900E-024
  -3.1300000000000001E-002    -1.8678984764520921E-024
  -3.1250000000000000E-002    -2.3486398066264574E-024
  -3.1199999999999999E-002    -2.3896961621011846E-024
  -3.1150000000000001E-002    -1.8947651478879114E-024
  -3.1100000000000003E-002    -8.8545014238580697E-025
  -3.1050000000000001E-002     4.8942207481490298E-025
  -3.1000000000000000E-002     1.9800360610644195E-024
  -3.0949999999999998E-002     3.2922723554212070E-024
  -3.0900000000000000E-002     4.1582379645431324E-024
  -3.0850000000000002E-002     4.3973049159238949E-024
  -3.0800000000000001E-002     3.9460996204711489E-024
  -3.0750000000000000E-002     2.8471211230468714E-024
  -3.0699999999999998E-002     1.2034394716888383E-024
  -3.0650000000000000E-002    -8.7533926251161118E-025
  -3.0600000000000002E-002    -3.3012895359972054E-024
  -3.0550000000000001E-002    -5.9817709981976336E-024
  -3.0499999999999999E-002    -8.7324709749516365E-024
  -3.0449999999999998E-002    -1.1158332911676826E-023
  -3.0400000000000000E-002    -1.2564370177070640E-023
  -3.0350000000000002E-002    -1.1974729338977531E-023
  -3.0300000000000001E-002    -8.3234795086466693E-024
  -3.0249999999999999E-002    -8.2932484805344820E-025
  -3.0200000000000001E-002     1.0512166183472551E-023
  -3.0150000000000000E-002     2.4467557283554936E-023
  -3.0100000000000002E-002     3.8337237966088907E-023
  -3.0050000000000000E-002     4.8152713135737108E-023
  -2.9999999999999999E-002     4.9404659065618831E-023
  -2.9950000000000001E-002     3.8249154860939524E-023
  -2.9899999999999999E-002     1.2949025867044641E-023
  -2.9850000000000002E-002    -2.4853527230369025E-023
  -2.9800000000000000E-002    -6.9501114254604679E-023
  -2.9749999999999999E-002    -1.1170873271874649E-022
  -2.9700000000000001E-002    -1.4012594906609690E-022
  -2.9650000000000003E-002    -1.4388277391739187E-022
  -2.9600000000000001E-002    -1.1557509357875008E-022
  -2.9550000000000000E-002    -5.3900990935366378E-023
  -2.9499999999999998E-002     3.4869245986590848E-023
  -2.9450000000000000E-002     1.3717281699750259E-022
  -2.9400000000000003E-002     2.3430799020884812E-022
  -2.9350000000000001E-002     3.0602946083172360E-022
  -2.9300000000000000E-002     3.3468392071936484E-022
  -2.9249999999999998E-002     3.0878457526948360E-022
  -2.9200000000000000E-002     2.2509874436750864E-022
  -2.9150000000000002E-002     8.8851349332641160E-023
  -2.9100000000000001E-002    -8.7644913532651234E-023
  -2.9049999999999999E-002    -2.8700825449099835E-022
  -2.8999999999999998E-002    -4.8830770930492762E-022
  -2.8950000000000000E-002    -6.6728175172529805E-022
  -2.8900000000000002E-002    -7.9534477047822871E-022
  -2.8850000000000001E-002    -8.3861317839421705E-022
  -2.8799999999999999E-002    -7.5909627240912763E-022
  -2.8749999999999998E-002    -5.2032836380205866E-022
  -2.8700000000000000E-002    -9.8689854424518058E-023
  -2.8650000000000002E-002     5.0052752098697278E-022
  -2.8600000000000000E-002     1.2261223971531519E-021
  -2.8549999999999999E-002     1.9694421675358324E-021
  -2.8500000000000001E-002     2.5658111187591081E-021
  -2.8450000000000000E-002     2.8150693576817620E-021
  -2.8400000000000002E-002     2.5231069248890875E-021
  -2.8350000000000000E-002     1.5596560936358493E-021
  -2.8299999999999999E-002    -7.9815751865935422E-023
  -2.8250000000000001E-002    -2.2261009196615236E-021
  -2.8200000000000003E-002    -4.5219024914062692E-021
  -2.8150000000000001E-002    -6.4567355969694339E-021
  -2.8100000000000000E-002    -7.4562282549855656E-021
  -2.8049999999999999E-002    -7.0158799654337151E-021
  -2.8000000000000001E-002    -4.8531952791313307E-021
  -2.7950000000000003E-002    -1.0397822127032507E-021
  -2.7900000000000001E-002     3.9287441343936699E-021
  -2.7850000000000000E-002     9.1591998840015483E-021
  -2.7799999999999998E-002     1.3497812835844447E-020
  -2.7750000000000000E-002     1.5763661548892084E-020
  -2.7700000000000002E-002     1.5034558277316833E-020
  -2.7650000000000001E-002     1.0918668434158536E-020
  -2.7600000000000000E-002     3.7375247078405188E-021
  -2.7549999999999998E-002    -5.4414452531898948E-021
  -2.7500000000000000E-002    -1.4952688591430665E-020
  -2.7450000000000002E-002    -2.2845296543761515E-020
  -2.7400000000000001E-002    -2.7298706841349272E-020
  -2.7349999999999999E-002    -2.7044500563237627E-020
  -2.7299999999999998E-002    -2.1686645210465685E-020
  -2.7250000000000000E-002    -1.1831519478276196E-020
  -2.7200000000000002E-002     1.0142436824468567E-021
  -2.7150000000000001E-002     1.4757510210900438E-020
  -2.7099999999999999E-002     2.7162261612824709E-020
  -2.7049999999999998E-002     3.6301420937238673E-020
  -2.7000000000000000E-002     4.0891080446097494E-020
  -2.6950000000000002E-002     4.0417753964611905E-020
  -2.6900000000000000E-002     3.5038132307276551E-020
  -2.6849999999999999E-002     2.5311756124268425E-020
  -2.6800000000000001E-002     1.1893060307093666E-020
  -2.6749999999999999E-002    -4.6656902707720730E-021
  -2.6700000000000002E-002    -2.3879827383836881E-020
  -2.6650000000000000E-002    -4.5030269230761017E-020
  -2.6599999999999999E-002    -6.6675811128300970E-020
  -2.6550000000000001E-002    -8.6173827781171903E-020
  -2.6500000000000003E-002    -9.9469005406962864E-020
  -2.6450000000000001E-002    -1.0139232130881181E-019
  -2.6400000000000000E-002    -8.6600271612510328E-020
  -2.6349999999999998E-002    -5.1091913887688537E-020
  -2.6300000000000000E-002     5.9840041955417439E-021
  -2.6250000000000002E-002     8.0711198542803188E-020
  -2.6200000000000001E-002     1.6354552337655110E-019
  -2.6150000000000000E-002     2.3971510604194488E-019
  -2.6099999999999998E-002     2.9114990501282400E-019
  -2.6050000000000000E-002     2.9984455072940272E-019
  -2.6000000000000002E-002     2.5213931735002572E-019
  -2.5950000000000001E-002     1.4304141693957144E-019
  -2.5899999999999999E-002    -2.0485295415207151E-020
  -2.5849999999999998E-002    -2.1828311979170657E-019
  -2.5800000000000000E-002    -4.1851356317574444E-019
  -2.5750000000000002E-002    -5.8207279405863776E-019
  -2.5700000000000001E-002    -6.6940186951337739E-019
  -2.5649999999999999E-002    -6.4856208378758842E-019
  -2.5599999999999998E-002    -5.0301891804882183E-019
  -2.5550000000000000E-002    -2.3745970336618704E-019
  -2.5500000000000002E-002     1.1979041864258289E-019
  -2.5450000000000000E-002     5.1862236958088721E-019
  -2.5399999999999999E-002     8.9336286845704862E-019
  -2.5349999999999998E-002     1.1726235833986466E-018
  -2.5300000000000000E-002     1.2913364845187801E-018
  -2.5250000000000002E-002     1.2030620949294976E-018
  -2.5200000000000000E-002     8.9051865542042069E-019
  -2.5149999999999999E-002     3.7246258246172800E-019
  -2.5100000000000001E-002    -2.9450273454027593E-019
  -2.5049999999999999E-002    -1.0199751387406700E-018
  -2.5000000000000001E-002    -1.6897104806434621E-018
  -2.4950000000000000E-002    -2.1807677823848783E-018
  -2.4899999999999999E-002    -2.3803537584030480E-018
  -2.4850000000000001E-002    -2.2061412478090833E-018
  -2.4800000000000003E-002    -1.6252052175149180E-018
  -2.4750000000000001E-002    -6.6828608125130336E-019
  -2.4700000000000000E-002     5.6396253383269891E-019
  -2.4649999999999998E-002     1.9055781288461632E-018
  -2.4600000000000000E-002     3.1423725937057331E-018
  -2.4550000000000002E-002     4.0411790507226954E-018
  -2.4500000000000001E-002     4.3884567112497072E-018
  -2.4450000000000000E-002     4.0328297733286727E-018
  -2.4399999999999998E-002     2.9239820212961991E-018
  -2.4350000000000000E-002     1.1393298002141379E-018
  -2.4299999999999999E-002    -1.1093635756016648E-018
  -2.4250000000000001E-002    -3.4945404060121108E-018
  -2.4199999999999999E-002    -5.6171440959610642E-018
  -2.4150000000000001E-002    -7.0716748111562031E-018
  -2.4100000000000000E-002    -7.5215658281616214E-018
  -2.4049999999999998E-002    -6.7705661251746655E-018
  -2.4000000000000000E-002    -4.8146521730764692E-018
  -2.3949999999999999E-002    -1.8614509844340527E-018
  -2.3900000000000001E-002     1.6900817729783002E-018
  -2.3850000000000000E-002     5.3087461888409848E-018
  -2.3800000000000002E-002     8.4191363102832972E-018
  -2.3750000000000000E-002     1.0501660139445658E-017
  -2.3699999999999999E-002     1.1183969407700880E-017
  -2.3650000000000001E-002     1.0304551607626344E-017
  -2.3599999999999999E-002     7.9354630482976640E-018
  -2.3550000000000001E-002     4.3609709639903028E-018
  -2.3500000000000000E-002     1.9724349466046433E-020
  -2.3449999999999999E-002    -4.5730530708739991E-018
  -2.3400000000000001E-002    -8.9026427552279116E-018
  -2.3349999999999999E-002    -1.2512426334590559E-017
  -2.3300000000000001E-002    -1.5031196637776110E-017
  -2.3250000000000000E-002    -1.6171195481679775E-017
  -2.3199999999999998E-002    -1.5709729802394404E-017
  -2.3150000000000000E-002    -1.3475245845058911E-017
  -2.3099999999999999E-002    -9.3593353485774801E-018
  -2.3050000000000001E-002    -3.3679498383409956E-018
  -2.3000000000000000E-002     4.2906135422638267E-018
  -2.2950000000000002E-002     1.3102609211175337E-017
  -2.2900000000000000E-002     2.2168756907720336E-017
  -2.2849999999999999E-002     3.0193409606700546E-017
  -2.2800000000000001E-002     3.5582902053702459E-017
  -2.2749999999999999E-002     3.6672070080524243E-017
  -2.2700000000000001E-002     3.2064365869994381E-017
  -2.2650000000000000E-002     2.1032356311439126E-017
  -2.2599999999999999E-002     3.8919448310556577E-018
  -2.2550000000000001E-002    -1.7754018004004720E-017
  -2.2499999999999999E-002    -4.1000274553376316E-017
  -2.2450000000000001E-002    -6.1915606659855746E-017
  -2.2400000000000000E-002    -7.6116346274080186E-017
  -2.2349999999999998E-002    -7.9571774443434108E-017
  -2.2300000000000000E-002    -6.9506698685278890E-017
  -2.2249999999999999E-002    -4.5218648306077722E-017
  -2.2200000000000001E-002    -8.6136388688240144E-018
  -2.2150000000000000E-002     3.5705310198028984E-017
  -2.2100000000000002E-002     8.0889346121385388E-017
  -2.2050000000000000E-002     1.1882326150858706E-016
  -2.1999999999999999E-002     1.4150620168079290E-016
  -2.1950000000000001E-002     1.4260500205593553E-016
  -2.1899999999999999E-002     1.1888766055915131E-016
  -2.1850000000000001E-002     7.1235859333304615E-017
  -2.1800000000000000E-002     4.9886287224385150E-018
  -2.1749999999999999E-002    -7.0520492690257197E-017
  -2.1700000000000001E-002    -1.4322433416640101E-016
  -2.1649999999999999E-002    -2.0021606247187163E-016
  -2.1600000000000001E-002    -2.2997596224991096E-016
  -2.1550000000000000E-002    -2.2454685046490625E-016
  -2.1499999999999998E-002    -1.8125523361293757E-016
  -2.1450000000000000E-002    -1.0363510724018771E-016
  -2.1399999999999999E-002    -1.3343980780346837E-018
  -2.1350000000000001E-002     1.1104551183649947E-016
  -2.1299999999999999E-002     2.1604058153410796E-016
  -2.1250000000000002E-002     2.9603906220105706E-016
  -2.1200000000000000E-002     3.3619175824129794E-016
  -2.1149999999999999E-002     3.2703577232341551E-016
  -2.1100000000000001E-002     2.6637449884261533E-016
  -2.1049999999999999E-002     1.6006374282873096E-016
  -2.1000000000000001E-002     2.1519036390129236E-017
  -2.0950000000000000E-002    -1.3003345753146981E-016
  -2.0899999999999998E-002    -2.7232927272196052E-016
  -2.0850000000000000E-002    -3.8344623848154584E-016
  -2.0799999999999999E-002    -4.4525625983900724E-016
  -2.0750000000000001E-002    -4.4637758323701678E-016
  -2.0700000000000000E-002    -3.8411846175383668E-016
  -2.0649999999999998E-002    -2.6506254038639743E-016
  -2.0600000000000000E-002    -1.0417123586718222E-016
  -2.0549999999999999E-002     7.7455997398542441E-017
  -2.0500000000000001E-002     2.5577553341075708E-016
  -2.0449999999999999E-002     4.0737954636052652E-016
  -2.0400000000000001E-002     5.1281889155615921E-016
  -2.0350000000000000E-002     5.5908816798562328E-016
  -2.0299999999999999E-002     5.4087751457572761E-016
  -2.0250000000000001E-002     4.6047557405099515E-016
  -2.0199999999999999E-002     3.2652069095622041E-016
  -2.0150000000000001E-002     1.5205337639562940E-016
  -2.0100000000000000E-002    -4.7530987479569710E-017
  -2.0049999999999998E-002    -2.5605629346784826E-016
  -2.0000000000000000E-002    -4.5730155473115687E-016
  -1.9949999999999999E-002    -6.3487056031142641E-016
  -1.9900000000000001E-002    -7.7154807168076917E-016
  -1.9850000000000000E-002    -8.4881583089974420E-016
  -1.9799999999999998E-002    -8.4731452181656200E-016
  -1.9750000000000000E-002    -7.4891751061281398E-016
  -1.9699999999999999E-002    -5.4064374366019998E-016
  -1.9650000000000001E-002    -2.2002093317311559E-016
  -1.9599999999999999E-002     1.9918794266315770E-016
  -1.9550000000000001E-002     6.8253740429952457E-016
  -1.9500000000000000E-002     1.1735884505457274E-015
  -1.9449999999999999E-002     1.5973297883830626E-015
  -1.9400000000000001E-002     1.8691224861291915E-015
  -1.9349999999999999E-002     1.9087179937583451E-015
  -1.9300000000000001E-002     1.6574892303656924E-015
  -1.9250000000000000E-002     1.0956889424257864E-015
  -1.9199999999999998E-002     2.5578324299098485E-016
  -1.9150000000000000E-002    -7.7209443754767863E-016
  -1.9099999999999999E-002    -1.8455337362266629E-015
  -1.9050000000000001E-002    -2.7871654424394458E-015
  -1.9000000000000000E-002    -3.4125052481663875E-015
  -1.8949999999999998E-002    -3.5643070585496590E-015
  -1.8900000000000000E-002    -3.1472922834093159E-015
  -1.8849999999999999E-002    -2.1560522005035690E-015
  -1.8800000000000001E-002    -6.8927894063592782E-016
  -1.8749999999999999E-002     1.0545781904702500E-015
  -1.8700000000000001E-002     2.8018646852885520E-015
  -1.8650000000000000E-002     4.2461032150639351E-015
  -1.8599999999999998E-002     5.1018313374264329E-015
  -1.8550000000000001E-002     5.1604637019299817E-015
  -1.8499999999999999E-002     4.3373153932896345E-015
  -1.8450000000000001E-002     2.6996880734041382E-015
  -1.8400000000000000E-002     4.6877062577489788E-016
  -1.8349999999999998E-002    -2.0072771962219284E-015
  -1.8300000000000000E-002    -4.3062219208136103E-015
  -1.8249999999999999E-002    -6.0024879443040391E-015
  -1.8200000000000001E-002    -6.7436344909709445E-015
  -1.8149999999999999E-002    -6.3186549469236974E-015
  -1.8100000000000002E-002    -4.7050559537482015E-015
  -1.8050000000000000E-002    -2.0850516882394517E-015
  -1.7999999999999999E-002     1.1732879617888945E-015
  -1.7950000000000001E-002     4.5678614768450295E-015
  -1.7899999999999999E-002     7.5390620964779841E-015
  -1.7850000000000001E-002     9.5582331050959106E-015
  -1.7800000000000000E-002     1.0213009173204076E-014
  -1.7749999999999998E-002     9.2751749248433254E-015
  -1.7700000000000000E-002     6.7399281386720270E-015
  -1.7649999999999999E-002     2.8307375135443903E-015
  -1.7600000000000001E-002    -2.0297924517269520E-015
  -1.7550000000000000E-002    -7.2768146376130276E-015
  -1.7499999999999998E-002    -1.2277130269566941E-014
  -1.7450000000000000E-002    -1.6407346851986408E-014
  -1.7399999999999999E-002    -1.9123985185608331E-014
  -1.7350000000000001E-002    -2.0016207914523488E-014
  -1.7299999999999999E-002    -1.8836412529590246E-014
  -1.7250000000000001E-002    -1.5509147494804531E-014
  -1.7200000000000000E-002    -1.0123359946580598E-014
  -1.7149999999999999E-002    -2.9158135969836212E-015
  -1.7100000000000001E-002     5.7458918133694021E-015
  -1.7049999999999999E-002     1.5374381018559993E-014
  -1.7000000000000001E-002     2.5365447455131746E-014
  -1.6950000000000000E-002     3.4995890528008823E-014
  -1.6899999999999998E-002     4.3424261058253505E-014
  -1.6850000000000000E-002     4.9705863945578478E-014
  -1.6799999999999999E-002     5.2833771170764275E-014
  -1.6750000000000001E-002     5.1814558164540288E-014
  -1.6700000000000000E-002     4.5780751716928736E-014
  -1.6649999999999998E-002     3.4133171736318483E-014
  -1.6600000000000000E-002     1.6696229775949724E-014
  -1.6549999999999999E-002    -6.1389234799568755E-015
  -1.6500000000000001E-002    -3.3313479797711095E-014
  -1.6449999999999999E-002    -6.3071351734597668E-014
  -1.6400000000000001E-002    -9.3022730396212084E-014
  -1.6350000000000000E-002    -1.2030967634085544E-013
  -1.6299999999999999E-002    -1.4186457228527227E-013
  -1.6250000000000001E-002    -1.5473465052118515E-013
  -1.6199999999999999E-002    -1.5642914616947495E-013
  -1.6150000000000001E-002    -1.4523688092266441E-013
  -1.6100000000000000E-002    -1.2046213204490849E-013
  -1.6049999999999998E-002    -8.2537329056596380E-014
  -1.6000000000000000E-002    -3.2991666998888769E-014
  -1.5949999999999999E-002     2.5718544167061277E-014
  -1.5900000000000001E-002     9.0483875604529456E-014
  -1.5850000000000000E-002     1.5786377587758863E-013
  -1.5799999999999998E-002     2.2438691267005855E-013
  -1.5750000000000000E-002     2.8676437009737228E-013
  -1.5699999999999999E-002     3.4196631459260569E-013
  -1.5650000000000001E-002     3.8714746599532586E-013
  -1.5599999999999999E-002     4.1944390708189062E-013
  -1.5550000000000001E-002     4.3570487083174494E-013
  -1.5500000000000000E-002     4.3225262450592256E-013
  -1.5449999999999998E-002     4.0477618550112632E-013
  -1.5400000000000000E-002     3.4845398920008943E-013
  -1.5349999999999999E-002     2.5836822743506243E-013
  -1.5300000000000001E-002     1.3022030294971394E-013
  -1.5250000000000000E-002    -3.8705255247307221E-014
  -1.5199999999999998E-002    -2.4844227857274205E-013
  -1.5150000000000000E-002    -4.9527103273694900E-013
  -1.5099999999999999E-002    -7.7085761298324548E-013
  -1.5050000000000001E-002    -1.0617816164938791E-012
  -1.4999999999999999E-002    -1.3495917084426111E-012
  -1.4949999999999998E-002    -1.6114653842368843E-012
  -1.4900000000000000E-002    -1.8214715849904241E-012
  -1.4849999999999999E-002    -1.9523560499906483E-012
  -1.4800000000000001E-002    -1.9777035573208194E-012
  -1.4749999999999999E-002    -1.8742876779034071E-012
  -1.4700000000000001E-002    -1.6244048486735567E-012
  -1.4650000000000000E-002    -1.2180048419169710E-012
  -1.4599999999999998E-002    -6.5446485709625686E-013
  -1.4550000000000000E-002     5.6097400482921256E-014
  -1.4499999999999999E-002     8.9202861218691819E-013
  -1.4450000000000001E-002     1.8198863571390596E-012
  -1.4400000000000000E-002     2.7947336911935200E-012
  -1.4349999999999998E-002     3.7609912179487696E-012
  -1.4300000000000000E-002     4.6538759419679273E-012
  -1.4249999999999999E-002     5.4014742573591771E-012
  -1.4200000000000001E-002     5.9275167176065792E-012
  -1.4149999999999999E-002     6.1549034398045913E-012
  -1.4099999999999998E-002     6.0100098804470915E-012
  -1.4050000000000000E-002     5.4277158365193817E-012
  -1.3999999999999999E-002     4.3570331447745578E-012
  -1.3950000000000001E-002     2.7670859374849893E-012
  -1.3899999999999999E-002     6.5310679292080818E-013
  -1.3850000000000001E-002    -1.9579618044910375E-012
  -1.3800000000000000E-002    -5.0027056729745943E-012
  -1.3749999999999998E-002    -8.3777584774012362E-012
  -1.3700000000000000E-002    -1.1937955188532117E-011
  -1.3649999999999999E-002    -1.5496373493224633E-011
  -1.3600000000000001E-002    -1.8826367168527750E-011
  -1.3550000000000000E-002    -2.1665533662932872E-011
  -1.3499999999999998E-002    -2.3721419296375306E-011
  -1.3450000000000000E-002    -2.4678625242281085E-011
  -1.3399999999999999E-002    -2.4206929676984321E-011
  -1.3350000000000001E-002    -2.1970009323791975E-011
  -1.3299999999999999E-002    -1.7634386194362325E-011
  -1.3249999999999998E-002    -1.0878272663490738E-011
  -1.3200000000000000E-002    -1.4000769970151306E-012
  -1.3149999999999998E-002     1.1073568653314376E-011
  -1.3100000000000001E-002     2.6780352395513253E-011
  -1.3049999999999999E-002     4.5915458851373141E-011
  -1.3000000000000001E-002     6.8625509475283891E-011
  -1.2950000000000000E-002     9.5003413484566055E-011
  -1.2899999999999998E-002     1.2508428469153435E-010
  -1.2850000000000000E-002     1.5884294966139132E-010
  -1.2799999999999999E-002     1.9619320905198435E-010