  -4.0000000000000001E-002     0.0000000000000000     
  -3.9949999999999999E-002     0.0000000000000000     
  -3.9899999999999998E-002     0.0000000000000000     
  -3.9850000000000003E-002     0.0000000000000000     
  -3.9800000000000002E-002     0.0000000000000000     
  -3.9750000000000001E-002     0.0000000000000000     
  -3.9699999999999999E-002     0.0000000000000000     
  -3.9649999999999998E-002     0.0000000000000000     
  -3.9600000000000003E-002     0.0000000000000000     
  -3.9550000000000002E-002     0.0000000000000000     
  -3.9500000000000000E-002     0.0000000000000000     
  -3.9449999999999999E-002     0.0000000000000000     
  -3.9399999999999998E-002     0.0000000000000000     
  -3.9350000000000003E-002     0.0000000000000000     
  -3.9300000000000002E-002     0.0000000000000000     
  -3.9250000000000000E-002     0.0000000000000000     
  -3.9199999999999999E-002     0.0000000000000000     
  -3.9150000000000004E-002     0.0000000000000000     
  -3.9100000000000003E-002     0.0000000000000000     
  -3.9050000000000001E-002     0.0000000000000000     
  -3.9000000000000000E-002     0.0000000000000000     
  -3.8949999999999999E-002     0.0000000000000000     
  -3.8900000000000004E-002     0.0000000000000000     
  -3.8850000000000003E-002     0.0000000000000000     
  -3.8800000000000001E-002     0.0000000000000000     
  -3.8750000000000000E-002     0.0000000000000000     
  -3.8699999999999998E-002     0.0000000000000000     
  -3.8650000000000004E-002     0.0000000000000000     
  -3.8600000000000002E-002     0.0000000000000000     
  -3.8550000000000001E-002     0.0000000000000000     
  -3.8500000000000000E-002     0.0000000000000000     
  -3.8449999999999998E-002     0.0000000000000000     
  -3.8400000000000004E-002     0.0000000000000000     
  -3.8350000000000002E-002     0.0000000000000000     
  -3.8300000000000001E-002     0.0000000000000000     
  -3.8249999999999999E-002     0.0000000000000000     
  -3.8199999999999998E-002     0.0000000000000000     
  -3.8150000000000003E-002     0.0000000000000000     
  -3.8100000000000002E-002     0.0000000000000000     
  -3.8050000000000000E-002     0.0000000000000000     
  -3.7999999999999999E-002     0.0000000000000000     
  -3.7949999999999998E-002     0.0000000000000000     
  -3.7900000000000003E-002     0.0000000000000000     
  -3.7850000000000002E-002     0.0000000000000000     
  -3.7800000000000000E-002     0.0000000000000000     
  -3.7749999999999999E-002     0.0000000000000000     
  -3.7699999999999997E-002     0.0000000000000000     
  -3.7650000000000003E-002     0.0000000000000000     
  -3.7600000000000001E-002     0.0000000000000000     
  -3.7550000000000000E-002     0.0000000000000000     
  -3.7499999999999999E-002     0.0000000000000000     
  -3.7449999999999997E-002     0.0000000000000000     
  -3.7400000000000003E-002     0.0000000000000000     
  -3.7350000000000001E-002     0.0000000000000000     
  -3.7300000000000000E-002     0.0000000000000000     
  -3.7249999999999998E-002     0.0000000000000000     
  -3.7200000000000004E-002     0.0000000000000000     
  -3.7150000000000002E-002     0.0000000000000000     
  -3.7100000000000001E-002     0.0000000000000000     
  -3.7050000000000000E-002     0.0000000000000000     
  -3.6999999999999998E-002     0.0000000000000000     
  -3.6950000000000004E-002     0.0000000000000000     
  -3.6900000000000002E-002     0.0000000000000000     
  -3.6850000000000001E-002     0.0000000000000000     
  -3.6799999999999999E-002     0.0000000000000000     
  -3.6749999999999998E-002     0.0000000000000000     
  -3.6700000000000003E-002     0.0000000000000000     
  -3.6650000000000002E-002     0.0000000000000000     
  -3.6600000000000001E-002     0.0000000000000000     
  -3.6549999999999999E-002     0.0000000000000000     
  -3.6499999999999998E-002     0.0000000000000000     
  -3.6450000000000003E-002     0.0000000000000000     
  -3.6400000000000002E-002     0.0000000000000000     
  -3.6350000000000000E-002     0.0000000000000000     
  -3.6299999999999999E-002     0.0000000000000000     
  -3.6249999999999998E-002     0.0000000000000000     
  -3.6200000000000003E-002     0.0000000000000000     
  -3.6150000000000002E-002     0.0000000000000000     
  -3.6100000000000000E-002     0.0000000000000000     
  -3.6049999999999999E-002     0.0000000000000000     
  -3.6000000000000004E-002     0.0000000000000000     
  -3.5950000000000003E-002     0.0000000000000000     
  -3.5900000000000001E-002     0.0000000000000000     
  -3.5850000000000000E-002     0.0000000000000000     
  -3.5799999999999998E-002     0.0000000000000000     
  -3.5750000000000004E-002     0.0000000000000000     
  -3.5700000000000003E-002     0.0000000000000000     
  -3.5650000000000001E-002     0.0000000000000000     
  -3.5600000000000000E-002     0.0000000000000000     
  -3.5549999999999998E-002     0.0000000000000000     
  -3.5500000000000004E-002     0.0000000000000000     
  -3.5450000000000002E-002     0.0000000000000000     
  -3.5400000000000001E-002     0.0000000000000000     
  -3.5349999999999999E-002     0.0000000000000000     
  -3.5299999999999998E-002     0.0000000000000000     
  -3.5250000000000004E-002     0.0000000000000000     
  -3.5200000000000002E-002     0.0000000000000000     
  -3.5150000000000001E-002     0.0000000000000000     
  -3.5099999999999999E-002     0.0000000000000000     
  -3.5049999999999998E-002     0.0000000000000000     
  -3.5000000000000003E-002     0.0000000000000000     
  -3.4950000000000002E-002     0.0000000000000000     
  -3.4900000000000000E-002     0.0000000000000000     
  -3.4849999999999999E-002     0.0000000000000000     
  -3.4799999999999998E-002     0.0000000000000000     
  -3.4750000000000003E-002     0.0000000000000000     
  -3.4700000000000002E-002     0.0000000000000000     
  -3.4650000000000000E-002     0.0000000000000000     
  -3.4599999999999999E-002     0.0000000000000000     
  -3.4549999999999997E-002     0.0000000000000000     
  -3.4500000000000003E-002     0.0000000000000000     
  -3.4450000000000001E-002     0.0000000000000000     
  -3.4400000000000000E-002     0.0000000000000000     
  -3.4349999999999999E-002     9.4062480168272690E-040
  -3.4299999999999997E-002     9.4062480168272690E-040
  -3.4250000000000003E-002     9.4062480168272690E-040
  -3.4200000000000001E-002    -7.3864916502186487E-040
  -3.4150000000000000E-002    -3.6451101845022660E-039
  -3.4099999999999998E-002    -8.8970370840747730E-039
  -3.4049999999999997E-002    -1.4340411111267833E-038
  -3.4000000000000002E-002    -1.7946329226428465E-038
  -3.3950000000000001E-002    -1.6148137351659338E-038
  -3.3900000000000000E-002    -5.4201717248478085E-040
  -3.3849999999999998E-002     2.9210377633686307E-038
  -3.3799999999999997E-002     7.9825251709443495E-038
  -3.3750000000000002E-002     1.2473742960363791E-037
  -3.3700000000000001E-002     1.5323024691156522E-037
  -3.3649999999999999E-002     1.4112844704183894E-037
  -3.3599999999999998E-002     8.3699861553746965E-038
  -3.3550000000000003E-002    -3.3553624784273203E-038
  -3.3500000000000002E-002    -2.1452453385816471E-037
  -3.3450000000000001E-002    -4.5709928139008213E-037
  -3.3399999999999999E-002    -6.7605181826917287E-037
  -3.3349999999999998E-002    -8.0721798172060334E-037
  -3.3300000000000003E-002    -7.4795952692057754E-037
  -3.3250000000000002E-002    -4.5839139217016764E-037
  -3.3200000000000000E-002     7.6184133557385022E-038
  -3.3149999999999999E-002     7.9498243924742204E-037
  -3.3099999999999997E-002     1.5757234311626283E-036
  -3.3050000000000003E-002     2.2583606840865177E-036
  -3.3000000000000002E-002     2.6861549175481930E-036
  -3.2950000000000000E-002     2.7579809317264690E-036
  -3.2899999999999999E-002     2.4557290515085416E-036
  -3.2850000000000004E-002     1.8345948756605415E-036
  -3.2800000000000003E-002     9.5350153176012277E-037
  -3.2750000000000001E-002    -2.2152941768024841E-037
  -3.2700000000000000E-002    -1.9286675887890360E-036
  -3.2649999999999998E-002    -4.6467661630919101E-036
  -3.2600000000000004E-002    -8.9349729935715869E-036
  -3.2550000000000003E-002    -1.5085573599209081E-035
  -3.2500000000000001E-002    -2.2623834757869380E-035
  -3.2450000000000000E-002    -2.9804248108995356E-035
  -3.2399999999999998E-002    -3.3380374675773355E-035
  -3.2350000000000004E-002    -2.8932826703043430E-035
  -3.2300000000000002E-002    -1.1930734548481005E-035
  -3.2250000000000001E-002     2.0552567095535181E-035
  -3.2199999999999999E-002     6.7884657114733735E-035
  -3.2149999999999998E-002     1.2438942641938127E-034
  -3.2100000000000004E-002     1.7908580408677385E-034
  -3.2050000000000002E-002     2.1716355730385765E-034
  -3.2000000000000001E-002     2.2301835006891320E-034
  -3.1949999999999999E-002     1.8388142798796129E-034
  -3.1899999999999998E-002     9.2478097701903038E-035
  -3.1850000000000003E-002    -5.2752224006162803E-035
  -3.1800000000000002E-002    -2.5023017227564289E-034
  -3.1750000000000000E-002    -4.9892911990457380E-034
  -3.1699999999999999E-002    -7.9927323148712861E-034
  -3.1649999999999998E-002    -1.1461787703675937E-033
  -3.1600000000000003E-002    -1.5106172471243533E-033
  -3.1550000000000002E-002    -1.8110952885888901E-033
  -3.1500000000000000E-002    -1.8846421802466516E-033
  -3.1449999999999999E-002    -1.4758739117955193E-033
  -3.1399999999999997E-002    -2.6808327272228191E-034
  -3.1350000000000003E-002     2.0231741908927234E-033
  -3.1300000000000001E-002     5.4898855329779223E-033
  -3.1250000000000000E-002     9.8300479605568149E-033
  -3.1199999999999999E-002     1.4166456870738450E-032
  -3.1150000000000001E-002     1.6978364887534966E-032
  -3.1100000000000003E-002     1.6247128211428691E-032
  -3.1050000000000001E-002     9.8875989246189292E-033
  -3.1000000000000000E-002    -3.5374115036673860E-033
  -3.0949999999999998E-002    -2.3933418768796276E-032
  -3.0900000000000000E-002    -4.8856104635704657E-032
  -3.0850000000000002E-002    -7.3081529595909282E-032
  -3.0800000000000001E-002    -8.8895924503201458E-032
  -3.0750000000000000E-002    -8.7329977543595808E-032
  -3.0699999999999998E-002    -6.0337046324255457E-032
  -3.0650000000000000E-002    -3.6074324566016166E-033
  -3.0600000000000002E-002     8.0600415460908635E-032
  -3.0550000000000001E-002     1.8144376704928662E-031
  -3.0499999999999999E-002     2.7914676379372695E-031
  -3.0449999999999998E-002     3.4694548412844134E-031
  -3.0400000000000000E-002     3.5549910839111749E-031
  -3.0350000000000002E-002     2.7934670622727380E-031
  -3.0300000000000001E-002     1.0440142620201398E-031
  -3.0249999999999999E-002    -1.6495880288759224E-031
  -3.0200000000000001E-002    -5.0081944689492766E-031
  -3.0150000000000000E-002    -8.5017953211104465E-031
  -3.0100000000000002E-002    -1.1380840697617445E-030
  -3.0050000000000000E-002    -1.2761090694067715E-030
  -2.9999999999999999E-002    -1.1762931075805106E-030
  -2.9950000000000001E-002    -7.6990272201336800E-031
  -2.9899999999999999E-002    -2.9472197577644996E-032
  -2.9850000000000002E-002     1.0087742371267964E-030
  -2.9800000000000000E-002     2.2266982120697620E-030
  -2.9749999999999999E-002     3.4165174089644657E-030
  -2.9700000000000001E-002     4.2908776832952108E-030
  -2.9650000000000003E-002     4.5172979956631843E-030
  -2.9600000000000001E-002     3.7800978953499296E-030
  -2.9550000000000000E-002     1.8662833091568656E-030
  -2.9499999999999998E-002    -1.2372837786487023E-030
  -2.9450000000000000E-002    -5.2576757405597401E-030
  -2.9400000000000003E-002    -9.5896533959960647E-030
  -2.9350000000000001E-002    -1.3318637046893801E-029
  -2.9300000000000000E-002    -1.5333128665937185E-029
  -2.9249999999999998E-002    -1.4528210418189561E-029
  -2.9200000000000000E-002    -1.0076486524963206E-029
  -2.9150000000000002E-002    -1.7172101261550210E-030
  -2.9100000000000001E-002     1.0003478517695807E-029
  -2.9049999999999999E-002     2.3610992988761680E-029
  -2.8999999999999998E-002     3.6753431475805252E-029
  -2.8950000000000000E-002     4.6447581805416047E-029
  -2.8900000000000002E-002     4.9502983013126122E-029
  -2.8850000000000001E-002     4.3073080490085947E-029
  -2.8799999999999999E-002     2.5264085165907436E-029
  -2.8749999999999998E-002    -4.2675275792452714E-030
  -2.8700000000000000E-002    -4.3786119980768549E-029
  -2.8650000000000002E-002    -8.9067696913290190E-029
  -2.8600000000000000E-002    -1.3318077046113624E-028
  -2.8549999999999999E-002    -1.6658234128816008E-028
  -2.8500000000000001E-002    -1.7773143217015748E-028
  -2.8450000000000000E-002    -1.5448160047903559E-028
  -2.8400000000000002E-002    -8.6486423524319409E-029
  -2.8350000000000000E-002     3.1328952584791383E-029
  -2.8299999999999999E-002     1.9455218949726642E-028
  -2.8250000000000001E-002     3.8518085132381315E-028
  -2.8200000000000003E-002     5.6905809918388094E-028
  -2.8150000000000001E-002     6.9664925774362914E-028
  -2.8100000000000000E-002     7.0888291561908775E-028
  -2.8049999999999999E-002     5.4900606113716813E-028
  -2.8000000000000001E-002     1.7986763308513965E-028
  -2.7950000000000003E-002    -3.9608402448420337E-028
  -2.7900000000000001E-002    -1.1190356184148105E-027
  -2.7850000000000000E-002    -1.8628246300807917E-027
  -2.7799999999999998E-002    -2.4414225556694327E-027
  -2.7750000000000000E-002    -2.6355886299825777E-027
  -2.7700000000000002E-002    -2.2400822073610787E-027
  -2.7650000000000001E-002    -1.1256956055512631E-027
  -2.7600000000000000E-002     6.9627450291631769E-028
  -2.7549999999999998E-002     3.0247557434503738E-027
  -2.7500000000000000E-002     5.4542024205597064E-027
  -2.7450000000000002E-002     7.4103937511582243E-027
  -2.7400000000000001E-002     8.2434295044201583E-027
  -2.7349999999999999E-002     7.3706443976390306E-027
  -2.7299999999999998E-002     4.4462244111120905E-027
  -2.7250000000000000E-002    -4.7959392458001126E-028
  -2.7200000000000002E-002    -6.8560868173201387E-027
  -2.7150000000000001E-002    -1.3623725091127762E-026
  -2.7099999999999999E-002    -1.9328512839349181E-026
  -2.7049999999999998E-002    -2.2360425100821762E-026
  -2.7000000000000000E-002    -2.1286673101437983E-026
  -2.6950000000000002E-002    -1.5221387657593887E-026
  -2.6900000000000000E-002    -4.1534224297467813E-027
  -2.6849999999999999E-002     1.0849850299880744E-026
  -2.6800000000000001E-002     2.7629908847258516E-026
  -2.6749999999999999E-002     4.3150363032716856E-026
  -2.6700000000000002E-002     5.3927440663986424E-026
  -2.6650000000000000E-002     5.6623939297145085E-026
  -2.6599999999999999E-002     4.8716495693313268E-026
  -2.6550000000000001E-002     2.9126140230856789E-026
  -2.6500000000000003E-002    -1.2978931025398175E-027
  -2.6450000000000001E-002    -3.9533378999155504E-026
  -2.6400000000000000E-002    -8.0442805845459838E-026
  -2.6349999999999998E-002    -1.1716486255133947E-025
  -2.6300000000000000E-002    -1.4184179798222581E-025
  -2.6250000000000002E-002    -1.4665860686139157E-025
  -2.6200000000000001E-002    -1.2514217759832871E-025
  -2.6150000000000000E-002    -7.3629234305243795E-026
  -2.6099999999999998E-002     7.2474690759822042E-027
  -2.6050000000000000E-002     1.1128383188958523E-025
  -2.6000000000000002E-002     2.2595455295076696E-025
  -2.5950000000000001E-002     3.3256548604251018E-025
  -2.5899999999999999E-002     4.0768108860517586E-025
  -2.5849999999999998E-002     4.2608889903883814E-025
  -2.5800000000000000E-002     3.6531429927356935E-025
  -2.5750000000000002E-002     2.1131825521270147E-025
  -2.5700000000000001E-002    -3.5452343505647449E-026
  -2.5649999999999999E-002    -3.5493840615263566E-025
  -2.5599999999999998E-002    -7.0483813639109924E-025
  -2.5550000000000000E-002    -1.0220424670978455E-024
  -2.5500000000000002E-002    -1.2292960320920016E-024
  -2.5450000000000000E-002    -1.2473839598322133E-024
  -2.5399999999999999E-002    -1.0119054701256583E-024
  -2.5349999999999998E-002    -4.9227392843114740E-025
  -2.5300000000000000E-002     2.9072593618459148E-025
  -2.5250000000000002E-002     1.2533153840926998E-024
  -2.5200000000000000E-002     2.2475276478212783E-024
  -2.5149999999999999E-002     3.0738692481649749E-024
  -2.5100000000000001E-002     3.5090961951348335E-024
  -2.5049999999999999E-002     3.3472973417070917E-024
  -2.5000000000000001E-002     2.4489782191981784E-024
  -2.4950000000000000E-002     7.8962395823380376E-025
  -2.4899999999999999E-002    -1.5029549511417173E-024
  -2.4850000000000001E-002    -4.1335532996914944E-024
  -2.4800000000000003E-002    -6.6558833531350873E-024
  -2.4750000000000001E-002    -8.5249737616292972E-024
  -2.4700000000000000E-002    -9.1838733399676750E-024
  -2.4649999999999998E-002    -8.1752188407815247E-024
  -2.4600000000000000E-002    -5.2606941048028579E-024
  -2.4550000000000002E-002    -5.2567866905775627E-025
  -2.4500000000000001E-002     5.5560326312376229E-024
  -2.4450000000000000E-002     1.2120334862961537E-023
  -2.4399999999999998E-002     1.7989238013076184E-023
  -2.4350000000000000E-002     2.1828851536663190E-023
  -2.4299999999999999E-002     2.2376466546867390E-023
  -2.4250000000000001E-002     1.8707513190036746E-023
  -2.4199999999999999E-002     1.0498551662181119E-023
  -2.4150000000000001E-002    -1.7666859213029657E-024
  -2.4100000000000000E-002    -1.6701785677903119E-023
  -2.4049999999999998E-002    -3.2076316237320904E-023
  -2.4000000000000000E-002    -4.5051672069214713E-023
  -2.3949999999999999E-002    -5.2587389655621550E-023
  -2.3900000000000001E-002    -5.1976739806383023E-023
  -2.3850000000000000E-002    -4.1436662670064118E-023
  -2.3800000000000002E-002    -2.0651001590333747E-023
  -2.3750000000000000E-002     8.8457585418941419E-024
  -2.3699999999999999E-002     4.3549875942444470E-023
  -2.3650000000000001E-002     7.8211605143681423E-023
  -2.3599999999999999E-002     1.0642855505608857E-022
  -2.3550000000000001E-002     1.2157446491083713E-022
  -2.3500000000000000E-002     1.1796095413838369E-022
  -2.3449999999999999E-002     9.2068022023147521E-023
  -2.3400000000000001E-002     4.3636453035802978E-023
  -2.3349999999999999E-002    -2.3599016733811066E-023
  -2.3300000000000001E-002    -1.0173451268187881E-022
  -2.3250000000000000E-002    -1.7921913294379104E-022
  -2.3199999999999998E-002    -2.4212010277197787E-022
  -2.3150000000000000E-002    -2.7605998902840010E-022
  -2.3099999999999999E-002    -2.6862967081227038E-022
  -2.3050000000000001E-002    -2.1196436042289010E-022
  -2.3000000000000000E-002    -1.0508256073877362E-022
  -2.2950000000000002E-002     4.4452957095532861E-023
  -2.2900000000000000E-002     2.1997303736382950E-022
  -2.2849999999999999E-002     3.9656954292403033E-022
  -2.2800000000000001E-002     5.4356016477111870E-022
  -2.2749999999999999E-002     6.2849535015307900E-022
  -2.2700000000000001E-002     6.2238025779142077E-022
  -2.2650000000000000E-002     5.0550592087895755E-022
  -2.2599999999999999E-002     2.7303137322373830E-022
  -2.2550000000000001E-002    -6.0710605734640942E-023
  -2.2499999999999999E-002    -4.6024900779949210E-022
  -2.2450000000000001E-002    -8.7027228092509778E-022
  -2.2400000000000000E-002    -1.2207645121962539E-021
  -2.2349999999999998E-002    -1.4360059935573409E-021
  -2.2300000000000000E-002    -1.4467664446180259E-021
  -2.2249999999999999E-002    -1.2042547491747850E-021
  -2.2200000000000001E-002    -6.9369510044514952E-022
  -2.2150000000000000E-002     5.5068082929356440E-023
  -2.2100000000000002E-002     9.6262415226296225E-022
  -2.2050000000000000E-002     1.9029842555503681E-021
  -2.1999999999999999E-002     2.7158286083179395E-021
  -2.1950000000000001E-002     3.2278815260172026E-021
  -2.1899999999999999E-002     3.2815189140123059E-021
  -2.1850000000000001E-002     2.7668919337877492E-021
  -2.1800000000000000E-002     1.6523421787239941E-021
  -2.1749999999999999E-002     7.0548971417822864E-024
  -2.1700000000000001E-002    -1.9899400987527083E-021
  -2.1649999999999999E-002    -4.0589871629904007E-021
  -2.1600000000000001E-002    -5.8493118462611783E-021
  -2.1550000000000000E-002    -6.9875004682340669E-021
  -2.1499999999999998E-002    -7.1398504431365727E-021
  -2.1450000000000000E-002    -6.0798975993786046E-021
  -2.1399999999999999E-002    -3.7498419446878784E-021
  -2.1350000000000001E-002    -3.0359609780505007E-022
  -2.1299999999999999E-002     3.8797030919393113E-021
  -2.1250000000000002E-002     8.2195375085105776E-021
  -2.1200000000000000E-002     1.1997681863726896E-020
  -2.1149999999999999E-002     1.4457535769003982E-020
  -2.1100000000000001E-002     1.4927932094822945E-020
  -2.1049999999999999E-002     1.2954090396442065E-020
  -2.1000000000000001E-002     8.4143304483010038E-021
  -2.0950000000000000E-002     1.6001207897412240E-021
  -2.0899999999999998E-002    -6.7602337760212289E-021
  -2.0850000000000000E-002    -1.5547579933933602E-020
  -2.0799999999999999E-002    -2.3371252999749790E-020
  -2.0750000000000001E-002    -2.8753810705099377E-020
  -2.0700000000000000E-002    -3.0361195620552189E-020
  -2.0649999999999998E-002    -2.7247797369184325E-020
  -2.0600000000000000E-002    -1.9078768906825959E-020
  -2.0549999999999999E-002    -6.2897709723324349E-021
  -2.0500000000000001E-002     9.8518426092046281E-021
  -2.0449999999999999E-002     2.7310214897519202E-020
  -2.0400000000000001E-002     4.3478796388081527E-020
  -2.0350000000000000E-002     5.5503172616202028E-020
  -2.0299999999999999E-002     6.0698195124343260E-020
  -2.0250000000000001E-002     5.7008808193600588E-020
  -2.0199999999999999E-002     4.3448831573687031E-020
  -2.0150000000000001E-002     2.0444533086577462E-020
  -2.0100000000000000E-002    -9.9875428327820940E-021
  -2.0049999999999998E-002    -4.4284904368954122E-020
  -2.0000000000000000E-002    -7.7636919207990155E-020
  -1.9949999999999999E-002    -1.0453288250109549E-019
  -1.9900000000000001E-002    -1.1951746814978082E-019
  -1.9850000000000000E-002    -1.1807030844042469E-019
  -1.9799999999999998E-002    -9.7492194999789625E-020
  -1.9750000000000000E-002    -5.7658373113413619E-020
  -1.9699999999999999E-002    -1.4955998109687842E-021
  -1.9650000000000001E-002     6.4942409092880732E-020
  -1.9599999999999999E-002     1.3288518122472859E-019
  -1.9550000000000001E-002     1.9176295623487450E-019
  -1.9500000000000000E-002     2.3057603334586697E-019
  -1.9449999999999999E-002     2.3957725861978421E-019
  -1.9400000000000001E-002     2.1205461906825211E-019
  -1.9349999999999999E-002     1.4594446927728932E-019
  -1.9300000000000001E-002     4.4985210490253650E-020
  -1.9250000000000000E-002    -8.0857077158522781E-020
  -1.9199999999999998E-002    -2.1589048055800931E-019
  -1.9150000000000000E-002    -3.4021021585299740E-019
  -1.9099999999999999E-002    -4.3215729308871314E-019
  -1.9050000000000001E-002    -4.7149103981218211E-019
  -1.9000000000000000E-002    -4.4288542001439802E-019
  -1.8949999999999998E-002    -3.3923728101718111E-019
  -1.8900000000000000E-002    -1.6421598299603901E-019
  -1.8849999999999999E-002     6.6491943528555137E-020
  -1.8800000000000001E-002     3.2566762544266801E-019
  -1.8749999999999999E-002     5.7698938921049998E-019
  -1.8700000000000001E-002     7.7933688344124856E-019
  -1.8650000000000000E-002     8.9258264339763625E-019
  -1.8599999999999998E-002     8.8417291751015903E-019
  -1.8550000000000001E-002     7.3555912600512385E-019
  -1.8499999999999999E-002     4.4741339817443522E-019
  -1.8450000000000001E-002     4.2590368090664645E-020
  -1.8400000000000000E-002    -4.3399585119985584E-019
  -1.8349999999999998E-002    -9.1903746273396246E-019
  -1.8300000000000000E-002    -1.3379957610941683E-018
  -1.8249999999999999E-002    -1.6151382970114407E-018
  -1.8200000000000001E-002    -1.6852790581589675E-018
  -1.8149999999999999E-002    -1.5056011583977371E-018
  -1.8100000000000002E-002    -1.0657006773421093E-018
  -1.8050000000000000E-002    -3.9401191299152017E-019
  -1.7999999999999999E-002     4.4091174579256466E-019
  -1.7950000000000001E-002     1.3351742351889758E-018
  -1.7899999999999999E-002     2.1604714859645631E-018
  -1.7850000000000001E-002     2.7803307137005964E-018
  -1.7800000000000000E-002     3.0698675486766003E-018
  -1.7749999999999998E-002     2.9365040020356834E-018
  -1.7700000000000000E-002     2.3386102378672153E-018
  -1.7649999999999999E-002     1.2989679375798178E-018
  -1.7600000000000001E-002    -8.9667877907976721E-020
  -1.7550000000000000E-002    -1.6687837713818219E-018
  -1.7499999999999998E-002    -3.2287571507583358E-018
  -1.7450000000000000E-002    -4.5331252354266327E-018
  -1.7399999999999999E-002    -5.3501448530960359E-018
  -1.7350000000000001E-002    -5.4879351263464060E-018
  -1.7299999999999999E-002    -4.8285090653249633E-018
  -1.7250000000000001E-002    -3.3555398772183939E-018
  -1.7200000000000000E-002    -1.1709588589372312E-018
  -1.7149999999999999E-002     1.5035520202668757E-018
  -1.7100000000000001E-002     4.3424575149686493E-018
  -1.7049999999999999E-002     6.9497091463213099E-018
  -1.7000000000000001E-002     8.9070869383816398E-018
  -1.6950000000000000E-002     9.8325955496539062E-018
  -1.6899999999999998E-002     9.4417830696788719E-018
  -1.6850000000000000E-002     7.6034564908029188E-018
  -1.6799999999999999E-002     4.3808334347768344E-018
  -1.6750000000000001E-002     5.0010355198643590E-020
  -1.6700000000000000E-002    -4.9102287582671618E-018
  -1.6649999999999998E-002    -9.8599178634169818E-018
  -1.6600000000000000E-002    -1.4069162123823027E-017
  -1.6549999999999999E-002    -1.6812925325238917E-017
  -1.6500000000000001E-002    -1.7478753766365633E-017
  -1.6449999999999999E-002    -1.5673334449094594E-017
  -1.6400000000000001E-002    -1.1311885859801427E-017
  -1.6350000000000000E-002    -4.6745763474133265E-018
  -1.6299999999999999E-002     3.5831998188012304E-018
  -1.6250000000000001E-002     1.2474859521453959E-017
  -1.6199999999999999E-002     2.0782149955930714E-017
  -1.6150000000000001E-002     2.7203167402692417E-017
  -1.6100000000000000E-002     3.0533539604959108E-017
  -1.6049999999999998E-002     2.9858263772544016E-017
  -1.6000000000000000E-002     2.4726964235527532E-017
  -1.5949999999999999E-002     1.5284012921478660E-017
  -1.5900000000000001E-002     2.3278326692490483E-018
  -1.5850000000000000E-002    -1.2719008424230786E-017
  -1.5799999999999998E-002    -2.7936453505487177E-017
  -1.5750000000000000E-002    -4.1124239613359356E-017
  -1.5699999999999999E-002    -5.0089306941257326E-017
  -1.5650000000000001E-002    -5.2969514226677894E-017
  -1.5599999999999999E-002    -4.8550216550177086E-017
  -1.5550000000000001E-002    -3.6525753194138382E-017
  -1.5500000000000000E-002    -1.7660087420279402E-017
  -1.5449999999999998E-002     6.1897458752636614E-018
  -1.5400000000000000E-002     3.2207685023575818E-017
  -1.5349999999999999E-002     5.6909694643981184E-017
  -1.5300000000000001E-002     7.6568024008114478E-017
  -1.5250000000000000E-002     8.7722313024153502E-017
  -1.5199999999999998E-002     8.7713172406298949E-017
  -1.5150000000000000E-002     7.5163028469785237E-017
  -1.5099999999999999E-002     5.0328246153389183E-017
  -1.5050000000000001E-002     1.5256753834042448E-017
  -1.4999999999999999E-002    -2.6293910022492658E-017
  -1.4949999999999998E-002    -6.9193276493356882E-017
  -1.4900000000000000E-002    -1.0750983808209822E-016
  -1.4849999999999999E-002    -1.3526245490589373E-016
  -1.4800000000000001E-002    -1.4726407458315018E-016
  -1.4749999999999999E-002    -1.3994820180998156E-016
  -1.4700000000000001E-002    -1.1205900214807976E-016
  -1.4650000000000000E-002    -6.5092799326245268E-017
  -1.4599999999999998E-002    -3.4016963946480070E-018
  -1.4550000000000000E-002     6.6092162604859592E-017
  -1.4499999999999999E-002     1.3457401208269485E-016
  -1.4450000000000001E-002     1.9235388708059771E-016
  -1.4400000000000000E-002     2.3011961430524798E-016
  -1.4349999999999998E-002     2.4027697244561000E-016
  -1.4300000000000000E-002     2.1820127715980831E-016
  -1.4249999999999999E-002     1.6321716927632783E-016
  -1.4200000000000001E-002     7.9141610430572949E-017
  -1.4149999999999999E-002    -2.5733605969083937E-017
  -1.4099999999999998E-002    -1.3927997511478614E-016
  -1.4050000000000000E-002    -2.4677305878858033E-016
  -1.3999999999999999E-002    -3.3263263660161696E-016
  -1.3950000000000001E-002    -3.8247980675420389E-016
  -1.3899999999999999E-002    -3.8526336391228255E-016
  -1.3850000000000001E-002    -3.3517027717614679E-016
  -1.3800000000000000E-002    -2.3303170686622427E-016
  -1.3749999999999998E-002    -8.6971538629497385E-017
  -1.3700000000000000E-002     8.7879735736672046E-017
  -1.3649999999999999E-002     2.7067551600873459E-016
  -1.3600000000000001E-002     4.3708510861188117E-016
  -1.3550000000000000E-002     5.6226668302276034E-016
  -1.3499999999999998E-002     6.2425409936267995E-016
  -1.3450000000000000E-002     6.0733204061026632E-016
  -1.3399999999999999E-002     5.0492789692358100E-016
  -1.3350000000000001E-002     3.2155909955743859E-016
  -1.3299999999999999E-002     7.3455158066340499E-017
  -1.3249999999999998E-002    -2.1238405438793916E-016
  -1.3200000000000000E-002    -5.0073927599097265E-016
  -1.3149999999999998E-002    -7.5215515470520748E-016
  -1.3100000000000001E-002    -9.2795581361928906E-016
  -1.3049999999999999E-002    -9.9570180425507555E-016
  -1.3000000000000001E-002    -9.3437069389218459E-016
  -1.2950000000000000E-002    -7.3850227538699076E-016
  -1.2899999999999998E-002    -4.2061653985829450E-016
  -1.2850000000000000E-002    -1.1380732224633966E-017
  -1.2799999999999999E-002     4.4273282321835792E-016