  -4.0000000000000001E-002     0.0000000000000000     
  -3.9949999999999999E-002     0.0000000000000000     
  -3.9899999999999998E-002     0.0000000000000000     
  -3.9850000000000003E-002     0.0000000000000000     
  -3.9800000000000002E-002     0.0000000000000000     
  -3.9750000000000001E-002     0.0000000000000000     
  -3.9699999999999999E-002     0.0000000000000000     
  -3.9649999999999998E-002     0.0000000000000000     
  -3.9600000000000003E-002     0.0000000000000000     
  -3.9550000000000002E-002     0.0000000000000000     
  -3.9500000000000000E-002     0.0000000000000000     
  -3.9449999999999999E-002     0.0000000000000000     
  -3.9399999999999998E-002     0.0000000000000000     
  -3.9350000000000003E-002     0.0000000000000000     
  -3.9300000000000002E-002     0.0000000000000000     
  -3.9250000000000000E-002     0.0000000000000000     
  -3.9199999999999999E-002     0.0000000000000000     
  -3.9150000000000004E-002     0.0000000000000000     
  -3.9100000000000003E-002     0.0000000000000000     
  -3.9050000000000001E-002     0.0000000000000000     
  -3.9000000000000000E-002     0.0000000000000000     
  -3.8949999999999999E-002     0.0000000000000000     
  -3.8900000000000004E-002     0.0000000000000000     
  -3.8850000000000003E-002     0.0000000000000000     
  -3.8800000000000001E-002     0.0000000000000000     
  -3.8750000000000000E-002     0.0000000000000000     
  -3.8699999999999998E-002     0.0000000000000000     
  -3.8650000000000004E-002     0.0000000000000000     
  -3.8600000000000002E-002     0.0000000000000000     
  -3.8550000000000001E-002     0.0000000000000000     
  -3.8500000000000000E-002     0.0000000000000000     
  -3.8449999999999998E-002     0.0000000000000000     
  -3.8400000000000004E-002     0.0000000000000000     
  -3.8350000000000002E-002     0.0000000000000000     
  -3.8300000000000001E-002     0.0000000000000000     
  -3.8249999999999999E-002     0.0000000000000000     
  -3.8199999999999998E-002     0.0000000000000000     
  -3.8150000000000003E-002     0.0000000000000000     
  -3.8100000000000002E-002     0.0000000000000000     
  -3.8050000000000000E-002     0.0000000000000000     
  -3.7999999999999999E-002     0.0000000000000000     
  -3.7949999999999998E-002     0.0000000000000000     
  -3.7900000000000003E-002     0.0000000000000000     
  -3.7850000000000002E-002     0.0000000000000000     
  -3.7800000000000000E-002     0.0000000000000000     
  -3.7749999999999999E-002     0.0000000000000000     
  -3.7699999999999997E-002     0.0000000000000000     
  -3.7650000000000003E-002     0.0000000000000000     
  -3.7600000000000001E-002     0.0000000000000000     
  -3.7550000000000000E-002     0.0000000000000000     
  -3.7499999999999999E-002     0.0000000000000000     
  -3.7449999999999997E-002     0.0000000000000000     
  -3.7400000000000003E-002     0.0000000000000000     
  -3.7350000000000001E-002     0.0000000000000000     
  -3.7300000000000000E-002     0.0000000000000000     
  -3.7249999999999998E-002     0.0000000000000000     
  -3.7200000000000004E-002     0.0000000000000000     
  -3.7150000000000002E-002     0.0000000000000000     
  -3.7100000000000001E-002     0.0000000000000000     
  -3.7050000000000000E-002     0.0000000000000000     
  -3.6999999999999998E-002     0.0000000000000000     
  -3.6950000000000004E-002     0.0000000000000000     
  -3.6900000000000002E-002     0.0000000000000000     
  -3.6850000000000001E-002     0.0000000000000000     
  -3.6799999999999999E-002     0.0000000000000000     
  -3.6749999999999998E-002     0.0000000000000000     
  -3.6700000000000003E-002     0.0000000000000000     
  -3.6650000000000002E-002     0.0000000000000000     
  -3.6600000000000001E-002     0.0000000000000000     
  -3.6549999999999999E-002     0.0000000000000000     
  -3.6499999999999998E-002     0.0000000000000000     
  -3.6450000000000003E-002     0.0000000000000000     
  -3.6400000000000002E-002     0.0000000000000000     
  -3.6350000000000000E-002     0.0000000000000000     
  -3.6299999999999999E-002     0.0000000000000000     
  -3.6249999999999998E-002     0.0000000000000000     
  -3.6200000000000003E-002     0.0000000000000000     
  -3.6150000000000002E-002     0.0000000000000000     
  -3.6100000000000000E-002     0.0000000000000000     
  -3.6049999999999999E-002     0.0000000000000000     
  -3.6000000000000004E-002     0.0000000000000000     
  -3.5950000000000003E-002     0.0000000000000000     
  -3.5900000000000001E-002     0.0000000000000000     
  -3.5850000000000000E-002     0.0000000000000000     
  -3.5799999999999998E-002     0.0000000000000000     
  -3.5750000000000004E-002     0.0000000000000000     
  -3.5700000000000003E-002     0.0000000000000000     
  -3.5650000000000001E-002     0.0000000000000000     
  -3.5600000000000000E-002     0.0000000000000000     
  -3.5549999999999998E-002     0.0000000000000000     
  -3.5500000000000004E-002     0.0000000000000000     
  -3.5450000000000002E-002     0.0000000000000000     
  -3.5400000000000001E-002     0.0000000000000000     
  -3.5349999999999999E-002     0.0000000000000000     
  -3.5299999999999998E-002     0.0000000000000000     
  -3.5250000000000004E-002     0.0000000000000000     
  -3.5200000000000002E-002     0.0000000000000000     
  -3.5150000000000001E-002     0.0000000000000000     
  -3.5099999999999999E-002     0.0000000000000000     
  -3.5049999999999998E-002     0.0000000000000000     
  -3.5000000000000003E-002     0.0000000000000000     
  -3.4950000000000002E-002     0.0000000000000000     
  -3.4900000000000000E-002     0.0000000000000000     
  -3.4849999999999999E-002     0.0000000000000000     
  -3.4799999999999998E-002     0.0000000000000000     
  -3.4750000000000003E-002     0.0000000000000000     
  -3.4700000000000002E-002     0.0000000000000000     
  -3.4650000000000000E-002     0.0000000000000000     
  -3.4599999999999999E-002     0.0000000000000000     
  -3.4549999999999997E-002     0.0000000000000000     
  -3.4500000000000003E-002     0.0000000000000000     
  -3.4450000000000001E-002     0.0000000000000000     
  -3.4400000000000000E-002     0.0000000000000000     
  -3.4349999999999999E-002     0.0000000000000000     
  -3.4299999999999997E-002     0.0000000000000000     
  -3.4250000000000003E-002     0.0000000000000000     
  -3.4200000000000001E-002     0.0000000000000000     
  -3.4150000000000000E-002     0.0000000000000000     
  -3.4099999999999998E-002     0.0000000000000000     
  -3.4049999999999997E-002     0.0000000000000000     
  -3.4000000000000002E-002     0.0000000000000000     
  -3.3950000000000001E-002     0.0000000000000000     
  -3.3900000000000000E-002     0.0000000000000000     
  -3.3849999999999998E-002     0.0000000000000000     
  -3.3799999999999997E-002     0.0000000000000000     
  -3.3750000000000002E-002     0.0000000000000000     
  -3.3700000000000001E-002     0.0000000000000000     
  -3.3649999999999999E-002     0.0000000000000000     
  -3.3599999999999998E-002     0.0000000000000000     
  -3.3550000000000003E-002     0.0000000000000000     
  -3.3500000000000002E-002     0.0000000000000000     
  -3.3450000000000001E-002     0.0000000000000000     
  -3.3399999999999999E-002     0.0000000000000000     
  -3.3349999999999998E-002     0.0000000000000000     
  -3.3300000000000003E-002     0.0000000000000000     
  -3.3250000000000002E-002     0.0000000000000000     
  -3.3200000000000000E-002     0.0000000000000000     
  -3.3149999999999999E-002     0.0000000000000000     
  -3.3099999999999997E-002     0.0000000000000000     
  -3.3050000000000003E-002     0.0000000000000000     
  -3.3000000000000002E-002     0.0000000000000000     
  -3.2950000000000000E-002     0.0000000000000000     
  -3.2899999999999999E-002     0.0000000000000000     
  -3.2850000000000004E-002     0.0000000000000000     
  -3.2800000000000003E-002     0.0000000000000000     
  -3.2750000000000001E-002     0.0000000000000000     
  -3.2700000000000000E-002     0.0000000000000000     
  -3.2649999999999998E-002     0.0000000000000000     
  -3.2600000000000004E-002     0.0000000000000000     
  -3.2550000000000003E-002     0.0000000000000000     
  -3.2500000000000001E-002     0.0000000000000000     
  -3.2450000000000000E-002     0.0000000000000000     
  -3.2399999999999998E-002     0.0000000000000000     
  -3.2350000000000004E-002     0.0000000000000000     
  -3.2300000000000002E-002     0.0000000000000000     
  -3.2250000000000001E-002     0.0000000000000000     
  -3.2199999999999999E-002     0.0000000000000000     
  -3.2149999999999998E-002     0.0000000000000000     
  -3.2100000000000004E-002     0.0000000000000000     
  -3.2050000000000002E-002     0.0000000000000000     
  -3.2000000000000001E-002     0.0000000000000000     
  -3.1949999999999999E-002     0.0000000000000000     
  -3.1899999999999998E-002     0.0000000000000000     
  -3.1850000000000003E-002     0.0000000000000000     
  -3.1800000000000002E-002     0.0000000000000000     
  -3.1750000000000000E-002     0.0000000000000000     
  -3.1699999999999999E-002     0.0000000000000000     
  -3.1649999999999998E-002     0.0000000000000000     
  -3.1600000000000003E-002     0.0000000000000000     
  -3.1550000000000002E-002     0.0000000000000000     
  -3.1500000000000000E-002     0.0000000000000000     
  -3.1449999999999999E-002     0.0000000000000000     
  -3.1399999999999997E-002     0.0000000000000000     
  -3.1350000000000003E-002     0.0000000000000000     
  -3.1300000000000001E-002     0.0000000000000000     
  -3.1250000000000000E-002     0.0000000000000000     
  -3.1199999999999999E-002     0.0000000000000000     
  -3.1150000000000001E-002     0.0000000000000000     
  -3.1100000000000003E-002     0.0000000000000000     
  -3.1050000000000001E-002     0.0000000000000000     
  -3.1000000000000000E-002     0.0000000000000000     
  -3.0949999999999998E-002     0.0000000000000000     
  -3.0900000000000000E-002     0.0000000000000000     
  -3.0850000000000002E-002     0.0000000000000000     
  -3.0800000000000001E-002     0.0000000000000000     
  -3.0750000000000000E-002     0.0000000000000000     
  -3.0699999999999998E-002     0.0000000000000000     
  -3.0650000000000000E-002     0.0000000000000000     
  -3.0600000000000002E-002     0.0000000000000000     
  -3.0550000000000001E-002     0.0000000000000000     
  -3.0499999999999999E-002     0.0000000000000000     
  -3.0449999999999998E-002     0.0000000000000000     
  -3.0400000000000000E-002     0.0000000000000000     
  -3.0350000000000002E-002     0.0000000000000000     
  -3.0300000000000001E-002     0.0000000000000000     
  -3.0249999999999999E-002     0.0000000000000000     
  -3.0200000000000001E-002     0.0000000000000000     
  -3.0150000000000000E-002     0.0000000000000000     
  -3.0100000000000002E-002     0.0000000000000000     
  -3.0050000000000000E-002     0.0000000000000000     
  -2.9999999999999999E-002     0.0000000000000000     
  -2.9950000000000001E-002     0.0000000000000000     
  -2.9899999999999999E-002     0.0000000000000000     
  -2.9850000000000002E-002     0.0000000000000000     
  -2.9800000000000000E-002     0.0000000000000000     
  -2.9749999999999999E-002     0.0000000000000000     
  -2.9700000000000001E-002     0.0000000000000000     
  -2.9650000000000003E-002     0.0000000000000000     
  -2.9600000000000001E-002     0.0000000000000000     
  -2.9550000000000000E-002     0.0000000000000000     
  -2.9499999999999998E-002     0.0000000000000000     
  -2.9450000000000000E-002     0.0000000000000000     
  -2.9400000000000003E-002     0.0000000000000000     
  -2.9350000000000001E-002     0.0000000000000000     
  -2.9300000000000000E-002     0.0000000000000000     
  -2.9249999999999998E-002     0.0000000000000000     
  -2.9200000000000000E-002     0.0000000000000000     
  -2.9150000000000002E-002     0.0000000000000000     
  -2.9100000000000001E-002     0.0000000000000000     
  -2.9049999999999999E-002     0.0000000000000000     
  -2.8999999999999998E-002     0.0000000000000000     
  -2.8950000000000000E-002     0.0000000000000000     
  -2.8900000000000002E-002     0.0000000000000000     
  -2.8850000000000001E-002     0.0000000000000000     
  -2.8799999999999999E-002     0.0000000000000000     
  -2.8749999999999998E-002     0.0000000000000000     
  -2.8700000000000000E-002     0.0000000000000000     
  -2.8650000000000002E-002     0.0000000000000000     
  -2.8600000000000000E-002     0.0000000000000000     
  -2.8549999999999999E-002     0.0000000000000000     
  -2.8500000000000001E-002     0.0000000000000000     
  -2.8450000000000000E-002     0.0000000000000000     
  -2.8400000000000002E-002     0.0000000000000000     
  -2.8350000000000000E-002     0.0000000000000000     
  -2.8299999999999999E-002     0.0000000000000000     
  -2.8250000000000001E-002     0.0000000000000000     
  -2.8200000000000003E-002     0.0000000000000000     
  -2.8150000000000001E-002     0.0000000000000000     
  -2.8100000000000000E-002     0.0000000000000000     
  -2.8049999999999999E-002     0.0000000000000000     
  -2.8000000000000001E-002     0.0000000000000000     
  -2.7950000000000003E-002     0.0000000000000000     
  -2.7900000000000001E-002    -8.3798486209193029E-040
  -2.7850000000000000E-002    -1.6104382506193391E-039
  -2.7799999999999998E-002    -1.6104382506193391E-039
  -2.7750000000000000E-002     7.4935573827649849E-040
  -2.7700000000000002E-002     3.2730834405807625E-039
  -2.7650000000000001E-002     6.3436083102122048E-039
  -2.7600000000000000E-002     7.8264722915037944E-039
  -2.7549999999999998E-002     6.2346618714475840E-039
  -2.7500000000000000E-002     0.0000000000000000     
  -2.7450000000000002E-002    -1.1935717874331476E-038
  -2.7400000000000001E-002    -2.4194521517185885E-038
  -2.7349999999999999E-002    -3.0919883894855744E-038
  -2.7299999999999998E-002    -2.7024045498136158E-038
  -2.7250000000000000E-002    -9.2708918840671014E-039
  -2.7200000000000002E-002     1.1728074602450050E-038
  -2.7150000000000001E-002     3.3618326940563255E-038
  -2.7099999999999999E-002     6.5907979982030308E-038
  -2.7049999999999998E-002     8.5356944039091777E-038
  -2.7000000000000000E-002     9.0573028848803827E-038
  -2.6950000000000002E-002     7.0856070408359149E-038
  -2.6900000000000000E-002     2.4807223383030639E-038
  -2.6849999999999999E-002    -3.1013234874229824E-038
  -2.6800000000000001E-002    -7.9092288798561199E-038
  -2.6749999999999999E-002    -1.4058825670465760E-037
  -2.6700000000000002E-002    -1.9708479199893662E-037
  -2.6650000000000000E-002    -2.3372109595200770E-037
  -2.6599999999999999E-002    -2.1257021265966252E-037
  -2.6550000000000001E-002    -1.2476949103201805E-037
  -2.6500000000000003E-002     1.3211377172913623E-038
  -2.6450000000000001E-002     1.8248353869404082E-037
  -2.6400000000000000E-002     3.3022356333101376E-037
  -2.6349999999999998E-002     4.4656285509528808E-037
  -2.6300000000000000E-002     5.2126636126950620E-037
  -2.6250000000000002E-002     5.8280220401494456E-037
  -2.6200000000000001E-002     6.2063642853642393E-037
  -2.6150000000000000E-002     5.8086108515222993E-037
  -2.6099999999999998E-002     3.7955097910056526E-037
  -2.6050000000000000E-002    -8.8168099303137209E-038
  -2.6000000000000002E-002    -8.8325833676402727E-037
  -2.5950000000000001E-002    -1.9686108869880877E-036
  -2.5899999999999999E-002    -3.1596197394687621E-036
  -2.5849999999999998E-002    -4.1146209366517533E-036
  -2.5800000000000000E-002    -4.3715840236606137E-036
  -2.5750000000000002E-002    -3.4439841722776608E-036
  -2.5700000000000001E-002    -9.6439737306458708E-037
  -2.5649999999999999E-002     3.1343632522232206E-036
  -2.5599999999999998E-002     8.4468820847357967E-036
  -2.5550000000000000E-002     1.3976783416579495E-035
  -2.5500000000000002E-002     1.8145056512856957E-035
  -2.5450000000000000E-002     1.8993781320023835E-035
  -2.5399999999999999E-002     1.4629045471966229E-035
  -2.5349999999999998E-002     3.8724156909905030E-036
  -2.5300000000000000E-002    -1.3007583157093376E-035
  -2.5250000000000002E-002    -3.3709221386134613E-035
  -2.5200000000000000E-002    -5.3722715826695348E-035
  -2.5149999999999999E-002    -6.6801270983105719E-035
  -2.5100000000000001E-002    -6.6177829239634176E-035
  -2.5049999999999999E-002    -4.6429183878793406E-035
  -2.5000000000000001E-002    -5.6470021025682166E-036
  -2.4950000000000000E-002     5.2641561109189253E-035
  -2.4899999999999999E-002     1.1848794401266791E-034
  -2.4850000000000001E-002     1.7611413146055431E-034
  -2.4800000000000003E-002     2.0646256897961030E-034
  -2.4750000000000001E-002     1.9160200113707183E-034
  -2.4700000000000000E-002     1.2026787355486666E-034
  -2.4649999999999998E-002    -6.7724623867752619E-036
  -2.4600000000000000E-002    -1.7319197256295907E-034
  -2.4550000000000002E-002    -3.4700472082817936E-034
  -2.4500000000000001E-002    -4.8489835971956473E-034
  -2.4450000000000000E-002    -5.4094267821025334E-034
  -2.4399999999999998E-002    -4.7830210483478366E-034
  -2.4350000000000000E-002    -2.8133817206265392E-034
  -2.4299999999999999E-002     3.5255032669878567E-035
  -2.4250000000000001E-002     4.2353662453178388E-034
  -2.4199999999999999E-002     8.0774391627757731E-034
  -2.4150000000000001E-002     1.0981320822467713E-033
  -2.4100000000000000E-002     1.2108036010708413E-033
  -2.4049999999999998E-002     1.0888735542808547E-033
  -2.4000000000000000E-002     7.1916699100740080E-034
  -2.3949999999999999E-002     1.3919890842285979E-034
  -2.3900000000000001E-002    -5.6837932901896956E-034
  -2.3850000000000000E-002    -1.2928601629878549E-033
  -2.3800000000000002E-002    -1.9189651011605989E-033
  -2.3750000000000000E-002    -2.3487453877689562E-033
  -2.3699999999999999E-002    -2.5137353340501839E-033
  -2.3650000000000001E-002    -2.3725267488437688E-033
  -2.3599999999999999E-002    -1.8953291454593137E-033
  -2.3550000000000001E-002    -1.0447749902591405E-033
  -2.3500000000000000E-002     2.3190239745361765E-034
  -2.3449999999999999E-002     1.9834057843235254E-033
  -2.3400000000000001E-002     4.1985949611803388E-033
  -2.3349999999999999E-002     6.7201161703747732E-033
  -2.3300000000000001E-002     9.1528168700193896E-033
  -2.3250000000000000E-002     1.0810623198137375E-032
  -2.3199999999999998E-002     1.0754041393791572E-032
  -2.3150000000000000E-002     7.9611201381276825E-033
  -2.3099999999999999E-002     1.6429279077551812E-033
  -2.3050000000000001E-002    -8.3372367030379837E-033
  -2.3000000000000000E-002    -2.1042715559018662E-032
  -2.2950000000000002E-002    -3.4193404639681480E-032
  -2.2900000000000000E-002    -4.4217816071227374E-032
  -2.2849999999999999E-002    -4.6762808903364972E-032
  -2.2800000000000001E-002    -3.7697920768086119E-032
  -2.2749999999999999E-002    -1.4498298917262521E-032
  -2.2700000000000001E-002     2.2284941533064133E-032
  -2.2650000000000000E-002     6.7904865030897972E-032
  -2.2599999999999999E-002     1.1314522615015079E-031
  -2.2550000000000001E-002     1.4530616194045303E-031
  -2.2499999999999999E-002     1.5061501519003365E-031
  -2.2450000000000001E-002     1.1783987896852264E-031
  -2.2400000000000000E-002     4.2431717552757416E-032
  -2.2349999999999998E-002    -6.9871557981855180E-032
  -2.2300000000000000E-002    -2.0123448556752975E-031
  -2.2249999999999999E-002    -3.2282235968274690E-031
  -2.2200000000000001E-002    -3.9939756515027865E-031
  -2.2150000000000000E-002    -3.9713728689552437E-031
  -2.2100000000000002E-002    -2.9335726882451777E-031
  -2.2050000000000000E-002    -8.5887814155311066E-032
  -2.1999999999999999E-002     2.0067821781826867E-031
  -2.1950000000000001E-002     5.1448126500666352E-031
  -2.1899999999999999E-002     7.8326600372430704E-031
  -2.1850000000000001E-002     9.2853747414109764E-031
  -2.1800000000000000E-002     8.8478823471750866E-031
  -2.1749999999999999E-002     6.1960672445685658E-031
  -2.1700000000000001E-002     1.4927040347742043E-031
  -2.1649999999999999E-002    -4.5545885608539230E-031
  -2.1600000000000001E-002    -1.0769215581378390E-030
  -2.1550000000000000E-002    -1.5720127609761691E-030
  -2.1499999999999998E-002    -1.8040997463175985E-030
  -2.1450000000000000E-002    -1.6783857339958964E-030
  -2.1399999999999999E-002    -1.1714902497163645E-030
  -2.1350000000000001E-002    -3.4618539111453053E-031
  -2.1299999999999999E-002     6.5484167115497150E-031
  -2.1250000000000002E-002     1.6370178320298976E-030
  -2.1200000000000000E-002     2.3980991200018379E-030
  -2.1149999999999999E-002     2.7772963343727644E-030
  -2.1100000000000001E-002     2.6950958683047893E-030
  -2.1049999999999999E-002     2.1708485846734555E-030
  -2.1000000000000001E-002     1.3110572674180272E-030
  -2.0950000000000000E-002     2.7054856301645193E-031
  -2.0899999999999998E-002    -8.0116847248121190E-031
  -2.0850000000000000E-002    -1.8085894748450155E-030
  -2.0799999999999999E-002    -2.7326620313320431E-030
  -2.0750000000000001E-002    -3.6120951644612600E-030
  -2.0700000000000000E-002    -4.4825133422144118E-030
  -2.0649999999999998E-002    -5.2905795085138867E-030
  -2.0600000000000000E-002    -5.8168223516493119E-030
  -2.0549999999999999E-002    -5.6493359500687898E-030
  -2.0500000000000001E-002    -4.2449158194631712E-030
  -2.0449999999999999E-002    -1.0923907860025742E-030
  -2.0400000000000001E-002     4.0423733957036454E-030
  -2.0350000000000000E-002     1.0850448098055122E-029
  -2.0299999999999999E-002     1.8285650623947984E-029
  -2.0250000000000001E-002     2.4545033516398273E-029
  -2.0199999999999999E-002     2.7304400525583085E-029
  -2.0150000000000001E-002     2.4230808460581317E-029
  -2.0100000000000000E-002     1.3708435439835385E-029
  -2.0049999999999998E-002    -4.3788668542748161E-030
  -2.0000000000000000E-002    -2.8037018804951883E-029
  -1.9949999999999999E-002    -5.2973674669362990E-029
  -1.9900000000000001E-002    -7.3031883078435552E-029
  -1.9850000000000000E-002    -8.1315997194552397E-029
  -1.9799999999999998E-002    -7.1891259668485489E-029
  -1.9750000000000000E-002    -4.1731275848875892E-029
  -1.9699999999999999E-002     7.5797131902495104E-030
  -1.9650000000000001E-002     6.8949114396153552E-029
  -1.9599999999999999E-002     1.3015968847272878E-028
  -1.9550000000000001E-002     1.7576800526641349E-028
  -1.9500000000000000E-002     1.9037688666277723E-028
  -1.9449999999999999E-002     1.6271549648592955E-028
  -1.9400000000000001E-002     8.9594635715282209E-029
  -1.9349999999999999E-002    -2.1379194465293747E-029
  -1.9300000000000001E-002    -1.5135721781856943E-028
  -1.9250000000000000E-002    -2.7269169612504980E-028
  -1.9199999999999998E-002    -3.5422533823857377E-028
  -1.9150000000000000E-002    -3.6858648458680477E-028
  -1.9099999999999999E-002    -2.9992391419084943E-028
  -1.9050000000000001E-002    -1.5008379585767536E-028
  -1.9000000000000000E-002     5.8725381668785567E-029
  -1.8949999999999998E-002     2.8613620220432929E-028
  -1.8900000000000000E-002     4.8095632658927084E-028
  -1.8849999999999999E-002     5.9253167145072768E-028
  -1.8800000000000001E-002     5.8373648122467517E-028
  -1.8749999999999999E-002     4.4233390394651938E-028
  -1.8700000000000001E-002     1.8737572978066749E-028
  -1.8650000000000000E-002    -1.3184565180976728E-028
  -1.8599999999999998E-002    -4.4507672870176919E-028
  -1.8550000000000001E-002    -6.7719875632813007E-028
  -1.8499999999999999E-002    -7.6758875453050121E-028
  -1.8450000000000001E-002    -6.8772465738666628E-028
  -1.8400000000000000E-002    -4.5179965764260792E-028
  -1.8349999999999998E-002    -1.1638004756797303E-028
  -1.8300000000000000E-002     2.3220951962262155E-028
  -1.8249999999999999E-002     5.0062619085953740E-028
  -1.8200000000000001E-002     6.1587968468318554E-028
  -1.8149999999999999E-002     5.4957473093547154E-028
  -1.8100000000000002E-002     3.3105981174222015E-028
  -1.8050000000000000E-002     4.3675386453818037E-029
  -1.7999999999999999E-002    -1.9731344620618865E-028
  -1.7950000000000001E-002    -2.8095111889939997E-028
  -1.7899999999999999E-002    -1.4155513351118678E-028
  -1.7850000000000001E-002     2.0830056257541421E-028
  -1.7800000000000000E-002     6.6536901633637094E-028
  -1.7749999999999998E-002     1.0522778458706867E-027
  -1.7700000000000000E-002     1.1637311130362108E-027
  -1.7649999999999999E-002     8.3355031574394992E-028
  -1.7600000000000001E-002     5.0145775146825275E-030
  -1.7550000000000000E-002    -1.2179865484086148E-027
  -1.7499999999999998E-002    -2.5604270573102732E-027
  -1.7450000000000000E-002    -3.6194847887579572E-027
  -1.7399999999999999E-002    -3.9609101118449759E-027
  -1.7350000000000001E-002    -3.2504989240980916E-027
  -1.7299999999999999E-002    -1.3874489367870701E-027
  -1.7250000000000001E-002     1.4019455484822706E-027
  -1.7200000000000000E-002     4.5492393292795343E-027
  -1.7149999999999999E-002     7.2310450492362091E-027
  -1.7100000000000001E-002     8.5561456507431026E-027
  -1.7049999999999999E-002     7.8188180316574199E-027
  -1.7000000000000001E-002     4.7565751646519702E-027
  -1.6950000000000000E-002    -2.6512013298215745E-028
  -1.6899999999999998E-002    -6.2144128517195152E-027
  -1.6850000000000000E-002    -1.1546882038068664E-026
  -1.6799999999999999E-002    -1.4550138372394129E-026
  -1.6750000000000001E-002    -1.3820214399086623E-026
  -1.6700000000000000E-002    -8.7573238205224647E-027
  -1.6649999999999998E-002     6.2615520037585372E-029
  -1.6600000000000000E-002     1.0781013489109879E-026
  -1.6549999999999999E-002     2.0508251196503671E-026
  -1.6500000000000001E-002     2.5943583257637846E-026
  -1.6449999999999999E-002     2.4267358599530341E-026
  -1.6400000000000001E-002     1.4107612654844002E-026
  -1.6350000000000000E-002    -3.6843220322173296E-027
  -1.6299999999999999E-002    -2.5719604621925448E-026
  -1.6250000000000001E-002    -4.6419834419467652E-026
  -1.6199999999999999E-002    -5.9082481602424324E-026
  -1.6150000000000001E-002    -5.7530310788640379E-026
  -1.6100000000000000E-002    -3.8014529976197458E-026
  -1.6049999999999998E-002    -8.9746462573762287E-028
  -1.6000000000000000E-002     4.8402622654473044E-026
  -1.5949999999999999E-002     9.9632766567508462E-026
  -1.5900000000000001E-002     1.3929423393540861E-025
  -1.5850000000000000E-002     1.5347269906943867E-025
  -1.5799999999999998E-002     1.3142426570621158E-025
  -1.5750000000000000E-002     6.9131095575151006E-026
  -1.5699999999999999E-002    -2.8110421463676160E-026
  -1.5650000000000001E-002    -1.4493561037823540E-025
  -1.5599999999999999E-002    -2.5755000390591220E-025
  -1.5550000000000001E-002    -3.3780798793971190E-025
  -1.5500000000000000E-002    -3.5916627762236572E-025
  -1.5449999999999998E-002    -3.0337464042400488E-025
  -1.5400000000000000E-002    -1.6638988736255922E-025
  -1.5349999999999999E-002     3.8051819371144304E-026
  -1.5300000000000001E-002     2.7844007236512170E-025
  -1.5250000000000000E-002     5.0961578604292037E-025
  -1.5199999999999998E-002     6.8064027890965025E-025
  -1.5150000000000000E-002     7.4508366150453209E-025
  -1.5099999999999999E-002     6.7167145734186802E-025
  -1.5050000000000001E-002     4.5290418247382563E-025
  -1.4999999999999999E-002     1.0950360927545071E-025
  -1.4949999999999998E-002    -3.1068554087297528E-025
  -1.4900000000000000E-002    -7.3953743789021535E-025
  -1.4849999999999999E-002    -1.1001159577759384E-024
  -1.4800000000000001E-002    -1.3205346535897179E-024
  -1.4749999999999999E-002    -1.3473458851198018E-024
  -1.4700000000000001E-002    -1.1556642054707777E-024
  -1.4650000000000000E-002    -7.5399357700995389E-025
  -1.4599999999999998E-002    -1.8302936061243098E-025
  -1.4550000000000000E-002     4.9081196501158800E-025
  -1.4499999999999999E-002     1.1851516971428258E-024
  -1.4450000000000001E-002     1.8121114703008511E-024
  -1.4400000000000000E-002     2.2871473600882760E-024
  -1.4349999999999998E-002     2.5349929861160876E-024
  -1.4300000000000000E-002     2.4929996971919746E-024
  -1.4249999999999999E-002     2.1137185891585203E-024
  -1.4200000000000001E-002     1.3694176072645582E-024
  -1.4149999999999999E-002     2.6093537274473570E-025
  -1.4099999999999998E-002    -1.1683992243481586E-024
  -1.4050000000000000E-002    -2.8157964878622456E-024
  -1.3999999999999999E-002    -4.5042085277065316E-024
  -1.3950000000000001E-002    -5.9774304333379368E-024
  -1.3899999999999999E-002    -6.9135552218686321E-024
  -1.3850000000000001E-002    -6.9632143339275009E-024
  -1.3800000000000000E-002    -5.8140421917436677E-024
  -1.3749999999999998E-002    -3.2754105528185861E-024
  -1.3700000000000000E-002     6.3094100079919558E-025
  -1.3649999999999999E-002     5.5958982835692815E-024
  -1.3600000000000001E-002     1.0988642401867914E-023
  -1.3550000000000000E-002     1.5885818860618650E-023
  -1.3499999999999998E-002     1.9178112324659723E-023
  -1.3450000000000000E-002     1.9752845744403636E-023
  -1.3399999999999999E-002     1.6732184764598279E-023
  -1.3350000000000001E-002     9.7273274935943109E-024
  -1.3299999999999999E-002    -9.4519862231368825E-025
  -1.3249999999999998E-002    -1.4143989522205497E-023
  -1.3200000000000000E-002    -2.7930720415330242E-023
  -1.3149999999999998E-002    -3.9774884134304742E-023
  -1.3100000000000001E-002    -4.6931335737765476E-023
  -1.3049999999999999E-002    -4.6947648043944802E-023
  -1.3000000000000001E-002    -3.8221014471545921E-023
  -1.2950000000000000E-002    -2.0497752710878797E-023
  -1.2899999999999998E-002     4.7993527056380097E-024
  -1.2850000000000000E-002     3.4515535805408017E-023
  -1.2799999999999999E-002     6.4040207539657831E-023