  -4.0000000000000001E-002     0.0000000000000000     
  -3.9949999999999999E-002     0.0000000000000000     
  -3.9899999999999998E-002     0.0000000000000000     
  -3.9850000000000003E-002     0.0000000000000000     
  -3.9800000000000002E-002     0.0000000000000000     
  -3.9750000000000001E-002     0.0000000000000000     
  -3.9699999999999999E-002     0.0000000000000000     
  -3.9649999999999998E-002     0.0000000000000000     
  -3.9600000000000003E-002     0.0000000000000000     
  -3.9550000000000002E-002     0.0000000000000000     
  -3.9500000000000000E-002     0.0000000000000000     
  -3.9449999999999999E-002     0.0000000000000000     
  -3.9399999999999998E-002     0.0000000000000000     
  -3.9350000000000003E-002     0.0000000000000000     
  -3.9300000000000002E-002     0.0000000000000000     
  -3.9250000000000000E-002     0.0000000000000000     
  -3.9199999999999999E-002     0.0000000000000000     
  -3.9150000000000004E-002     0.0000000000000000     
  -3.9100000000000003E-002     0.0000000000000000     
  -3.9050000000000001E-002     0.0000000000000000     
  -3.9000000000000000E-002     0.0000000000000000     
  -3.8949999999999999E-002     0.0000000000000000     
  -3.8900000000000004E-002     0.0000000000000000     
  -3.8850000000000003E-002     0.0000000000000000     
  -3.8800000000000001E-002     0.0000000000000000     
  -3.8750000000000000E-002     0.0000000000000000     
  -3.8699999999999998E-002     0.0000000000000000     
  -3.8650000000000004E-002     0.0000000000000000     
  -3.8600000000000002E-002     0.0000000000000000     
  -3.8550000000000001E-002     0.0000000000000000     
  -3.8500000000000000E-002     0.0000000000000000     
  -3.8449999999999998E-002     0.0000000000000000     
  -3.8400000000000004E-002     0.0000000000000000     
  -3.8350000000000002E-002     0.0000000000000000     
  -3.8300000000000001E-002     0.0000000000000000     
  -3.8249999999999999E-002     0.0000000000000000     
  -3.8199999999999998E-002     0.0000000000000000     
  -3.8150000000000003E-002     0.0000000000000000     
  -3.8100000000000002E-002     0.0000000000000000     
  -3.8050000000000000E-002     0.0000000000000000     
  -3.7999999999999999E-002     0.0000000000000000     
  -3.7949999999999998E-002     0.0000000000000000     
  -3.7900000000000003E-002     0.0000000000000000     
  -3.7850000000000002E-002     0.0000000000000000     
  -3.7800000000000000E-002     0.0000000000000000     
  -3.7749999999999999E-002     0.0000000000000000     
  -3.7699999999999997E-002     0.0000000000000000     
  -3.7650000000000003E-002     0.0000000000000000     
  -3.7600000000000001E-002     0.0000000000000000     
  -3.7550000000000000E-002     0.0000000000000000     
  -3.7499999999999999E-002     0.0000000000000000     
  -3.7449999999999997E-002     0.0000000000000000     
  -3.7400000000000003E-002     0.0000000000000000     
  -3.7350000000000001E-002     0.0000000000000000     
  -3.7300000000000000E-002     0.0000000000000000     
  -3.7249999999999998E-002     0.0000000000000000     
  -3.7200000000000004E-002     0.0000000000000000     
  -3.7150000000000002E-002     0.0000000000000000     
  -3.7100000000000001E-002     0.0000000000000000     
  -3.7050000000000000E-002     0.0000000000000000     
  -3.6999999999999998E-002     0.0000000000000000     
  -3.6950000000000004E-002     0.0000000000000000     
  -3.6900000000000002E-002     0.0000000000000000     
  -3.6850000000000001E-002     0.0000000000000000     
  -3.6799999999999999E-002     0.0000000000000000     
  -3.6749999999999998E-002     0.0000000000000000     
  -3.6700000000000003E-002     0.0000000000000000     
  -3.6650000000000002E-002     0.0000000000000000     
  -3.6600000000000001E-002     0.0000000000000000     
  -3.6549999999999999E-002     0.0000000000000000     
  -3.6499999999999998E-002     0.0000000000000000     
  -3.6450000000000003E-002     0.0000000000000000     
  -3.6400000000000002E-002     0.0000000000000000     
  -3.6350000000000000E-002     0.0000000000000000     
  -3.6299999999999999E-002     0.0000000000000000     
  -3.6249999999999998E-002     0.0000000000000000     
  -3.6200000000000003E-002     0.0000000000000000     
  -3.6150000000000002E-002     0.0000000000000000     
  -3.6100000000000000E-002     0.0000000000000000     
  -3.6049999999999999E-002     0.0000000000000000     
  -3.6000000000000004E-002     0.0000000000000000     
  -3.5950000000000003E-002     0.0000000000000000     
  -3.5900000000000001E-002     0.0000000000000000     
  -3.5850000000000000E-002     0.0000000000000000     
  -3.5799999999999998E-002     0.0000000000000000     
  -3.5750000000000004E-002     0.0000000000000000     
  -3.5700000000000003E-002     0.0000000000000000     
  -3.5650000000000001E-002     0.0000000000000000     
  -3.5600000000000000E-002     0.0000000000000000     
  -3.5549999999999998E-002     0.0000000000000000     
  -3.5500000000000004E-002     0.0000000000000000     
  -3.5450000000000002E-002     0.0000000000000000     
  -3.5400000000000001E-002     0.0000000000000000     
  -3.5349999999999999E-002     0.0000000000000000     
  -3.5299999999999998E-002     0.0000000000000000     
  -3.5250000000000004E-002     0.0000000000000000     
  -3.5200000000000002E-002     0.0000000000000000     
  -3.5150000000000001E-002     0.0000000000000000     
  -3.5099999999999999E-002     0.0000000000000000     
  -3.5049999999999998E-002     0.0000000000000000     
  -3.5000000000000003E-002     0.0000000000000000     
  -3.4950000000000002E-002     0.0000000000000000     
  -3.4900000000000000E-002     0.0000000000000000     
  -3.4849999999999999E-002     0.0000000000000000     
  -3.4799999999999998E-002     0.0000000000000000     
  -3.4750000000000003E-002     0.0000000000000000     
  -3.4700000000000002E-002     0.0000000000000000     
  -3.4650000000000000E-002     0.0000000000000000     
  -3.4599999999999999E-002     0.0000000000000000     
  -3.4549999999999997E-002     0.0000000000000000     
  -3.4500000000000003E-002     0.0000000000000000     
  -3.4450000000000001E-002     0.0000000000000000     
  -3.4400000000000000E-002     0.0000000000000000     
  -3.4349999999999999E-002     0.0000000000000000     
  -3.4299999999999997E-002     0.0000000000000000     
  -3.4250000000000003E-002     0.0000000000000000     
  -3.4200000000000001E-002     0.0000000000000000     
  -3.4150000000000000E-002     0.0000000000000000     
  -3.4099999999999998E-002     0.0000000000000000     
  -3.4049999999999997E-002     0.0000000000000000     
  -3.4000000000000002E-002     0.0000000000000000     
  -3.3950000000000001E-002     0.0000000000000000     
  -3.3900000000000000E-002     0.0000000000000000     
  -3.3849999999999998E-002     0.0000000000000000     
  -3.3799999999999997E-002     0.0000000000000000     
  -3.3750000000000002E-002     0.0000000000000000     
  -3.3700000000000001E-002     0.0000000000000000     
  -3.3649999999999999E-002     0.0000000000000000     
  -3.3599999999999998E-002     0.0000000000000000     
  -3.3550000000000003E-002     0.0000000000000000     
  -3.3500000000000002E-002     0.0000000000000000     
  -3.3450000000000001E-002     0.0000000000000000     
  -3.3399999999999999E-002     0.0000000000000000     
  -3.3349999999999998E-002     0.0000000000000000     
  -3.3300000000000003E-002     0.0000000000000000     
  -3.3250000000000002E-002     0.0000000000000000     
  -3.3200000000000000E-002     0.0000000000000000     
  -3.3149999999999999E-002     0.0000000000000000     
  -3.3099999999999997E-002     0.0000000000000000     
  -3.3050000000000003E-002     0.0000000000000000     
  -3.3000000000000002E-002     0.0000000000000000     
  -3.2950000000000000E-002     0.0000000000000000     
  -3.2899999999999999E-002     0.0000000000000000     
  -3.2850000000000004E-002     0.0000000000000000     
  -3.2800000000000003E-002     0.0000000000000000     
  -3.2750000000000001E-002     0.0000000000000000     
  -3.2700000000000000E-002     0.0000000000000000     
  -3.2649999999999998E-002     0.0000000000000000     
  -3.2600000000000004E-002     0.0000000000000000     
  -3.2550000000000003E-002     0.0000000000000000     
  -3.2500000000000001E-002     0.0000000000000000     
  -3.2450000000000000E-002     0.0000000000000000     
  -3.2399999999999998E-002     0.0000000000000000     
  -3.2350000000000004E-002     0.0000000000000000     
  -3.2300000000000002E-002     0.0000000000000000     
  -3.2250000000000001E-002     0.0000000000000000     
  -3.2199999999999999E-002     0.0000000000000000     
  -3.2149999999999998E-002     0.0000000000000000     
  -3.2100000000000004E-002     0.0000000000000000     
  -3.2050000000000002E-002     0.0000000000000000     
  -3.2000000000000001E-002     0.0000000000000000     
  -3.1949999999999999E-002     0.0000000000000000     
  -3.1899999999999998E-002     0.0000000000000000     
  -3.1850000000000003E-002     0.0000000000000000     
  -3.1800000000000002E-002     0.0000000000000000     
  -3.1750000000000000E-002     0.0000000000000000     
  -3.1699999999999999E-002     0.0000000000000000     
  -3.1649999999999998E-002     0.0000000000000000     
  -3.1600000000000003E-002     0.0000000000000000     
  -3.1550000000000002E-002     0.0000000000000000     
  -3.1500000000000000E-002     0.0000000000000000     
  -3.1449999999999999E-002     0.0000000000000000     
  -3.1399999999999997E-002     0.0000000000000000     
  -3.1350000000000003E-002     0.0000000000000000     
  -3.1300000000000001E-002     0.0000000000000000     
  -3.1250000000000000E-002     0.0000000000000000     
  -3.1199999999999999E-002     0.0000000000000000     
  -3.1150000000000001E-002     0.0000000000000000     
  -3.1100000000000003E-002     0.0000000000000000     
  -3.1050000000000001E-002     0.0000000000000000     
  -3.1000000000000000E-002     0.0000000000000000     
  -3.0949999999999998E-002     0.0000000000000000     
  -3.0900000000000000E-002     0.0000000000000000     
  -3.0850000000000002E-002     0.0000000000000000     
  -3.0800000000000001E-002     0.0000000000000000     
  -3.0750000000000000E-002     0.0000000000000000     
  -3.0699999999999998E-002     0.0000000000000000     
  -3.0650000000000000E-002     0.0000000000000000     
  -3.0600000000000002E-002     0.0000000000000000     
  -3.0550000000000001E-002     0.0000000000000000     
  -3.0499999999999999E-002     0.0000000000000000     
  -3.0449999999999998E-002     0.0000000000000000     
  -3.0400000000000000E-002     0.0000000000000000     
  -3.0350000000000002E-002     0.0000000000000000     
  -3.0300000000000001E-002     0.0000000000000000     
  -3.0249999999999999E-002     0.0000000000000000     
  -3.0200000000000001E-002     0.0000000000000000     
  -3.0150000000000000E-002     0.0000000000000000     
  -3.0100000000000002E-002     0.0000000000000000     
  -3.0050000000000000E-002     0.0000000000000000     
  -2.9999999999999999E-002     0.0000000000000000     
  -2.9950000000000001E-002     0.0000000000000000     
  -2.9899999999999999E-002     0.0000000000000000     
  -2.9850000000000002E-002     0.0000000000000000     
  -2.9800000000000000E-002     0.0000000000000000     
  -2.9749999999999999E-002     0.0000000000000000     
  -2.9700000000000001E-002     0.0000000000000000     
  -2.9650000000000003E-002     0.0000000000000000     
  -2.9600000000000001E-002     0.0000000000000000     
  -2.9550000000000000E-002     0.0000000000000000     
  -2.9499999999999998E-002     0.0000000000000000     
  -2.9450000000000000E-002     0.0000000000000000     
  -2.9400000000000003E-002     0.0000000000000000     
  -2.9350000000000001E-002     0.0000000000000000     
  -2.9300000000000000E-002     0.0000000000000000     
  -2.9249999999999998E-002     0.0000000000000000     
  -2.9200000000000000E-002     0.0000000000000000     
  -2.9150000000000002E-002     0.0000000000000000     
  -2.9100000000000001E-002     0.0000000000000000     
  -2.9049999999999999E-002     0.0000000000000000     
  -2.8999999999999998E-002     0.0000000000000000     
  -2.8950000000000000E-002     0.0000000000000000     
  -2.8900000000000002E-002     0.0000000000000000     
  -2.8850000000000001E-002     0.0000000000000000     
  -2.8799999999999999E-002     0.0000000000000000     
  -2.8749999999999998E-002     0.0000000000000000     
  -2.8700000000000000E-002     0.0000000000000000     
  -2.8650000000000002E-002     0.0000000000000000     
  -2.8600000000000000E-002     1.5759389479444776E-039
  -2.8549999999999999E-002     4.1345815236054677E-039
  -2.8500000000000001E-002     6.4820496841015703E-039
  -2.8450000000000000E-002     4.9626328005909000E-039
  -2.8400000000000002E-002     0.0000000000000000     
  -2.8350000000000000E-002    -9.6534120133112362E-039
  -2.8299999999999999E-002    -2.0166433053909379E-038
  -2.8250000000000001E-002    -3.0420604159194346E-038
  -2.8200000000000003E-002    -3.1766977387481117E-038
  -2.8150000000000001E-002    -2.2315584990147612E-038
  -2.8100000000000000E-002     6.7125434427552249E-039
  -2.8049999999999999E-002     4.8697260504754707E-038
  -2.8000000000000001E-002     9.3710774268538473E-038
  -2.7950000000000003E-002     1.1994499577201089E-037
  -2.7900000000000001E-002     1.0880092631258150E-037
  -2.7850000000000000E-002     7.3738828464783824E-038
  -2.7799999999999998E-002     1.9066954847070592E-038
  -2.7750000000000000E-002    -4.5134452029928082E-038
  -2.7700000000000002E-002    -1.0629044905242643E-037
  -2.7650000000000001E-002    -1.8371814776231043E-037
  -2.7600000000000000E-002    -2.4920742094757302E-037
  -2.7549999999999998E-002    -3.0337046920717990E-037
  -2.7500000000000000E-002    -3.3106850393346205E-037
  -2.7450000000000002E-002    -2.9163457010702961E-037
  -2.7400000000000001E-002    -1.5238771221231693E-037
  -2.7349999999999999E-002     1.2948799374338934E-037
  -2.7299999999999998E-002     5.3403772846120190E-037
  -2.7250000000000000E-002     9.8354100217797709E-037
  -2.7200000000000002E-002     1.3492271589117866E-036
  -2.7150000000000001E-002     1.4669571860225233E-036
  -2.7099999999999999E-002     1.1850397469720883E-036
  -2.7049999999999998E-002     4.2411621832788086E-037
  -2.7000000000000000E-002    -7.7048454383811595E-037
  -2.6950000000000002E-002    -2.2014056105499337E-036
  -2.6900000000000000E-002    -3.5326549348545737E-036
  -2.6849999999999999E-002    -4.3506982534625662E-036
  -2.6800000000000001E-002    -4.2621453631871496E-036
  -2.6749999999999999E-002    -3.0162920591211984E-036
  -2.6700000000000002E-002    -6.1342552148833138E-037
  -2.6650000000000000E-002     2.6345298590386492E-036
  -2.6599999999999999E-002     6.1219965917069937E-036
  -2.6550000000000001E-002     9.0568520288134749E-036
  -2.6500000000000003E-002     1.0639669678250345E-035
  -2.6450000000000001E-002     1.0270536669240791E-035
  -2.6400000000000000E-002     7.7207733185040460E-036
  -2.6349999999999998E-002     3.2060076839825262E-036
  -2.6300000000000000E-002    -2.6766077558391396E-036
  -2.6250000000000002E-002    -9.1318641566379267E-036
  -2.6200000000000001E-002    -1.5400398034781780E-035
  -2.6150000000000000E-002    -2.0927601817266251E-035
  -2.6099999999999998E-002    -2.5351685869042847E-035
  -2.6050000000000000E-002    -2.8254529430489744E-035
  -2.6000000000000002E-002    -2.8733229954469818E-035
  -2.5950000000000001E-002    -2.4992085414405253E-035
  -2.5899999999999999E-002    -1.4263564516432197E-035
  -2.5849999999999998E-002     6.6227919194722792E-036
  -2.5800000000000000E-002     3.9847955312961601E-035
  -2.5750000000000002E-002     8.4518797771779828E-035
  -2.5700000000000001E-002     1.3443689269573087E-034
  -2.5649999999999999E-002     1.7665908053919879E-034
  -2.5599999999999998E-002     1.9198319895044446E-034
  -2.5550000000000000E-002     1.5831076969217169E-034
  -2.5500000000000002E-002     5.7176495546731343E-035
  -2.5450000000000000E-002    -1.1737270528018734E-034
  -2.5399999999999999E-002    -3.4968723550263502E-034
  -2.5349999999999998E-002    -5.9647842740647401E-034
  -2.5300000000000000E-002    -7.8752131695514953E-034
  -2.5250000000000002E-002    -8.3603450565509681E-034
  -2.5200000000000000E-002    -6.5954232267557436E-034
  -2.5149999999999999E-002    -2.0870416662024439E-034
  -2.5100000000000001E-002     5.0220836877880369E-034
  -2.5049999999999999E-002     1.3726510069123133E-033
  -2.5000000000000001E-002     2.2115727597358563E-033
  -2.4950000000000000E-002     2.7602267178411117E-033
  -2.4899999999999999E-002     2.7450291765257125E-033
  -2.4850000000000001E-002     1.9548461341797113E-033
  -2.4800000000000003E-002     3.2721960072769907E-034
  -2.4750000000000001E-002    -1.9801561016078339E-033
  -2.4700000000000000E-002    -4.5597955822573631E-033
  -2.4649999999999998E-002    -6.7895106143230650E-033
  -2.4600000000000000E-002    -7.9423910617751197E-033
  -2.4550000000000002E-002    -7.3618755982100127E-033
  -2.4500000000000001E-002    -4.6692586792810302E-033
  -2.4450000000000000E-002     4.8500776034707207E-035
  -2.4399999999999998E-002     6.1316268572572080E-033
  -2.4350000000000000E-002     1.2374414977675440E-032
  -2.4299999999999999E-002     1.7213455253837093E-032
  -2.4250000000000001E-002     1.9063140697132583E-032
  -2.4199999999999999E-002     1.6736840836813004E-032
  -2.4150000000000001E-002     9.8519197744873829E-033
  -2.4100000000000000E-002    -9.0154925315159447E-034
  -2.4049999999999998E-002    -1.3733922696181884E-032
  -2.4000000000000000E-002    -2.6025542020306584E-032
  -2.3949999999999999E-002    -3.4868286139074965E-032
  -2.3900000000000001E-002    -3.7766891170591860E-032
  -2.3850000000000000E-002    -3.3318244910800493E-032
  -2.3800000000000002E-002    -2.1662963242012447E-032
  -2.3750000000000000E-002    -4.5433550378313470E-033
  -2.3699999999999999E-002     1.5093348303583449E-032
  -2.3650000000000001E-002     3.3861459944615181E-032
  -2.3599999999999999E-002     4.8842304788199899E-032
  -2.3550000000000001E-002     5.8306755686448757E-032
  -2.3500000000000000E-002     6.1946637083656848E-032
  -2.3449999999999999E-002     6.0444539857478877E-032
  -2.3400000000000001E-002     5.4459596260031597E-032
  -2.3349999999999999E-002     4.3395824483552533E-032
  -2.3300000000000001E-002     2.4549428720979910E-032
  -2.3250000000000000E-002    -6.7126122055700722E-033
  -2.3199999999999998E-002    -5.5292058228282215E-032
  -2.3150000000000000E-002    -1.2324044258830666E-031
  -2.3099999999999999E-002    -2.0586606161542597E-031
  -2.3050000000000001E-002    -2.8841093881718207E-031
  -2.3000000000000000E-002    -3.4504347274760462E-031
  -2.2950000000000002E-002    -3.4180403697241751E-031
  -2.2900000000000000E-002    -2.4435894601654041E-031
  -2.2849999999999999E-002    -2.9991680275514733E-032
  -2.2800000000000001E-002     2.9853782731780432E-031
  -2.2749999999999999E-002     7.0131405273959144E-031
  -2.2700000000000001E-002     1.0967299372030466E-030
  -2.2650000000000000E-002     1.3686159629824991E-030
  -2.2599999999999999E-002     1.3874201268925140E-030
  -2.2550000000000001E-002     1.0441064474047832E-030
  -2.2499999999999999E-002     2.9083665245985768E-031
  -2.2450000000000001E-002    -8.2179335575205461E-031
  -2.2400000000000000E-002    -2.1236352463697981E-030
  -2.2349999999999998E-002    -3.3319520076781890E-030
  -2.2300000000000000E-002    -4.0936673124464188E-030
  -2.2249999999999999E-002    -4.0616767869496083E-030
  -2.2200000000000001E-002    -2.9933291789544514E-030
  -2.2150000000000000E-002    -8.4901540819285429E-031
  -2.2100000000000002E-002     2.1376423490143533E-030
  -2.2050000000000000E-002     5.4461309592282024E-030
  -2.1999999999999999E-002     8.3311581355429612E-030
  -2.1950000000000001E-002     9.9627571675365856E-030
  -2.1899999999999999E-002     9.6245942715336187E-030
  -2.1850000000000001E-002     6.9289813771769288E-030
  -2.1800000000000000E-002     1.9924534613592409E-030
  -2.1749999999999999E-002    -4.4857441333799323E-030
  -2.1700000000000001E-002    -1.1284781650217650E-029
  -2.1649999999999999E-002    -1.6874441025435527E-029
  -2.1600000000000001E-002    -1.9748846436514328E-029
  -2.1550000000000000E-002    -1.8811374064702239E-029
  -2.1499999999999998E-002    -1.3712458926991250E-029
  -2.1450000000000000E-002    -5.0381124375291284E-030
  -2.1399999999999999E-002     5.7267405134875713E-030
  -2.1350000000000001E-002     1.6481796707347709E-029
  -2.1299999999999999E-002     2.4992596417967506E-029
  -2.1250000000000002E-002     2.9452069535180014E-029
  -2.1200000000000000E-002     2.8962318538510232E-029
  -2.1149999999999999E-002     2.3777635561833442E-029
  -2.1100000000000001E-002     1.5203958049403203E-029
  -2.1049999999999999E-002     5.1495760446981910E-030
  -2.1000000000000001E-002    -4.5571654452090549E-030
  -2.0950000000000000E-002    -1.2861356053275730E-029
  -2.0899999999999998E-002    -1.9915246512760704E-029
  -2.0850000000000000E-002    -2.7017323599280356E-029
  -2.0799999999999999E-002    -3.5954827204636785E-029
  -2.0750000000000001E-002    -4.7853421050608427E-029
  -2.0700000000000000E-002    -6.1863088689515550E-029
  -2.0649999999999998E-002    -7.4181333702951072E-029
  -2.0600000000000000E-002    -7.7955738762695982E-029
  -2.0549999999999999E-002    -6.4465644063516152E-029
  -2.0500000000000001E-002    -2.5652840702090605E-029
  -2.0449999999999999E-002     4.2390451402078866E-029
  -2.0400000000000001E-002     1.3584472959341660E-028
  -2.0350000000000000E-002     2.4070262548851457E-028
  -2.0299999999999999E-002     3.3267610757314955E-028
  -2.0250000000000001E-002     3.8037463843021935E-028
  -2.0199999999999999E-002     3.5191574278123086E-028
  -2.0150000000000001E-002     2.2411063283989662E-028
  -2.0100000000000000E-002    -7.6908632783216938E-030
  -2.0049999999999998E-002    -3.2178954653110875E-028
  -2.0000000000000000E-002    -6.6725228959918672E-028
  -1.9949999999999999E-002    -9.6824319876353056E-028
  -1.9900000000000001E-002    -1.1364342285421839E-027
  -1.9850000000000000E-002    -1.0903153667013662E-027
  -1.9799999999999998E-002    -7.7800917836251843E-028
  -1.9750000000000000E-002    -1.9838780188151894E-028
  -1.9699999999999999E-002     5.8549079914527496E-028
  -1.9650000000000001E-002     1.4459323708729645E-027
  -1.9599999999999999E-002     2.2061895365527511E-027
  -1.9550000000000001E-002     2.6715565696437392E-027
  -1.9500000000000000E-002     2.6713508879549093E-027
  -1.9449999999999999E-002     2.1034723931844822E-027
  -1.9400000000000001E-002     9.7105850122383044E-028
  -1.9349999999999999E-002    -5.9901533178208822E-028
  -1.9300000000000001E-002    -2.3631622900407920E-027
  -1.9250000000000000E-002    -3.9957609289462646E-027
  -1.9199999999999998E-002    -5.1470478243359613E-027
  -1.9150000000000000E-002    -5.5136059315779075E-027
  -1.9099999999999999E-002    -4.9065264175450969E-027
  -1.9050000000000001E-002    -3.3014974373246028E-027
  -1.9000000000000000E-002    -8.5819518153774862E-028
  -1.8949999999999998E-002     2.0969946214875895E-027
  -1.8900000000000000E-002     5.1221647752071778E-027
  -1.8849999999999999E-002     7.7338519003125865E-027
  -1.8800000000000001E-002     9.4869068169753610E-027
  -1.8749999999999999E-002     1.0042395897028803E-026
  -1.8700000000000001E-002     9.2098666213718123E-027
  -1.8650000000000000E-002     6.9589622063196673E-027
  -1.8599999999999998E-002     3.4057691820989389E-027
  -1.8550000000000001E-002    -1.2119753126969013E-027
  -1.8499999999999999E-002    -6.5532343295487774E-027
  -1.8450000000000001E-002    -1.2171906862279524E-026
  -1.8400000000000000E-002    -1.7492804108630987E-026
  -1.8349999999999998E-002    -2.1779418213163802E-026
  -1.8300000000000000E-002    -2.4123164489052208E-026
  -1.8249999999999999E-002    -2.3492471978188616E-026
  -1.8200000000000001E-002    -1.8875531895182290E-026
  -1.8149999999999999E-002    -9.5297892027402480E-027
  -1.8100000000000002E-002     4.6835034390394728E-027
  -1.8050000000000000E-002     2.2944706244312709E-026
  -1.7999999999999999E-002     4.3204131878726823E-026
  -1.7950000000000001E-002     6.2116827363351858E-026
  -1.7899999999999999E-002     7.5295411327745185E-026
  -1.7850000000000001E-002     7.7943456210685485E-026
  -1.7800000000000000E-002     6.5845437839788574E-026
  -1.7749999999999998E-002     3.6581763016489207E-026
  -1.7700000000000000E-002    -9.2704755198706984E-027
  -1.7649999999999999E-002    -6.7263439032375588E-026
  -1.7600000000000001E-002    -1.2885782415007865E-025
  -1.7550000000000000E-002    -1.8211076473911661E-025
  -1.7499999999999998E-002    -2.1337314231641827E-025
  -1.7450000000000000E-002    -2.0987255909232711E-025
  -1.7399999999999999E-002    -1.6280708373999308E-025
  -1.7350000000000001E-002    -7.0356429513604010E-026
  -1.7299999999999999E-002     6.0112533074439585E-026
  -1.7250000000000001E-002     2.1134878496012869E-025
  -1.7200000000000000E-002     3.5754200123790761E-025
  -1.7149999999999999E-002     4.6782736653159551E-025
  -1.7100000000000001E-002     5.1166384196806837E-025
  -1.7049999999999999E-002     4.6529482309662676E-025
  -1.7000000000000001E-002     3.1810043135502745E-025
  -1.6950000000000000E-002     7.7454804459878378E-026
  -1.6899999999999998E-002    -2.2922408020300795E-025
  -1.6850000000000000E-002    -5.5615752124306402E-025
  -1.6799999999999999E-002    -8.4490608879571223E-025
  -1.6750000000000001E-002    -1.0335615598644675E-024
  -1.6700000000000000E-002    -1.0681052558893929E-024
  -1.6649999999999998E-002    -9.1398375402093590E-025
  -1.6600000000000000E-002    -5.6566150682168926E-025
  -1.6549999999999999E-002    -5.2046841406896837E-026
  -1.6500000000000001E-002     5.6371842111047920E-025
  -1.6449999999999999E-002     1.1906906170445834E-024
  -1.6400000000000001E-002     1.7222356473470255E-024
  -1.6350000000000000E-002     2.0521992588188195E-024
  -1.6299999999999999E-002     2.0927050922597232E-024
  -1.6250000000000001E-002     1.7907501472732084E-024
  -1.6199999999999999E-002     1.1408745050241908E-024
  -1.6150000000000001E-002     1.9176543605630033E-025
  -1.6100000000000000E-002    -9.5447471089508379E-025
  -1.6049999999999998E-002    -2.1506317723056952E-024
  -1.6000000000000000E-002    -3.2195573701059726E-024
  -1.5949999999999999E-002    -3.9748081718173703E-024
  -1.5900000000000001E-002    -4.2448688298992359E-024
  -1.5850000000000000E-002    -3.8988436463202472E-024
  -1.5799999999999998E-002    -2.8713048335167930E-024
  -1.5750000000000000E-002    -1.1837402587358878E-024
  -1.5699999999999999E-002     1.0403478646849258E-024
  -1.5650000000000001E-002     3.5701148582027989E-024
  -1.5599999999999999E-002     6.0754773443973886E-024
  -1.5550000000000001E-002     8.1520293563860685E-024
  -1.5500000000000000E-002     9.3648108908582893E-024
  -1.5449999999999998E-002     9.3104063410399929E-024
  -1.5400000000000000E-002     7.6929323142476408E-024
  -1.5349999999999999E-002     4.4047270147836531E-024
  -1.5300000000000001E-002    -4.0206024788586386E-025
  -1.5250000000000000E-002    -6.2701585683058766E-024
  -1.5199999999999998E-002    -1.2435826891978380E-023
  -1.5150000000000000E-002    -1.7885729696081094E-023
  -1.5099999999999999E-002    -2.1478412985315764E-023
  -1.5050000000000001E-002    -2.2124664629000115E-023
  -1.4999999999999999E-002    -1.9006833210301889E-023
  -1.4949999999999998E-002    -1.1802810374264319E-023
  -1.4900000000000000E-002    -8.7023508781119747E-025
  -1.4849999999999999E-002     1.2657082507342583E-023
  -1.4800000000000001E-002     2.6901933194864153E-023
  -1.4749999999999999E-002     3.9430168218696826E-023
  -1.4700000000000001E-002     4.7588852467270030E-023
  -1.4650000000000000E-002     4.8962129151952987E-023
  -1.4599999999999998E-002     4.1879374081763936E-023
  -1.4550000000000000E-002     2.5885358345870270E-023
  -1.4499999999999999E-002     2.0720132916383956E-024
  -1.4450000000000001E-002    -2.6820464655686797E-023
  -1.4400000000000000E-002    -5.6596431033273707E-023
  -1.4349999999999998E-002    -8.2107907098773723E-023
  -1.4300000000000000E-002    -9.8026359572974531E-023
  -1.4249999999999999E-002    -9.9782120900475668E-023
  -1.4200000000000001E-002    -8.4522193385253084E-023
  -1.4149999999999999E-002    -5.1910915860102398E-023
  -1.4099999999999998E-002    -4.6021558605690124E-024
  -1.4050000000000000E-002     5.1751372959436106E-023
  -1.3999999999999999E-002     1.0901825129334817E-022
  -1.3950000000000001E-002     1.5761739136268853E-022
  -1.3899999999999999E-002     1.8794169055150502E-022
  -1.3850000000000001E-002     1.9198004129393219E-022
  -1.3800000000000000E-002     1.6488546719345444E-022
  -1.3749999999999998E-002     1.0622076132274557E-022
  -1.3700000000000000E-002     2.0640515303930700E-023
  -1.3649999999999999E-002    -8.2162212613834495E-023
  -1.3600000000000001E-002    -1.8831506264305074E-022
  -1.3550000000000000E-002    -2.8138254372670271E-022
  -1.3499999999999998E-002    -3.4457399940010190E-022
  -1.3450000000000000E-002    -3.6327673238452545E-022
  -1.3399999999999999E-002    -3.2758239927022273E-022
  -1.3350000000000001E-002    -2.3444476024143489E-022
  -1.3299999999999999E-002    -8.9127164064305179E-023
  -1.3249999999999998E-002     9.4347074697526154E-023
  -1.3200000000000000E-002     2.9393072511052787E-022
  -1.3149999999999998E-002     4.8154219959526517E-022
  -1.3100000000000001E-002     6.2622898431748549E-022
  -1.3049999999999999E-002     6.9826674623634138E-022
  -1.3000000000000001E-002     6.7379695993774140E-022
  -1.2950000000000000E-002     5.3945573653986548E-022
  -1.2899999999999998E-002     2.9633483454317714E-022
  -1.2850000000000000E-002    -3.7441657588336603E-023
  -1.2799999999999999E-002    -4.2620760343280604E-022