  -4.0000000000000001E-002     0.0000000000000000     
  -3.9949999999999999E-002     0.0000000000000000     
  -3.9899999999999998E-002     0.0000000000000000     
  -3.9850000000000003E-002     0.0000000000000000     
  -3.9800000000000002E-002     0.0000000000000000     
  -3.9750000000000001E-002     0.0000000000000000     
  -3.9699999999999999E-002     0.0000000000000000     
  -3.9649999999999998E-002     0.0000000000000000     
  -3.9600000000000003E-002     0.0000000000000000     
  -3.9550000000000002E-002     0.0000000000000000     
  -3.9500000000000000E-002     0.0000000000000000     
  -3.9449999999999999E-002     0.0000000000000000     
  -3.9399999999999998E-002     0.0000000000000000     
  -3.9350000000000003E-002     0.0000000000000000     
  -3.9300000000000002E-002     0.0000000000000000     
  -3.9250000000000000E-002     0.0000000000000000     
  -3.9199999999999999E-002     0.0000000000000000     
  -3.9150000000000004E-002     0.0000000000000000     
  -3.9100000000000003E-002     0.0000000000000000     
  -3.9050000000000001E-002     0.0000000000000000     
  -3.9000000000000000E-002     0.0000000000000000     
  -3.8949999999999999E-002     0.0000000000000000     
  -3.8900000000000004E-002     0.0000000000000000     
  -3.8850000000000003E-002     0.0000000000000000     
  -3.8800000000000001E-002     0.0000000000000000     
  -3.8750000000000000E-002     0.0000000000000000     
  -3.8699999999999998E-002     0.0000000000000000     
  -3.8650000000000004E-002     0.0000000000000000     
  -3.8600000000000002E-002     0.0000000000000000     
  -3.8550000000000001E-002     0.0000000000000000     
  -3.8500000000000000E-002     0.0000000000000000     
  -3.8449999999999998E-002     0.0000000000000000     
  -3.8400000000000004E-002     0.0000000000000000     
  -3.8350000000000002E-002     0.0000000000000000     
  -3.8300000000000001E-002     0.0000000000000000     
  -3.8249999999999999E-002     0.0000000000000000     
  -3.8199999999999998E-002     0.0000000000000000     
  -3.8150000000000003E-002     0.0000000000000000     
  -3.8100000000000002E-002     0.0000000000000000     
  -3.8050000000000000E-002     0.0000000000000000     
  -3.7999999999999999E-002     0.0000000000000000     
  -3.7949999999999998E-002     0.0000000000000000     
  -3.7900000000000003E-002     0.0000000000000000     
  -3.7850000000000002E-002     0.0000000000000000     
  -3.7800000000000000E-002     0.0000000000000000     
  -3.7749999999999999E-002     0.0000000000000000     
  -3.7699999999999997E-002     0.0000000000000000     
  -3.7650000000000003E-002     0.0000000000000000     
  -3.7600000000000001E-002     0.0000000000000000     
  -3.7550000000000000E-002     0.0000000000000000     
  -3.7499999999999999E-002     0.0000000000000000     
  -3.7449999999999997E-002     0.0000000000000000     
  -3.7400000000000003E-002     0.0000000000000000     
  -3.7350000000000001E-002     0.0000000000000000     
  -3.7300000000000000E-002     0.0000000000000000     
  -3.7249999999999998E-002     0.0000000000000000     
  -3.7200000000000004E-002     0.0000000000000000     
  -3.7150000000000002E-002     0.0000000000000000     
  -3.7100000000000001E-002     0.0000000000000000     
  -3.7050000000000000E-002     0.0000000000000000     
  -3.6999999999999998E-002     0.0000000000000000     
  -3.6950000000000004E-002     0.0000000000000000     
  -3.6900000000000002E-002     0.0000000000000000     
  -3.6850000000000001E-002     0.0000000000000000     
  -3.6799999999999999E-002     0.0000000000000000     
  -3.6749999999999998E-002     0.0000000000000000     
  -3.6700000000000003E-002     0.0000000000000000     
  -3.6650000000000002E-002     0.0000000000000000     
  -3.6600000000000001E-002     0.0000000000000000     
  -3.6549999999999999E-002     0.0000000000000000     
  -3.6499999999999998E-002     0.0000000000000000     
  -3.6450000000000003E-002     0.0000000000000000     
  -3.6400000000000002E-002     0.0000000000000000     
  -3.6350000000000000E-002     0.0000000000000000     
  -3.6299999999999999E-002     0.0000000000000000     
  -3.6249999999999998E-002     0.0000000000000000     
  -3.6200000000000003E-002     0.0000000000000000     
  -3.6150000000000002E-002     0.0000000000000000     
  -3.6100000000000000E-002     0.0000000000000000     
  -3.6049999999999999E-002     0.0000000000000000     
  -3.6000000000000004E-002     0.0000000000000000     
  -3.5950000000000003E-002     0.0000000000000000     
  -3.5900000000000001E-002     0.0000000000000000     
  -3.5850000000000000E-002     0.0000000000000000     
  -3.5799999999999998E-002     0.0000000000000000     
  -3.5750000000000004E-002     0.0000000000000000     
  -3.5700000000000003E-002     0.0000000000000000     
  -3.5650000000000001E-002     0.0000000000000000     
  -3.5600000000000000E-002     0.0000000000000000     
  -3.5549999999999998E-002     0.0000000000000000     
  -3.5500000000000004E-002     0.0000000000000000     
  -3.5450000000000002E-002     0.0000000000000000     
  -3.5400000000000001E-002     0.0000000000000000     
  -3.5349999999999999E-002     0.0000000000000000     
  -3.5299999999999998E-002     0.0000000000000000     
  -3.5250000000000004E-002     0.0000000000000000     
  -3.5200000000000002E-002     0.0000000000000000     
  -3.5150000000000001E-002     0.0000000000000000     
  -3.5099999999999999E-002     0.0000000000000000     
  -3.5049999999999998E-002     0.0000000000000000     
  -3.5000000000000003E-002    -1.2982920940480227E-039
  -3.4950000000000002E-002    -1.2982920940480227E-039
  -3.4900000000000000E-002    -1.2982920940480227E-039
  -3.4849999999999999E-002     4.0516554670884306E-039
  -3.4799999999999998E-002     1.2043207817857882E-038
  -3.4750000000000003E-002     1.9690113932651538E-038
  -3.4700000000000002E-002     2.0934055196475549E-038
  -3.4650000000000000E-002     4.2465554615901505E-039
  -3.4599999999999999E-002    -3.2974946260507669E-038
  -3.4549999999999997E-002    -8.7820117929189219E-038
  -3.4500000000000003E-002    -1.3619665716574414E-037
  -3.4450000000000001E-002    -1.5262137944586309E-037
  -3.4400000000000000E-002    -1.2417651424350958E-037
  -3.4349999999999999E-002    -3.3527051854845121E-038
  -3.4299999999999997E-002     1.2144843033866731E-037
  -3.4250000000000003E-002     3.2854391282225235E-037
  -3.4200000000000001E-002     5.6435649563101473E-037
  -3.4150000000000000E-002     7.6707075362412485E-037
  -3.4099999999999998E-002     8.5980693991709166E-037
  -3.4049999999999997E-002     7.2675973042362000E-037
  -3.4000000000000002E-002     2.5355989796896489E-037
  -3.3950000000000001E-002    -6.3301902742239451E-037
  -3.3900000000000000E-002    -1.9011983991663959E-036
  -3.3849999999999998E-002    -3.3579657677864542E-036
  -3.3799999999999997E-002    -4.6180638984848239E-036
  -3.3750000000000002E-002    -5.1312996989108773E-036
  -3.3700000000000001E-002    -4.2885174755462215E-036
  -3.3649999999999999E-002    -1.6017649982216668E-036
  -3.3599999999999998E-002     3.0638138012600870E-036
  -3.3550000000000003E-002     9.2758138631584120E-036
  -3.3500000000000002E-002     1.5917947090848318E-035
  -3.3450000000000001E-002     2.1253609861546561E-035
  -3.3399999999999999E-002     2.3216170970337898E-035
  -3.3349999999999998E-002     1.9907442379369566E-035
  -3.3300000000000003E-002     1.0199949058786750E-035
  -3.3250000000000002E-002    -5.7287435837893870E-036
  -3.3200000000000000E-002    -2.6127677127435884E-035
  -3.3149999999999999E-002    -4.7818517603418559E-035
  -3.3099999999999997E-002    -6.6776403700293413E-035
  -3.3050000000000003E-002    -7.8998031216062672E-035
  -3.3000000000000002E-002    -8.1349520755593383E-035
  -3.2950000000000000E-002    -7.2036194409176648E-035
  -3.2899999999999999E-002    -5.0441980340170311E-035
  -3.2850000000000004E-002    -1.6360459405622399E-035
  -3.2800000000000003E-002     3.0995808005484757E-035
  -3.2750000000000001E-002     9.3523887986177434E-035
  -3.2700000000000000E-002     1.7356271794361899E-034
  -3.2649999999999998E-002     2.7161293539553797E-034
  -3.2600000000000004E-002     3.8268751606232572E-034
  -3.2550000000000003E-002     4.9231527986989910E-034
  -3.2500000000000001E-002     5.7375532686640616E-034
  -3.2450000000000000E-002     5.8792519429342390E-034
  -3.2399999999999998E-002     4.8679268645786163E-034
  -3.2350000000000004E-002     2.1983311814854049E-034
  -3.2300000000000002E-002    -2.5767151526309717E-034
  -3.2250000000000001E-002    -9.7538134361277607E-034
  -3.2199999999999999E-002    -1.9366860908215951E-033
  -3.2149999999999998E-002    -3.1017258496110017E-033
  -3.2100000000000004E-002    -4.3591823056123261E-033
  -3.2050000000000002E-002    -5.4838984926278184E-033
  -3.2000000000000001E-002    -6.0867564577642909E-033
  -3.1949999999999999E-002    -5.5796780584461304E-033
  -3.1899999999999998E-002    -3.1977230822054468E-033
  -3.1850000000000003E-002     1.8678130648697790E-033
  -3.1800000000000002E-002     1.0180109581744568E-032
  -3.1750000000000000E-002     2.1607730923732995E-032
  -3.1699999999999999E-002     3.4789840198019394E-032
  -3.1649999999999998E-002     4.6690048049506292E-032
  -3.1600000000000003E-002     5.2502036002089779E-032
  -3.1550000000000002E-002     4.6197297033834958E-032
  -3.1500000000000000E-002     2.1919278339059890E-032
  -3.1449999999999999E-002    -2.3799827887660477E-032
  -3.1399999999999997E-002    -8.9374054531017068E-032
  -3.1350000000000003E-002    -1.6581315289509438E-031
  -3.1300000000000001E-002    -2.3573102942058517E-031
  -3.1250000000000000E-002    -2.7476336346872055E-031
  -3.1199999999999999E-002    -2.5604237754526860E-031
  -3.1150000000000001E-002    -1.5754836140061231E-031
  -3.1100000000000003E-002     2.8952794183932801E-032
  -3.1050000000000001E-002     2.8974300470231926E-031
  -3.1000000000000000E-002     5.8471527675349157E-031
  -3.0949999999999998E-002     8.4936330203651405E-031
  -3.0900000000000000E-002     1.0045936110178048E-030
  -3.0850000000000002E-002     9.7358405966510942E-031
  -3.0800000000000001E-002     7.0244853622156603E-031
  -3.0750000000000000E-002     1.7956691596688633E-031
  -3.0699999999999998E-002    -5.5206512151268847E-031
  -3.0650000000000000E-002    -1.3937208855593006E-030
  -3.0600000000000002E-002    -2.2022588142140794E-030
  -3.0550000000000001E-002    -2.8113391586302543E-030
  -3.0499999999999999E-002    -3.0570981092482410E-030
  -3.0449999999999998E-002    -2.8022372028736701E-030
  -3.0400000000000000E-002    -1.9548208473866482E-030
  -3.0350000000000002E-002    -4.8259050129435870E-031
  -3.0300000000000001E-002     1.5719485809011092E-030
  -3.0249999999999999E-002     4.0690986628049531E-030
  -3.0200000000000001E-002     6.7400363606667908E-030
  -3.0150000000000000E-002     9.1536236297334205E-030
  -3.0100000000000002E-002     1.0703705023517848E-029
  -3.0050000000000000E-002     1.0648735361863743E-029
  -2.9999999999999999E-002     8.2344611678536992E-030
  -2.9950000000000001E-002     2.9118428878289948E-030
  -2.9899999999999999E-002    -5.3739959794732409E-030
  -2.9850000000000002E-002    -1.5894214537199870E-029
  -2.9800000000000000E-002    -2.6955999278963894E-029
  -2.9749999999999999E-002    -3.5953765962867129E-029
  -2.9700000000000001E-002    -3.9741319841813301E-029
  -2.9650000000000003E-002    -3.5332668036467757E-029
  -2.9600000000000001E-002    -2.0822552108516666E-029
  -2.9550000000000000E-002     3.6984954714470252E-030
  -2.9499999999999998E-002     3.5529618461538021E-029
  -2.9450000000000000E-002     6.9321924091485204E-029
  -2.9400000000000003E-002     9.7768816298696343E-029
  -2.9350000000000001E-002     1.1296712563289294E-028
  -2.9300000000000000E-002     1.0816146590026032E-028
  -2.9249999999999998E-002     7.9423387043599596E-029
  -2.9200000000000000E-002     2.6804403151796594E-029
  -2.9150000000000002E-002    -4.5327441799818559E-029
  -2.9100000000000001E-002    -1.2874972081474927E-028
  -2.9049999999999999E-002    -2.1230652455624404E-028
  -2.8999999999999998E-002    -2.8278388422801082E-028
  -2.8950000000000000E-002    -3.2536844327918633E-028
  -2.8900000000000002E-002    -3.2377880804626785E-028
  -2.8850000000000001E-002    -2.6080693312349937E-028
  -2.8799999999999999E-002    -1.2052163496804168E-028
  -2.8749999999999998E-002     1.0662858903545114E-028
  -2.8700000000000000E-002     4.1543259717747795E-028
  -2.8650000000000002E-002     7.7560929661342969E-028
  -2.8600000000000000E-002     1.1231315805379590E-027
  -2.8549999999999999E-002     1.3585556402020064E-027
  -2.8500000000000001E-002     1.3580686945572776E-027
  -2.8450000000000000E-002     1.0008507623915163E-027
  -2.8400000000000002E-002     2.1149220831977910E-028
  -2.8350000000000000E-002    -9.9067117726304165E-028
  -2.8299999999999999E-002    -2.4503575757793745E-027
  -2.8250000000000001E-002    -3.8624608746971172E-027
  -2.8200000000000003E-002    -4.8031234128731432E-027
  -2.8150000000000001E-002    -4.8144026093657453E-027
  -2.8100000000000000E-002    -3.5351795891151684E-027
  -2.8049999999999999E-002    -8.5139358387321380E-028
  -2.8000000000000001E-002     2.9783916640380206E-027
  -2.7950000000000003E-002     7.2733675449908071E-027
  -2.7900000000000001E-002     1.0999485589044335E-026
  -2.7850000000000000E-002     1.2972949014435396E-026
  -2.7799999999999998E-002     1.2172897974748339E-026
  -2.7750000000000000E-002     8.0927878542447083E-027
  -2.7700000000000002E-002     1.0258981733162477E-027
  -2.7650000000000001E-002    -7.8269215405270755E-027
  -2.7600000000000000E-002    -1.6509284082947748E-026
  -2.7549999999999998E-002    -2.2735838305318115E-026
  -2.7500000000000000E-002    -2.4517513697937956E-026
  -2.7450000000000002E-002    -2.0821497130366664E-026
  -2.7400000000000001E-002    -1.2049397418460421E-026
  -2.7349999999999999E-002    -1.2818697142781269E-028
  -2.7299999999999998E-002     1.1902998163837184E-026
  -2.7250000000000000E-002     2.0773227592347650E-026
  -2.7200000000000002E-002     2.4110289819811068E-026
  -2.7150000000000001E-002     2.1456668322256676E-026
  -2.7099999999999999E-002     1.4755675897934583E-026
  -2.7049999999999998E-002     7.9831501986851109E-027
  -2.7000000000000000E-002     5.8375971188949879E-027
  -2.6950000000000002E-002     1.1740338386297999E-026
  -2.6900000000000000E-002     2.5737020209157637E-026
  -2.6849999999999999E-002     4.3111107766871867E-026
  -2.6800000000000001E-002     5.4499733915708749E-026
  -2.6749999999999999E-002     4.7985550825315687E-026
  -2.6700000000000002E-002     1.3048071783084187E-026
  -2.6650000000000000E-002    -5.4465108917401336E-026
  -2.6599999999999999E-002    -1.4783111021877220E-025
  -2.6550000000000001E-002    -2.4720386964653710E-025
  -2.6500000000000003E-002    -3.2119960202953624E-025
  -2.6450000000000001E-002    -3.3306372508995016E-025
  -2.6400000000000000E-002    -2.5084994732106214E-025
  -2.6349999999999998E-002    -5.9541053871648126E-026
  -2.6300000000000000E-002     2.2819050854995375E-025
  -2.6250000000000002E-002     5.6639024066456107E-025
  -2.6200000000000001E-002     8.7862074472028084E-025
  -2.6150000000000000E-002     1.0706471869481493E-024
  -2.6099999999999998E-002     1.0518839107434024E-024
  -2.6050000000000000E-002     7.6159137084951079E-025
  -2.6000000000000002E-002     1.9347463709213377E-025
  -2.5950000000000001E-002    -5.8861997652604366E-025
  -2.5899999999999999E-002    -1.4502320937565790E-024
  -2.5849999999999998E-002    -2.2043654157811140E-024
  -2.5800000000000000E-002    -2.6469325779604253E-024
  -2.5750000000000002E-002    -2.6034343023146319E-024
  -2.5700000000000001E-002    -1.9766861387052972E-024
  -2.5649999999999999E-002    -7.8357286652489541E-025
  -2.5599999999999998E-002     8.3000251105352683E-025
  -2.5550000000000000E-002     2.6024920315156038E-024
  -2.5500000000000002E-002     4.1983896450061094E-024
  -2.5450000000000000E-002     5.2709835409896498E-024
  -2.5399999999999999E-002     5.5330754273174033E-024
  -2.5349999999999998E-002     4.8197759191034071E-024
  -2.5300000000000000E-002     3.1287989026124784E-024
  -2.5250000000000002E-002     6.2904870595373388E-025
  -2.5200000000000000E-002    -2.3638228810836339E-024
  -2.5149999999999999E-002    -5.4377497480408935E-024
  -2.5100000000000001E-002    -8.1472393429989197E-024
  -2.5049999999999999E-002    -1.0073739455184515E-023
  -2.5000000000000001E-002    -1.0871100377630757E-023
  -2.4950000000000000E-002    -1.0291035224112970E-023
  -2.4899999999999999E-002    -8.1924261682874264E-024
  -2.4850000000000001E-002    -4.5458016034420910E-024
  -2.4800000000000003E-002     5.5269635688880706E-025
  -2.4750000000000001E-002     6.8476740843156579E-024
  -2.4700000000000000E-002     1.3871157523762861E-023
  -2.4649999999999998E-002     2.0884336756452666E-023
  -2.4600000000000000E-002     2.6843413379010595E-023
  -2.4550000000000002E-002     3.0426929584456440E-023
  -2.4500000000000001E-002     3.0159762152926993E-023
  -2.4450000000000000E-002     2.4653250930435981E-023
  -2.4399999999999998E-002     1.2952430721870567E-023
  -2.4350000000000000E-002    -5.0548311559897599E-024
  -2.4299999999999999E-002    -2.8249038392464022E-023
  -2.4250000000000001E-002    -5.4019088742335098E-023
  -2.4199999999999999E-002    -7.8246949063597327E-023
  -2.4150000000000001E-002    -9.5633004236920864E-023
  -2.4100000000000000E-002    -1.0040826372408413E-022
  -2.4049999999999998E-002    -8.7404409047731865E-023
  -2.4000000000000000E-002    -5.3360559100759752E-023
  -2.3949999999999999E-002     1.7464621190852771E-024
  -2.3900000000000001E-002     7.3633861408192633E-023
  -2.3850000000000000E-002     1.5322343307991507E-022
  -2.3800000000000002E-002     2.2701952975968657E-022
  -2.3750000000000000E-002     2.7854342426724448E-022
  -2.3699999999999999E-002     2.9084209582497117E-022
  -2.3650000000000001E-002     2.4986173337145855E-022
  -2.3599999999999999E-002     1.4822522031336720E-022
  -2.3550000000000001E-002    -1.1274716390629399E-023
  -2.3500000000000000E-002    -2.1330148758786902E-022
  -2.3449999999999999E-002    -4.2955632354769049E-022
  -2.3400000000000001E-002    -6.2097241283989783E-022
  -2.3349999999999999E-002    -7.4279349897929180E-022
  -2.3300000000000001E-002    -7.5225281300927485E-022
  -2.3250000000000000E-002    -6.1791412736869335E-022
  -2.3199999999999998E-002    -3.2911172927762205E-022
  -2.3150000000000000E-002     9.6513501903806452E-023
  -2.3099999999999999E-002     6.0949112104752823E-022
  -2.3050000000000001E-002     1.1307704718196652E-021
  -2.3000000000000000E-002     1.5606705161176435E-021
  -2.2950000000000002E-002     1.7942092987724590E-021
  -2.2900000000000000E-002     1.7410301918341088E-021
  -2.2849999999999999E-002     1.3467398404655366E-021
  -2.2800000000000001E-002     6.1149267614808676E-022
  -2.2749999999999999E-002    -3.9861673899360895E-022
  -2.2700000000000001E-002    -1.5511248298895050E-021
  -2.2650000000000000E-002    -2.6598954337353584E-021
  -2.2599999999999999E-002    -3.5107397766952829E-021
  -2.2550000000000001E-002    -3.8970368279256516E-021
  -2.2499999999999999E-002    -3.6599229647666444E-021
  -2.2450000000000001E-002    -2.7258847719145682E-021
  -2.2400000000000000E-002    -1.1341392663762029E-021
  -2.2349999999999998E-002     9.5276653246346683E-022
  -2.2300000000000000E-002     3.2591999481458666E-021
  -2.2249999999999999E-002     5.4280500144731660E-021
  -2.2200000000000001E-002     7.0703118121902932E-021
  -2.2150000000000000E-002     7.8257483799098392E-021
  -2.2100000000000002E-002     7.4253849307895667E-021
  -2.2050000000000000E-002     5.7458702267351232E-021
  -2.1999999999999999E-002     2.8467331377663814E-021
  -2.1950000000000001E-002    -1.0159399960219667E-021
  -2.1899999999999999E-002    -5.4024978972975345E-021
  -2.1850000000000001E-002    -9.7290001260194865E-021
  -2.1800000000000000E-002    -1.3329302675844779E-020
  -2.1749999999999999E-002    -1.5534374331599321E-020
  -2.1700000000000001E-002    -1.5761886011113425E-020
  -2.1649999999999999E-002    -1.3608425498581648E-020
  -2.1600000000000001E-002    -8.9358255962938823E-021
  -2.1550000000000000E-002    -1.9419393019195454E-021
  -2.1499999999999998E-002     6.7953672250103794E-021
  -2.1450000000000000E-002     1.6313797902044644E-020
  -2.1399999999999999E-002     2.5314793217965886E-020
  -2.1350000000000001E-002     3.2274890304089702E-020
  -2.1299999999999999E-002     3.5624488741686447E-020
  -2.1250000000000002E-002     3.3987320199979289E-020
  -2.1200000000000000E-002     2.6459058614861329E-020
  -2.1149999999999999E-002     1.2887041901013573E-020
  -2.1100000000000001E-002    -5.9012624507380357E-021
  -2.1049999999999999E-002    -2.7981499864618296E-020
  -2.1000000000000001E-002    -5.0384385875611294E-020
  -2.0950000000000000E-002    -6.9356440166294239E-020
  -2.0899999999999998E-002    -8.0837898205936713E-020
  -2.0850000000000000E-002    -8.1123552727158519E-020
  -2.0799999999999999E-002    -6.7624707694215126E-020
  -2.0750000000000001E-002    -3.9608308864689099E-020
  -2.0700000000000000E-002     1.2372198818025921E-021
  -2.0649999999999998E-002     5.0561266015454762E-020
  -2.0600000000000000E-002     1.0155662482233399E-019
  -2.0549999999999999E-002     1.4567045948810700E-019
  -2.0500000000000001E-002     1.7379217030635619E-019
  -2.0449999999999999E-002     1.7779012684805539E-019
  -2.0400000000000001E-002     1.5217559618073310E-019
  -2.0350000000000000E-002     9.5605477362676135E-020
  -2.0299999999999999E-002     1.1913178746360620E-020
  -2.0250000000000001E-002    -8.9609682959335699E-020
  -2.0199999999999999E-002    -1.9486417925617960E-019
  -2.0150000000000001E-002    -2.8656913882095480E-019
  -2.0100000000000000E-002    -3.4672791011038218E-019
  -2.0049999999999998E-002    -3.5963165713188852E-019
  -2.0000000000000000E-002    -3.1494846668237716E-019
  -1.9949999999999999E-002    -2.1036845078247222E-019
  -1.9900000000000001E-002    -5.3275706123745704E-020
  -1.9850000000000000E-002     1.3898340125942224E-019
  -1.9799999999999998E-002     3.4048048048921616E-019
  -1.9750000000000000E-002     5.1972799701168350E-019
  -1.9699999999999999E-002     6.4405747876229812E-019
  -1.9650000000000001E-002     6.8480154429361658E-019
  -1.9599999999999999E-002     6.2252912147059856E-019
  -1.9550000000000001E-002     4.5148138281402983E-019
  -1.9500000000000000E-002     1.8239402496971402E-019
  -1.9449999999999999E-002    -1.5694531068679882E-019
  -1.9400000000000001E-002    -5.2376098465491265E-019
  -1.9349999999999999E-002    -8.6495812248083611E-019
  -1.9300000000000001E-002    -1.1239721923371662E-018
  -1.9250000000000000E-002    -1.2489944286507567E-018
  -1.9199999999999998E-002    -1.2014805031455744E-018
  -1.9150000000000000E-002    -9.6370144954998485E-019
  -1.9099999999999999E-002    -5.4411178675096912E-019
  -1.9050000000000001E-002     2.0486088435848244E-020
  -1.9000000000000000E-002     6.6664446904372809E-019
  -1.8949999999999998E-002     1.3100260413498530E-018
  -1.8900000000000000E-002     1.8548575202400719E-018
  -1.8849999999999999E-002     2.2061946845660592E-018
  -1.8800000000000001E-002     2.2836451854844590E-018
  -1.8749999999999999E-002     2.0348672995376584E-018
  -1.8700000000000001E-002     1.4470010265174984E-018
  -1.8650000000000000E-002     5.5423339623445942E-019
  -1.8599999999999998E-002    -5.6004320472853065E-019
  -1.8550000000000001E-002    -1.7675518117326612E-018
  -1.8499999999999999E-002    -2.9063427461261006E-018
  -1.8450000000000001E-002    -3.7984941026392433E-018
  -1.8400000000000000E-002    -4.2729884342771997E-018
  -1.8349999999999998E-002    -4.1915264123418754E-018
  -1.8300000000000000E-002    -3.4742033332741315E-018
  -1.8249999999999999E-002    -2.1213659647308569E-018
  -1.8200000000000001E-002    -2.2774198826016917E-019
  -1.8149999999999999E-002     2.0147827136170904E-018
  -1.8100000000000002E-002     4.3284442263212741E-018
  -1.8050000000000000E-002     6.3760863086837992E-018
  -1.7999999999999999E-002     7.8018587042415591E-018
  -1.7950000000000001E-002     8.2826258830530554E-018
  -1.7899999999999999E-002     7.5840781084144757E-018
  -1.7850000000000001E-002     5.6134602631048393E-018
  -1.7800000000000000E-002     2.4596317556654541E-018
  -1.7749999999999998E-002    -1.5885832149503197E-018
  -1.7700000000000000E-002    -6.0529945709776279E-018
  -1.7649999999999999E-002    -1.0309315401360633E-017
  -1.7600000000000001E-002    -1.3661940901156862E-017
  -1.7550000000000000E-002    -1.5443409865642801E-017
  -1.7499999999999998E-002    -1.5126223072014223E-017
  -1.7450000000000000E-002    -1.2430351927353839E-017
  -1.7399999999999999E-002    -7.4076872221648380E-018
  -1.7350000000000001E-002    -4.8548741201317883E-019
  -1.7299999999999999E-002     7.5448678373338684E-018
  -1.7250000000000001E-002     1.5600275637459962E-017
  -1.7200000000000000E-002     2.2436404011393518E-017
  -1.7149999999999999E-002     2.6822876890807586E-017
  -1.7100000000000001E-002     2.7740391162967971E-017
  -1.7049999999999999E-002     2.4570245777716713E-017
  -1.7000000000000001E-002     1.7244384212214038E-017
  -1.6950000000000000E-002     6.3267526656848798E-018
  -1.6899999999999998E-002    -6.9952985780283753E-018
  -1.6850000000000000E-002    -2.1018397802180756E-017
  -1.6799999999999999E-002    -3.3723219957088896E-017
  -1.6750000000000001E-002    -4.3045556353533017E-017
  -1.6700000000000000E-002    -4.7183476701421018E-017
  -1.6649999999999998E-002    -4.4896958805516695E-017
  -1.6600000000000000E-002    -3.5753669378738517E-017
  -1.6549999999999999E-002    -2.0279132707489821E-017
  -1.6500000000000001E-002     1.9382084201294703E-020
  -1.6449999999999999E-002     2.2769578151558146E-017
  -1.6400000000000001E-002     4.4986260205493841E-017
  -1.6350000000000000E-002     6.3434109611565977E-017
  -1.6299999999999999E-002     7.5059144354901537E-017
  -1.6250000000000001E-002     7.7434796557107502E-017
  -1.6199999999999999E-002     6.9162896347292084E-017
  -1.6150000000000001E-002     5.0172293717959690E-017
  -1.6100000000000000E-002     2.1866746593729652E-017
  -1.6049999999999998E-002    -1.2910013164858628E-017
  -1.6000000000000000E-002    -5.0103963449733302E-017
  -1.5949999999999999E-002    -8.4863979899359207E-017
  -1.5900000000000001E-002    -1.1210378681093313E-016
  -1.5850000000000000E-002    -1.2715707324756247E-016
  -1.5799999999999998E-002    -1.2645263581755058E-016
  -1.5750000000000000E-002    -1.0812637631514286E-016
  -1.5699999999999999E-002    -7.2484165243541316E-017
  -1.5650000000000001E-002    -2.2236918348196969E-017
  -1.5599999999999999E-002     3.7553205807862399E-017
  -1.5550000000000001E-002     9.9848933906548268E-017
  -1.5500000000000000E-002     1.5633318252403453E-016
  -1.5449999999999998E-002     1.9837754584492730E-016
  -1.5400000000000000E-002     2.1819359081100309E-016
  -1.5349999999999999E-002     2.1003634927265459E-016
  -1.5300000000000001E-002     1.7130004048101310E-016
  -1.5250000000000000E-002     1.0333330082150135E-016
  -1.5199999999999998E-002     1.1813161683532450E-017
  -1.5150000000000000E-002    -9.3446941350893045E-017
  -1.5099999999999999E-002    -1.9931645099733402E-016
  -1.5050000000000001E-002    -2.9077190539398153E-016
  -1.4999999999999999E-002    -3.5280935855738159E-016
  -1.4949999999999998E-002    -3.7263387619714562E-016
  -1.4900000000000000E-002    -3.4183874997759968E-016
  -1.4849999999999999E-002    -2.5824411502303768E-016
  -1.4800000000000001E-002    -1.2706547649424621E-016
  -1.4749999999999999E-002     3.8862181437025072E-017
  -1.4700000000000001E-002     2.1997251007327307E-016
  -1.4650000000000000E-002     3.9198585298623113E-016
  -1.4599999999999998E-002     5.2890077418496295E-016
  -1.4550000000000000E-002     6.0662908221464409E-016
  -1.4499999999999999E-002     6.0680000419790745E-016
  -1.4450000000000001E-002     5.2017126341510872E-016
  -1.4400000000000000E-002     3.4907801198147784E-016
  -1.4349999999999998E-002     1.0843109077311245E-016
  -1.4300000000000000E-002    -1.7505326199084749E-016
  -1.4249999999999999E-002    -4.6547141348614820E-016
  -1.4200000000000001E-002    -7.2199969591579075E-016
  -1.4149999999999999E-002    -9.0433801800758780E-016
  -1.4099999999999998E-002    -9.7862846503506030E-016
  -1.4050000000000000E-002    -9.2301092025812063E-016
  -1.3999999999999999E-002    -7.3195484787479818E-016
  -1.3950000000000001E-002    -4.1861846032623221E-016
  -1.3899999999999999E-002    -1.4718740951274646E-017
  -1.3850000000000001E-002     4.3227182686174639E-016
  -1.3800000000000000E-002     8.6440971630079695E-016
  -1.3749999999999998E-002     1.2204781545189148E-015
  -1.3700000000000000E-002     1.4442162787706706E-015
  -1.3649999999999999E-002     1.4925002570839729E-015
  -1.3600000000000001E-002     1.3423374671977997E-015
  -1.3550000000000000E-002     9.9563727418545994E-016
  -1.3499999999999998E-002     4.8097210065119503E-016
  -1.3450000000000000E-002    -1.4809379705114691E-016
  -1.3399999999999999E-002    -8.1810030668198158E-016
  -1.3350000000000001E-002    -1.4437591068638197E-015
  -1.3299999999999999E-002    -1.9381419141190333E-015
  -1.3249999999999998E-002    -2.2238351155048745E-015
  -1.3200000000000000E-002    -2.2437273069860555E-015
  -1.3149999999999998E-002    -1.9700721142766580E-015
  -1.3100000000000001E-002    -1.4105937046655932E-015
  -1.3049999999999999E-002    -6.1066719850277240E-016
  -1.3000000000000001E-002     3.4900406550925696E-016
  -1.2950000000000000E-002     1.3593261241870684E-015
  -1.2899999999999998E-002     2.2939511581236931E-015
  -1.2850000000000000E-002     3.0236763779556915E-015
  -1.2799999999999999E-002     3.4326853684794030E-015