  -4.0000000000000001E-002     0.0000000000000000     
  -3.9949999999999999E-002     0.0000000000000000     
  -3.9899999999999998E-002     0.0000000000000000     
  -3.9850000000000003E-002     0.0000000000000000     
  -3.9800000000000002E-002     0.0000000000000000     
  -3.9750000000000001E-002     0.0000000000000000     
  -3.9699999999999999E-002     0.0000000000000000     
  -3.9649999999999998E-002     0.0000000000000000     
  -3.9600000000000003E-002     0.0000000000000000     
  -3.9550000000000002E-002     0.0000000000000000     
  -3.9500000000000000E-002     0.0000000000000000     
  -3.9449999999999999E-002     0.0000000000000000     
  -3.9399999999999998E-002     0.0000000000000000     
  -3.9350000000000003E-002     0.0000000000000000     
  -3.9300000000000002E-002     0.0000000000000000     
  -3.9250000000000000E-002     0.0000000000000000     
  -3.9199999999999999E-002     0.0000000000000000     
  -3.9150000000000004E-002     0.0000000000000000     
  -3.9100000000000003E-002     0.0000000000000000     
  -3.9050000000000001E-002     0.0000000000000000     
  -3.9000000000000000E-002     0.0000000000000000     
  -3.8949999999999999E-002     0.0000000000000000     
  -3.8900000000000004E-002     0.0000000000000000     
  -3.8850000000000003E-002     0.0000000000000000     
  -3.8800000000000001E-002     0.0000000000000000     
  -3.8750000000000000E-002     0.0000000000000000     
  -3.8699999999999998E-002     0.0000000000000000     
  -3.8650000000000004E-002     0.0000000000000000     
  -3.8600000000000002E-002     0.0000000000000000     
  -3.8550000000000001E-002     0.0000000000000000     
  -3.8500000000000000E-002     0.0000000000000000     
  -3.8449999999999998E-002     0.0000000000000000     
  -3.8400000000000004E-002     0.0000000000000000     
  -3.8350000000000002E-002     0.0000000000000000     
  -3.8300000000000001E-002     0.0000000000000000     
  -3.8249999999999999E-002     0.0000000000000000     
  -3.8199999999999998E-002     0.0000000000000000     
  -3.8150000000000003E-002     0.0000000000000000     
  -3.8100000000000002E-002     0.0000000000000000     
  -3.8050000000000000E-002     0.0000000000000000     
  -3.7999999999999999E-002     0.0000000000000000     
  -3.7949999999999998E-002     0.0000000000000000     
  -3.7900000000000003E-002     0.0000000000000000     
  -3.7850000000000002E-002     0.0000000000000000     
  -3.7800000000000000E-002     0.0000000000000000     
  -3.7749999999999999E-002     0.0000000000000000     
  -3.7699999999999997E-002     0.0000000000000000     
  -3.7650000000000003E-002     0.0000000000000000     
  -3.7600000000000001E-002     0.0000000000000000     
  -3.7550000000000000E-002     0.0000000000000000     
  -3.7499999999999999E-002     0.0000000000000000     
  -3.7449999999999997E-002     0.0000000000000000     
  -3.7400000000000003E-002     0.0000000000000000     
  -3.7350000000000001E-002     0.0000000000000000     
  -3.7300000000000000E-002     0.0000000000000000     
  -3.7249999999999998E-002     0.0000000000000000     
  -3.7200000000000004E-002     0.0000000000000000     
  -3.7150000000000002E-002     0.0000000000000000     
  -3.7100000000000001E-002     0.0000000000000000     
  -3.7050000000000000E-002     0.0000000000000000     
  -3.6999999999999998E-002     0.0000000000000000     
  -3.6950000000000004E-002     0.0000000000000000     
  -3.6900000000000002E-002     0.0000000000000000     
  -3.6850000000000001E-002     0.0000000000000000     
  -3.6799999999999999E-002     0.0000000000000000     
  -3.6749999999999998E-002     0.0000000000000000     
  -3.6700000000000003E-002     0.0000000000000000     
  -3.6650000000000002E-002     0.0000000000000000     
  -3.6600000000000001E-002     0.0000000000000000     
  -3.6549999999999999E-002     0.0000000000000000     
  -3.6499999999999998E-002     0.0000000000000000     
  -3.6450000000000003E-002     0.0000000000000000     
  -3.6400000000000002E-002     0.0000000000000000     
  -3.6350000000000000E-002     0.0000000000000000     
  -3.6299999999999999E-002     0.0000000000000000     
  -3.6249999999999998E-002     0.0000000000000000     
  -3.6200000000000003E-002     0.0000000000000000     
  -3.6150000000000002E-002     0.0000000000000000     
  -3.6100000000000000E-002     0.0000000000000000     
  -3.6049999999999999E-002     0.0000000000000000     
  -3.6000000000000004E-002     0.0000000000000000     
  -3.5950000000000003E-002     0.0000000000000000     
  -3.5900000000000001E-002     0.0000000000000000     
  -3.5850000000000000E-002     0.0000000000000000     
  -3.5799999999999998E-002     0.0000000000000000     
  -3.5750000000000004E-002     0.0000000000000000     
  -3.5700000000000003E-002     0.0000000000000000     
  -3.5650000000000001E-002     0.0000000000000000     
  -3.5600000000000000E-002     0.0000000000000000     
  -3.5549999999999998E-002     0.0000000000000000     
  -3.5500000000000004E-002     0.0000000000000000     
  -3.5450000000000002E-002     0.0000000000000000     
  -3.5400000000000001E-002     0.0000000000000000     
  -3.5349999999999999E-002     0.0000000000000000     
  -3.5299999999999998E-002     0.0000000000000000     
  -3.5250000000000004E-002     0.0000000000000000     
  -3.5200000000000002E-002     0.0000000000000000     
  -3.5150000000000001E-002     0.0000000000000000     
  -3.5099999999999999E-002     0.0000000000000000     
  -3.5049999999999998E-002     0.0000000000000000     
  -3.5000000000000003E-002     0.0000000000000000     
  -3.4950000000000002E-002     0.0000000000000000     
  -3.4900000000000000E-002     0.0000000000000000     
  -3.4849999999999999E-002     0.0000000000000000     
  -3.4799999999999998E-002     0.0000000000000000     
  -3.4750000000000003E-002     0.0000000000000000     
  -3.4700000000000002E-002     0.0000000000000000     
  -3.4650000000000000E-002     0.0000000000000000     
  -3.4599999999999999E-002     0.0000000000000000     
  -3.4549999999999997E-002     0.0000000000000000     
  -3.4500000000000003E-002     0.0000000000000000     
  -3.4450000000000001E-002     0.0000000000000000     
  -3.4400000000000000E-002     0.0000000000000000     
  -3.4349999999999999E-002     0.0000000000000000     
  -3.4299999999999997E-002     0.0000000000000000     
  -3.4250000000000003E-002     0.0000000000000000     
  -3.4200000000000001E-002     0.0000000000000000     
  -3.4150000000000000E-002     0.0000000000000000     
  -3.4099999999999998E-002     0.0000000000000000     
  -3.4049999999999997E-002     0.0000000000000000     
  -3.4000000000000002E-002     0.0000000000000000     
  -3.3950000000000001E-002     0.0000000000000000     
  -3.3900000000000000E-002     0.0000000000000000     
  -3.3849999999999998E-002     0.0000000000000000     
  -3.3799999999999997E-002     0.0000000000000000     
  -3.3750000000000002E-002     0.0000000000000000     
  -3.3700000000000001E-002     0.0000000000000000     
  -3.3649999999999999E-002     0.0000000000000000     
  -3.3599999999999998E-002     0.0000000000000000     
  -3.3550000000000003E-002     0.0000000000000000     
  -3.3500000000000002E-002     0.0000000000000000     
  -3.3450000000000001E-002     0.0000000000000000     
  -3.3399999999999999E-002     0.0000000000000000     
  -3.3349999999999998E-002     0.0000000000000000     
  -3.3300000000000003E-002     0.0000000000000000     
  -3.3250000000000002E-002     0.0000000000000000     
  -3.3200000000000000E-002     0.0000000000000000     
  -3.3149999999999999E-002     0.0000000000000000     
  -3.3099999999999997E-002     0.0000000000000000     
  -3.3050000000000003E-002     0.0000000000000000     
  -3.3000000000000002E-002     0.0000000000000000     
  -3.2950000000000000E-002     0.0000000000000000     
  -3.2899999999999999E-002     0.0000000000000000     
  -3.2850000000000004E-002     0.0000000000000000     
  -3.2800000000000003E-002     0.0000000000000000     
  -3.2750000000000001E-002     0.0000000000000000     
  -3.2700000000000000E-002     0.0000000000000000     
  -3.2649999999999998E-002     0.0000000000000000     
  -3.2600000000000004E-002     0.0000000000000000     
  -3.2550000000000003E-002     0.0000000000000000     
  -3.2500000000000001E-002     0.0000000000000000     
  -3.2450000000000000E-002     0.0000000000000000     
  -3.2399999999999998E-002     0.0000000000000000     
  -3.2350000000000004E-002     0.0000000000000000     
  -3.2300000000000002E-002     0.0000000000000000     
  -3.2250000000000001E-002     0.0000000000000000     
  -3.2199999999999999E-002     0.0000000000000000     
  -3.2149999999999998E-002     0.0000000000000000     
  -3.2100000000000004E-002     0.0000000000000000     
  -3.2050000000000002E-002     0.0000000000000000     
  -3.2000000000000001E-002     0.0000000000000000     
  -3.1949999999999999E-002     0.0000000000000000     
  -3.1899999999999998E-002     0.0000000000000000     
  -3.1850000000000003E-002     0.0000000000000000     
  -3.1800000000000002E-002     0.0000000000000000     
  -3.1750000000000000E-002     0.0000000000000000     
  -3.1699999999999999E-002     0.0000000000000000     
  -3.1649999999999998E-002     0.0000000000000000     
  -3.1600000000000003E-002     0.0000000000000000     
  -3.1550000000000002E-002     0.0000000000000000     
  -3.1500000000000000E-002     0.0000000000000000     
  -3.1449999999999999E-002     0.0000000000000000     
  -3.1399999999999997E-002     0.0000000000000000     
  -3.1350000000000003E-002     0.0000000000000000     
  -3.1300000000000001E-002     0.0000000000000000     
  -3.1250000000000000E-002     0.0000000000000000     
  -3.1199999999999999E-002     1.1825555711968064E-040
  -3.1150000000000001E-002     6.2082312323974018E-040
  -3.1100000000000003E-002     1.3996831102380148E-039
  -3.1050000000000001E-002     2.2414665325298024E-039
  -3.1000000000000000E-002     2.9258757460241279E-039
  -3.0949999999999998E-002     2.6705296948351641E-039
  -3.0900000000000000E-002    -8.7263528331625346E-041
  -3.0850000000000002E-002    -5.6098968790431565E-039
  -3.0800000000000001E-002    -2.5588726767586833E-038
  -3.0750000000000000E-002    -3.4802638872972641E-038
  -3.0699999999999998E-002    -4.1140387905071513E-038
  -3.0650000000000000E-002    -1.6362278100235357E-038
  -3.0600000000000002E-002     3.8210731657862684E-038
  -3.0550000000000001E-002     1.2472401465896489E-037
  -3.0499999999999999E-002     2.3756086743395010E-037
  -3.0449999999999998E-002     3.5744492469126283E-037
  -3.0400000000000000E-002     4.3127001366535817E-037
  -3.0350000000000002E-002     4.0657144064230843E-037
  -3.0300000000000001E-002     2.1994689296502696E-037
  -3.0249999999999999E-002    -1.7577396821670178E-037
  -3.0200000000000001E-002    -7.8009167769553480E-037
  -3.0150000000000000E-002    -1.5143306887775192E-036
  -3.0100000000000002E-002    -2.2110572765786754E-036
  -3.0050000000000000E-002    -2.6290622305518966E-036
  -2.9999999999999999E-002    -2.4929801251711143E-036
  -2.9950000000000001E-002    -1.5615488421012583E-036
  -2.9899999999999999E-002     2.9162504710051309E-037
  -2.9850000000000002E-002     3.0005492085430860E-036
  -2.9800000000000000E-002     6.2442866514533180E-036
  -2.9749999999999999E-002     9.4161902906933018E-036
  -2.9700000000000001E-002     1.1643587444134669E-035
  -2.9650000000000003E-002     1.1885203525524151E-035
  -2.9600000000000001E-002     9.1227228556635082E-036
  -2.9550000000000000E-002     2.6462101618886726E-036
  -2.9499999999999998E-002    -7.5995797763404461E-036
  -2.9450000000000000E-002    -2.0681093448289256E-035
  -2.9400000000000003E-002    -3.4462249168089206E-035
  -2.9350000000000001E-002    -4.5636343369118667E-035
  -2.9300000000000000E-002    -5.0109393003144349E-035
  -2.9249999999999998E-002    -4.3778289823961062E-035
  -2.9200000000000000E-002    -2.3644818899675270E-035
  -2.9150000000000002E-002     1.0924263688456281E-035
  -2.9100000000000001E-002     5.7098518888691678E-035
  -2.9049999999999999E-002     1.0802142865621914E-034
  -2.8999999999999998E-002     1.5312886259736639E-034
  -2.8950000000000000E-002     1.7953930839732095E-034
  -2.8900000000000002E-002     1.7444116155594832E-034
  -2.8850000000000001E-002     1.2808591098590855E-034
  -2.8799999999999999E-002     3.6734973269582268E-035
  -2.8749999999999998E-002    -9.5176994523205693E-035
  -2.8700000000000000E-002    -2.5422523993885108E-034
  -2.8650000000000002E-002    -4.1866916815589318E-034
  -2.8600000000000000E-002    -5.6024405421114864E-034
  -2.8549999999999999E-002    -6.4634417023583769E-034
  -2.8500000000000001E-002    -6.4196632737158694E-034
  -2.8450000000000000E-002    -5.1149840410950507E-034
  -2.8400000000000002E-002    -2.2163700142416368E-034
  -2.8350000000000000E-002     2.5210024184249856E-034
  -2.8299999999999999E-002     9.1249646213190369E-034
  -2.8250000000000001E-002     1.7201019217108799E-033
  -2.8200000000000003E-002     2.5675611562820319E-033
  -2.8150000000000001E-002     3.2570670895002651E-033
  -2.8100000000000000E-002     3.4952497562481168E-033
  -2.8049999999999999E-002     2.9232237994928645E-033
  -2.8000000000000001E-002     1.1968422009644338E-033
  -2.7950000000000003E-002    -1.8793535026880442E-033
  -2.7900000000000001E-002    -6.1818139851427944E-033
  -2.7850000000000000E-002    -1.1105156932585749E-032
  -2.7799999999999998E-002    -1.5475009439029927E-032
  -2.7750000000000000E-002    -1.7615316582244814E-032
  -2.7700000000000002E-002    -1.5634149706575672E-032
  -2.7650000000000001E-002    -7.9443442092890542E-033
  -2.7600000000000000E-002     6.0433235916019289E-033
  -2.7549999999999998E-002     2.5211360539244982E-032
  -2.7500000000000000E-002     4.6250681812536093E-032
  -2.7450000000000002E-002     6.3673293761604588E-032
  -2.7400000000000001E-002     7.0548023158946413E-032
  -2.7349999999999999E-002     6.0036125924109918E-032
  -2.7299999999999998E-002     2.7565580543921931E-032
  -2.7250000000000000E-002    -2.6797026685521082E-032
  -2.7200000000000002E-002    -9.6459228453742372E-032
  -2.7150000000000001E-002    -1.6768672419162670E-031
  -2.7099999999999999E-002    -2.2092893528537685E-031
  -2.7049999999999998E-002    -2.3437940302006111E-031
  -2.7000000000000000E-002    -1.8946517702871546E-031
  -2.6950000000000002E-002    -7.7260694862314521E-032
  -2.6900000000000000E-002     9.5778238958407241E-032
  -2.6849999999999999E-002     3.0464505423712147E-031
  -2.6800000000000001E-002     5.0684016896982267E-031
  -2.6749999999999999E-002     6.4853036425855214E-031
  -2.6700000000000002E-002     6.7542850384002439E-031
  -2.6650000000000000E-002     5.4657321189191350E-031
  -2.6599999999999999E-002     2.4796544869275849E-031
  -2.6550000000000001E-002    -1.9755896052534678E-031
  -2.6500000000000003E-002    -7.2747175002261302E-031
  -2.6450000000000001E-002    -1.2455933313400465E-030
  -2.6400000000000000E-002    -1.6368165033275112E-030
  -2.6349999999999998E-002    -1.7880266956880648E-030
  -2.6300000000000000E-002    -1.6109941728817388E-030
  -2.6250000000000002E-002    -1.0624314111425943E-030
  -2.6200000000000001E-002    -1.5725774574834334E-031
  -2.6150000000000000E-002     1.0268245502243163E-030
  -2.6099999999999998E-002     2.3528198992115733E-030
  -2.6050000000000000E-002     3.6334879924525996E-030
  -2.6000000000000002E-002     4.6432018326482211E-030
  -2.5950000000000001E-002     5.1317384544401705E-030
  -2.5899999999999999E-002     4.8426559344716230E-030
  -2.5849999999999998E-002     3.5425717475276131E-030
  -2.5800000000000000E-002     1.0690978594731946E-030
  -2.5750000000000002E-002    -2.5978308640058166E-030
  -2.5700000000000001E-002    -7.2453970285533861E-030
  -2.5649999999999999E-002    -1.2336235305935764E-029
  -2.5599999999999998E-002    -1.6949448956092031E-029
  -2.5550000000000000E-002    -1.9799558296311619E-029
  -2.5500000000000002E-002    -1.9378790698941873E-029
  -2.5450000000000000E-002    -1.4250846067521635E-029
  -2.5399999999999999E-002    -3.4871668049452829E-030
  -2.5349999999999998E-002     1.2816486096673207E-029
  -2.5300000000000000E-002     3.3063459367131207E-029
  -2.5250000000000002E-002     5.3885553539556166E-029
  -2.5200000000000000E-002     7.0256541888126325E-029
  -2.5149999999999999E-002     7.6129442351165729E-029
  -2.5100000000000001E-002     6.5638792389552082E-029
  -2.5049999999999999E-002     3.4758736929593459E-029
  -2.5000000000000001E-002    -1.6869218588274272E-029
  -2.4950000000000000E-002    -8.4384804733180355E-029
  -2.4899999999999999E-002    -1.5696957034902322E-028
  -2.4850000000000001E-002    -2.1842392344658164E-028
  -2.4800000000000003E-002    -2.4938082132206517E-028
  -2.4750000000000001E-002    -2.3114114114978357E-028
  -2.4700000000000000E-002    -1.5067289512315686E-028
  -2.4649999999999998E-002    -5.8556040966081523E-030
  -2.4600000000000000E-002     1.9030882976130113E-028
  -2.4550000000000002E-002     4.0792988956393730E-028
  -2.4500000000000001E-002     6.0211987222479960E-028
  -2.4450000000000000E-002     7.1918791152260365E-028
  -2.4399999999999998E-002     7.0688240925390873E-028
  -2.4350000000000000E-002     5.2734725277846732E-028
  -2.4299999999999999E-002     1.7041243052319925E-028
  -2.4250000000000001E-002    -3.3589114285244023E-028
  -2.4199999999999999E-002    -9.2086109729066435E-028
  -2.4150000000000001E-002    -1.4753712093689901E-027
  -2.4100000000000000E-002    -1.8661313609792962E-027
  -2.4049999999999998E-002    -1.9592355299862489E-027
  -2.4000000000000000E-002    -1.6499530839717476E-027
  -2.3949999999999999E-002    -8.9358249232080681E-028
  -2.3900000000000001E-002     2.6924401862110657E-028
  -2.3850000000000000E-002     1.6996557331256878E-027
  -2.3800000000000002E-002     3.1656630011837186E-027
  -2.3750000000000000E-002     4.3682288759002288E-027
  -2.3699999999999999E-002     4.9873767900471810E-027
  -2.3650000000000001E-002     4.7430755624323165E-027
  -2.3599999999999999E-002     3.4616168261124642E-027
  -2.3550000000000001E-002     1.1353754313825361E-027
  -2.3500000000000000E-002    -2.0370430243782533E-027
  -2.3449999999999999E-002    -5.6418184963447800E-027
  -2.3400000000000001E-002    -9.0798508030899485E-027
  -2.3349999999999999E-002    -1.1637668925625971E-026
  -2.3300000000000001E-002    -1.2594598322289753E-026
  -2.3250000000000000E-002    -1.1354562884929862E-026
  -2.3199999999999998E-002    -7.5849238815727306E-027
  -2.3150000000000000E-002    -1.3405637075987635E-027
  -2.3099999999999999E-002     6.8504103093440552E-027
  -2.3050000000000001E-002     1.5961970753002607E-026
  -2.3000000000000000E-002     2.4525067256535732E-026
  -2.2950000000000002E-002     3.0773445941725698E-026
  -2.2900000000000000E-002     3.2881024199954987E-026
  -2.2849999999999999E-002     2.9277343168674447E-026
  -2.2800000000000001E-002     1.9010604980135859E-026
  -2.2749999999999999E-002     2.1091822354826270E-027
  -2.2700000000000001E-002    -2.0124973812774501E-026
  -2.2650000000000000E-002    -4.4969610906813123E-026
  -2.2599999999999999E-002    -6.8362020725668173E-026
  -2.2550000000000001E-002    -8.5270029023842547E-026
  -2.2499999999999999E-002    -9.0382592836585529E-026
  -2.2450000000000001E-002    -7.9090739952491737E-026
  -2.2400000000000000E-002    -4.8654609489801795E-026
  -2.2349999999999998E-002     6.2821347599292863E-028
  -2.2300000000000000E-002     6.4506793555841798E-026
  -2.2249999999999999E-002     1.3440168433203964E-025
  -2.2200000000000001E-002     1.9783770777368844E-025
  -2.2150000000000000E-002     2.3985961197962924E-025
  -2.2100000000000002E-002     2.4543813286090797E-025
  -2.2050000000000000E-002     2.0264929305514299E-025
  -2.1999999999999999E-002     1.0616046886979417E-025
  -2.1950000000000001E-002    -3.9661171852245005E-026
  -2.1899999999999999E-002    -2.1882682168267333E-025
  -2.1850000000000001E-002    -4.0377251381376511E-025
  -2.1800000000000000E-002    -5.5793624282139123E-025
  -2.1749999999999999E-002    -6.4101527711426207E-025
  -2.1700000000000001E-002    -6.1648904278783551E-025
  -2.1649999999999999E-002    -4.6036978224072329E-025
  -2.1600000000000001E-002    -1.6959478817501677E-025
  -2.1550000000000000E-002     2.3186010081685493E-025
  -2.1499999999999998E-002     6.9104646938010182E-025
  -2.1450000000000000E-002     1.1297433229845733E-024
  -2.1399999999999999E-002     1.4543680644199024E-024
  -2.1350000000000001E-002     1.5714705771580694E-024
  -2.1299999999999999E-002     1.4068464337529375E-024
  -2.1250000000000002E-002     9.2510184568477610E-025
  -2.1200000000000000E-002     1.4572607297493999E-025
  -2.1149999999999999E-002    -8.4837354601961962E-025
  -2.1100000000000001E-002    -1.9131925710385427E-024
  -2.1049999999999999E-002    -2.8585753723353699E-024
  -2.1000000000000001E-002    -3.4753585807916758E-024
  -2.0950000000000000E-002    -3.5717782091993729E-024
  -2.0899999999999998E-002    -3.0138626360686465E-024
  -2.0850000000000000E-002    -1.7628137832893778E-024
  -2.0799999999999999E-002     9.8258541860040485E-026
  -2.0750000000000001E-002     2.3551808435899934E-024
  -2.0700000000000000E-002     4.6759811903653246E-024
  -2.0649999999999998E-002     6.6481338382003884E-024
  -2.0600000000000000E-002     7.8373234762725417E-024
  -2.0549999999999999E-002     7.8610927246754063E-024
  -2.0500000000000001E-002     6.4671465334492238E-024
  -2.0449999999999999E-002     3.6036464148130605E-024
  -2.0400000000000001E-002    -5.3183968919074402E-025
  -2.0350000000000000E-002    -5.4767698371522505E-024
  -2.0299999999999999E-002    -1.0530103487570187E-023
  -2.0250000000000001E-002    -1.4824293932645336E-023
  -2.0199999999999999E-002    -1.7439705481321799E-023
  -2.0150000000000001E-002    -1.7551136425334187E-023
  -2.0100000000000000E-002    -1.4589075450542366E-023
  -2.0049999999999998E-002    -8.3924538902755408E-024
  -2.0000000000000000E-002     6.7405195138436774E-025
  -1.9949999999999999E-002     1.1665477125911089E-023
  -1.9900000000000001E-002     2.3088270974305149E-023
  -1.9850000000000000E-002     3.3033276707714172E-023
  -1.9799999999999998E-002     3.9411689395982945E-023
  -1.9750000000000000E-002     4.0278549414960212E-023
  -1.9699999999999999E-002     3.4209029578623780E-023
  -1.9650000000000001E-002     2.0674319725575776E-023
  -1.9599999999999999E-002     3.4975995844560044E-025
  -1.9550000000000001E-002    -2.4717637595254797E-023
  -1.9500000000000000E-002    -5.1148697797007103E-023
  -1.9449999999999999E-002    -7.4523874576216945E-023
  -1.9400000000000001E-002    -8.9937208401396731E-023
  -1.9349999999999999E-002    -9.2774981057375390E-023
  -1.9300000000000001E-002    -7.9629212412904404E-023
  -1.9250000000000000E-002    -4.9207282476977273E-023
  -1.9199999999999998E-002    -3.0650103029510619E-024
  -1.9150000000000000E-002     5.4018291990844936E-023
  -1.9099999999999999E-002     1.1417913290099725E-022
  -1.9050000000000001E-002     1.6721791615161415E-022
  -1.9000000000000000E-002     2.0195459787821058E-022
  -1.8949999999999998E-002     2.0807308623709498E-022
  -1.8900000000000000E-002     1.7821459154755855E-022
  -1.8849999999999999E-002     1.0997822867665681E-022
  -1.8800000000000001E-002     7.4310481620394338E-024
  -1.8749999999999999E-002    -1.1826210493718325E-022
  -1.8700000000000001E-002    -2.4939204436370797E-022
  -1.8650000000000000E-002    -3.6358294379392024E-022
  -1.8599999999999998E-002    -4.3691246913777231E-022
  -1.8550000000000001E-002    -4.4794285643714797E-022
  -1.8499999999999999E-002    -3.8209539959511593E-022
  -1.8450000000000001E-002    -2.3562969016632857E-022
  -1.8400000000000000E-002    -1.8422729599883244E-023
  -1.8349999999999998E-002     2.4518102345609163E-022
  -1.8300000000000000E-002     5.1795706493256535E-022
  -1.8249999999999999E-002     7.5397858761009176E-022
  -1.8200000000000001E-002     9.0509727871926105E-022
  -1.8149999999999999E-002     9.2897635166732530E-022
  -1.8100000000000002E-002     7.9752543174825823E-022
  -1.8050000000000000E-002     5.0432698911054852E-022
  -1.7999999999999999E-002     6.9594293585600666E-023
  -1.7950000000000001E-002    -4.5860346254246482E-022
  -1.7899999999999999E-002    -1.0076674306832376E-021
  -1.7850000000000001E-002    -1.4885160184846258E-021
  -1.7800000000000000E-002    -1.8077547473802947E-021
  -1.7749999999999998E-002    -1.8825861162009538E-021
  -1.7700000000000000E-002    -1.6564251993931373E-021
  -1.7649999999999999E-002    -1.1127598715280396E-021
  -1.7600000000000001E-002    -2.8471853722328296E-022
  -1.7550000000000000E-002     7.4188521528749063E-022
  -1.7499999999999998E-002     1.8335528072510919E-021
  -1.7450000000000000E-002     2.8226341209262217E-021
  -1.7399999999999999E-002     3.5286178471775369E-021
  -1.7350000000000001E-002     3.7850736895296375E-021
  -1.7299999999999999E-002     3.4689379644076783E-021
  -1.7250000000000001E-002     2.5279349651927115E-021
  -1.7200000000000000E-002     1.0015169734887939E-021
  -1.7149999999999999E-002    -9.6908422389622738E-022
  -1.7100000000000001E-002    -3.1451900346697396E-021
  -1.7049999999999999E-002    -5.2112973672301793E-021
  -1.7000000000000001E-002    -6.8117173545802749E-021
  -1.6950000000000000E-002    -7.6004117020606448E-021
  -1.6899999999999998E-002    -7.2986051308976208E-021
  -1.6850000000000000E-002    -5.7524502393676312E-021
  -1.6799999999999999E-002    -2.9815078046667740E-021
  -1.6750000000000001E-002     7.9160356603569675E-022
  -1.6700000000000000E-002     5.1389039651699592E-021
  -1.6649999999999998E-002     9.4579018850236048E-021
  -1.6600000000000000E-002     1.3037101129312195E-020
  -1.6549999999999999E-002     1.5152226768169788E-020
  -1.6500000000000001E-002     1.5183260105306231E-020
  -1.6449999999999999E-002     1.2736845468707327E-020
  -1.6400000000000001E-002     7.7545243205901729E-021
  -1.6350000000000000E-002     5.8577398943530579E-022
  -1.6299999999999999E-002    -7.9934106746200821E-021
  -1.6250000000000001E-002    -1.6830100416533164E-020
  -1.6199999999999999E-002    -2.4516791752796992E-020
  -1.6150000000000001E-002    -2.9579524199770230E-020
  -1.6100000000000000E-002    -3.0711946602187560E-020
  -1.6049999999999998E-002    -2.7023859137413702E-020
  -1.6000000000000000E-002    -1.8264507720937483E-020
  -1.5949999999999999E-002    -4.9778805687704212E-021
  -1.5900000000000001E-002     1.1448411938822862E-020
  -1.5850000000000000E-002     2.8867637016648797E-020
  -1.5799999999999998E-002     4.4600349804968384E-020
  -1.5750000000000000E-002     5.5788352071875697E-020
  -1.5699999999999999E-002     5.9837579464970295E-020
  -1.5650000000000001E-002     5.4889990893905305E-020
  -1.5599999999999999E-002     4.0249970271988723E-020
  -1.5550000000000001E-002     1.6686785068316914E-020
  -1.5500000000000000E-002    -1.3456398462919135E-020
  -1.5449999999999998E-002    -4.6394656748226770E-020
  -1.5400000000000000E-002    -7.7289253751325782E-020
  -1.5349999999999999E-002    -1.0086596791384498E-019
  -1.5300000000000001E-002    -1.1219690750030831E-019
  -1.5250000000000000E-002    -1.0754301381765322E-019
  -1.5199999999999998E-002    -8.5130546111834152E-020
  -1.5150000000000000E-002    -4.5727934485617458E-020
  -1.5099999999999999E-002     7.0963697793701935E-021
  -1.5050000000000001E-002     6.7120215294185878E-020
  -1.4999999999999999E-002     1.2605115629454347E-019
  -1.4949999999999998E-002     1.7451618446446170E-019
  -1.4900000000000000E-002     2.0336048882975263E-019
  -1.4849999999999999E-002     2.0509751741672821E-019
  -1.4800000000000001E-002     1.7530933850900070E-019
  -1.4749999999999999E-002     1.1377721855822319E-019
  -1.4700000000000001E-002     2.5133793564557844E-020
  -1.4650000000000000E-002    -8.1128733682126267E-020
  -1.4599999999999998E-002    -1.9138602639242260E-019
  -1.4550000000000000E-002    -2.8934048682896064E-019
  -1.4499999999999999E-002    -3.5809842172030066E-019
  -1.4450000000000001E-002    -3.8264574992112719E-019
  -1.4400000000000000E-002    -3.5241062044108848E-019
  -1.4349999999999998E-002    -2.6354381106704300E-019
  -1.4300000000000000E-002    -1.2053319221195202E-019
  -1.4249999999999999E-002     6.3191991841283820E-020
  -1.4200000000000001E-002     2.6591431327019971E-019
  -1.4149999999999999E-002     4.5963833991827730E-019
  -1.4099999999999998E-002     6.1336947506693926E-019
  -1.4050000000000000E-002     6.9736831485056919E-019
  -1.3999999999999999E-002     6.8789047029860598E-019
  -1.3950000000000001E-002     5.7176767732572983E-019
  -1.3899999999999999E-002     3.5010154354292728E-019
  -1.3850000000000001E-002     4.0356612234979067E-020
  -1.3800000000000000E-002    -3.2373273467598986E-019
  -1.3749999999999998E-002    -6.9478513736776695E-019
  -1.3700000000000000E-002    -1.0169302320015821E-018
  -1.3649999999999999E-002    -1.2331108806838448E-018
  -1.3600000000000001E-002    -1.2937325413864176E-018
  -1.3550000000000000E-002    -1.1655219866415391E-018
  -1.3499999999999998E-002    -8.3923273395131796E-019
  -1.3450000000000000E-002    -3.3480143178534351E-019
  -1.3399999999999999E-002     2.9726321006934128E-019
  -1.3350000000000001E-002     9.7906544351992918E-019
  -1.3299999999999999E-002     1.6132863180910636E-018
  -1.3249999999999998E-002     2.0953961012504247E-018
  -1.3200000000000000E-002     2.3288277135230488E-018
  -1.3149999999999998E-002     2.2411519901887081E-018
  -1.3100000000000001E-002     1.7988519144310185E-018
  -1.3049999999999999E-002     1.0181553862088315E-018
  -1.3000000000000001E-002    -3.0337009482881136E-020
  -1.2950000000000000E-002    -1.2248386758095595E-018
  -1.2899999999999998E-002    -2.4039659385751539E-018
  -1.2850000000000000E-002    -3.3860704852983011E-018
  -1.2799999999999999E-002    -3.9943493722534659E-018