  -4.0000000000000001E-002     0.0000000000000000     
  -3.9949999999999999E-002     0.0000000000000000     
  -3.9899999999999998E-002     0.0000000000000000     
  -3.9850000000000003E-002     0.0000000000000000     
  -3.9800000000000002E-002     0.0000000000000000     
  -3.9750000000000001E-002     0.0000000000000000     
  -3.9699999999999999E-002     0.0000000000000000     
  -3.9649999999999998E-002     0.0000000000000000     
  -3.9600000000000003E-002     0.0000000000000000     
  -3.9550000000000002E-002     0.0000000000000000     
  -3.9500000000000000E-002     0.0000000000000000     
  -3.9449999999999999E-002     0.0000000000000000     
  -3.9399999999999998E-002     0.0000000000000000     
  -3.9350000000000003E-002     0.0000000000000000     
  -3.9300000000000002E-002     0.0000000000000000     
  -3.9250000000000000E-002     0.0000000000000000     
  -3.9199999999999999E-002     0.0000000000000000     
  -3.9150000000000004E-002     0.0000000000000000     
  -3.9100000000000003E-002     0.0000000000000000     
  -3.9050000000000001E-002     0.0000000000000000     
  -3.9000000000000000E-002     0.0000000000000000     
  -3.8949999999999999E-002     0.0000000000000000     
  -3.8900000000000004E-002     0.0000000000000000     
  -3.8850000000000003E-002     0.0000000000000000     
  -3.8800000000000001E-002     0.0000000000000000     
  -3.8750000000000000E-002     0.0000000000000000     
  -3.8699999999999998E-002     0.0000000000000000     
  -3.8650000000000004E-002     0.0000000000000000     
  -3.8600000000000002E-002     0.0000000000000000     
  -3.8550000000000001E-002     0.0000000000000000     
  -3.8500000000000000E-002     0.0000000000000000     
  -3.8449999999999998E-002     0.0000000000000000     
  -3.8400000000000004E-002     0.0000000000000000     
  -3.8350000000000002E-002     0.0000000000000000     
  -3.8300000000000001E-002     0.0000000000000000     
  -3.8249999999999999E-002     0.0000000000000000     
  -3.8199999999999998E-002     0.0000000000000000     
  -3.8150000000000003E-002     0.0000000000000000     
  -3.8100000000000002E-002     0.0000000000000000     
  -3.8050000000000000E-002     0.0000000000000000     
  -3.7999999999999999E-002     0.0000000000000000     
  -3.7949999999999998E-002     0.0000000000000000     
  -3.7900000000000003E-002     0.0000000000000000     
  -3.7850000000000002E-002     0.0000000000000000     
  -3.7800000000000000E-002     0.0000000000000000     
  -3.7749999999999999E-002     0.0000000000000000     
  -3.7699999999999997E-002     0.0000000000000000     
  -3.7650000000000003E-002     0.0000000000000000     
  -3.7600000000000001E-002     0.0000000000000000     
  -3.7550000000000000E-002     0.0000000000000000     
  -3.7499999999999999E-002     0.0000000000000000     
  -3.7449999999999997E-002     0.0000000000000000     
  -3.7400000000000003E-002     0.0000000000000000     
  -3.7350000000000001E-002     0.0000000000000000     
  -3.7300000000000000E-002     0.0000000000000000     
  -3.7249999999999998E-002     0.0000000000000000     
  -3.7200000000000004E-002    -7.0468016630616576E-039
  -3.7150000000000002E-002    -2.3120746059735349E-038
  -3.7100000000000001E-002    -5.0175145715252525E-038
  -3.7050000000000000E-002    -8.4440545990258979E-038
  -3.6999999999999998E-002    -9.7655908905690453E-038
  -3.6950000000000004E-002    -2.3274313033398891E-038
  -3.6900000000000002E-002     2.0474912188282025E-037
  -3.6850000000000001E-002     6.9060857111170111E-037
  -3.6799999999999999E-002     1.4907390932200988E-036
  -3.6749999999999998E-002     2.5384310972145055E-036
  -3.6700000000000003E-002     3.4438966367981838E-036
  -3.6650000000000002E-002     3.3007719124800649E-036
  -3.6600000000000001E-002     5.5325455627174652E-037
  -3.6549999999999999E-002    -6.8744804133290968E-036
  -3.6499999999999998E-002    -2.0897661145155864E-035
  -3.6450000000000003E-002    -4.1759025936336811E-035
  -3.6400000000000002E-002    -6.5588038844167410E-035
  -3.6350000000000000E-002    -8.1425589851155349E-035
  -3.6299999999999999E-002    -6.8933280603860635E-035
  -3.6249999999999998E-002     9.6697833429128263E-037
  -3.6200000000000003E-002     1.5947681304986968E-034
  -3.6150000000000002E-002     4.2442835858518999E-034
  -3.6100000000000000E-002     7.7501984586952548E-034
  -3.6049999999999999E-002     1.1204622779877386E-033
  -3.6000000000000004E-002     1.2733008756586020E-033
  -3.5950000000000003E-002     9.4622263028168057E-034
  -3.5900000000000001E-002    -2.0326173093104289E-034
  -3.5850000000000000E-002    -2.4578349918339617E-033
  -3.5799999999999998E-002    -5.8475590219521394E-033
  -3.5750000000000004E-002    -9.9026618955665913E-033
  -3.5700000000000003E-002    -1.3420109955685105E-032
  -3.5650000000000001E-002    -1.4360230129560172E-032
  -3.5600000000000000E-002    -1.0021806792739240E-032
  -3.5549999999999998E-002     2.3645213189847758E-033
  -3.5500000000000004E-002     2.4557146880025271E-032
  -3.5450000000000002E-002     5.5818248005114643E-032
  -3.5400000000000001E-002     9.1311346208341891E-032
  -3.5349999999999999E-002     1.2090117621041824E-031
  -3.5299999999999998E-002     1.2905868552156242E-031
  -3.5250000000000004E-002     9.6625557830975666E-032
  -3.5200000000000002E-002     5.0302355721120991E-033
  -3.5150000000000001E-002    -1.5688972403254068E-031
  -3.5099999999999999E-002    -3.8403763046838209E-031
  -3.5049999999999998E-002    -6.4575360103151510E-031
  -3.5000000000000003E-002    -8.7877633665524622E-031
  -3.4950000000000002E-002    -9.8626310454043307E-031
  -3.4900000000000000E-002    -8.4727086565152929E-031
  -3.4849999999999999E-002    -3.4067671199495179E-031
  -3.4799999999999998E-002     6.1467026273662540E-031
  -3.4750000000000003E-002     2.0063499776511269E-030
  -3.4700000000000002E-002     3.6712071654208715E-030
  -3.4650000000000000E-002     5.2531093403696284E-030
  -3.4599999999999999E-002     6.2015682932959920E-030
  -3.4549999999999997E-002     5.8390639635624011E-030
  -3.4500000000000003E-002     3.5160143582194974E-030
  -3.4450000000000001E-002    -1.1512429293240249E-030
  -3.4400000000000000E-002    -8.0018004280252442E-030
  -3.4349999999999999E-002    -1.6096763041351401E-029
  -3.4299999999999997E-002    -2.3649364734326850E-029
  -3.4250000000000003E-002    -2.8234971802040614E-029
  -3.4200000000000001E-002    -2.7340017648769408E-029
  -3.4150000000000000E-002    -1.9189941004372592E-029
  -3.4099999999999998E-002    -3.6371601261645613E-030
  -3.4049999999999997E-002     1.7252980374079801E-029
  -3.4000000000000002E-002     3.9324714877437541E-029
  -3.3950000000000001E-002     5.7433287998721099E-029
  -3.3900000000000000E-002     6.7442261526723403E-029
  -3.3849999999999998E-002     6.8518396219078168E-029
  -3.3799999999999997E-002     6.4623494781983845E-029
  -3.3750000000000002E-002     6.3887247568441578E-029
  -3.3700000000000001E-002     7.4903303881933537E-029
  -3.3649999999999999E-002     1.0008147694549920E-028
  -3.3599999999999998E-002     1.2788255055092521E-028
  -3.3550000000000003E-002     1.2754336351601182E-028
  -3.3500000000000002E-002     5.0910892687402271E-029
  -3.3450000000000001E-002    -1.5471368163118507E-028
  -3.3399999999999999E-002    -5.2189985171548427E-028
  -3.3349999999999998E-002    -1.0310197325074935E-027
  -3.3300000000000003E-002    -1.5813294768535140E-027
  -3.3250000000000002E-002    -1.9802538385500504E-027
  -3.3200000000000000E-002    -1.9659285976881301E-027
  -3.3149999999999999E-002    -1.2712954010312359E-027
  -3.3099999999999997E-002     2.7566773130919552E-028
  -3.3050000000000003E-002     2.6387442019534284E-027
  -3.3000000000000002E-002     5.4862014191238188E-027
  -3.2950000000000000E-002     8.1742447912936867E-027
  -3.2899999999999999E-002     9.8354425382265602E-027
  -3.2850000000000004E-002     9.5773629561988996E-027
  -3.2800000000000003E-002     6.7548277195497031E-027
  -3.2750000000000001E-002     1.2380627030910632E-027
  -3.2700000000000000E-002    -6.4228004142166648E-027
  -3.2649999999999998E-002    -1.5022447522683487E-026
  -3.2600000000000004E-002    -2.2943821902992756E-026
  -3.2550000000000003E-002    -2.8562989119012246E-026
  -3.2500000000000001E-002    -3.0670911612867707E-026
  -3.2450000000000000E-002    -2.8722309635184816E-026
  -3.2399999999999998E-002    -2.2756845574259709E-026
  -3.2350000000000004E-002    -1.2967699587635203E-026
  -3.2300000000000002E-002     9.0964013411518231E-028
  -3.2250000000000001E-002     2.0022586820655830E-026
  -3.2199999999999999E-002     4.6188905139616896E-026
  -3.2149999999999998E-002     8.0711301273945391E-026
  -3.2100000000000004E-002     1.2224307456311533E-025
  -3.2050000000000002E-002     1.6427046338493222E-025
  -3.2000000000000001E-002     1.9332863663491293E-025
  -3.1949999999999999E-002     1.8937113914241105E-025
  -3.1899999999999998E-002     1.2950933921327145E-025
  -3.1850000000000003E-002    -4.5183242652372747E-027
  -3.1800000000000002E-002    -2.1621982811874968E-025
  -3.1750000000000000E-002    -4.8428891235225199E-025
  -3.1699999999999999E-002    -7.5661023874523950E-025
  -3.1649999999999998E-002    -9.5255649962043274E-025
  -3.1600000000000003E-002    -9.7648034857036311E-025
  -3.1550000000000002E-002    -7.4235120213009098E-025
  -3.1500000000000000E-002    -2.0544866101195615E-025
  -3.1449999999999999E-002     6.0697408114792150E-025
  -3.1399999999999997E-002     1.5766092638902671E-024
  -3.1350000000000003E-002     2.4967242884013106E-024
  -3.1300000000000001E-002     3.1025988957833620E-024
  -3.1250000000000000E-002     3.1286517775208163E-024
  -3.1199999999999999E-002     2.3823688660040431E-024
  -3.1150000000000001E-002     8.1746330098394624E-025
  -3.1100000000000003E-002    -1.4151123214730359E-024
  -3.1050000000000001E-002    -3.9575391868124675E-024
  -3.1000000000000000E-002    -6.2876326208685364E-024
  -3.0949999999999998E-002    -7.8111162437586337E-024
  -3.0900000000000000E-002    -7.9871768753454803E-024
  -3.0850000000000002E-002    -6.4600870558715643E-024
  -3.0800000000000001E-002    -3.1661393991091113E-024
  -3.0750000000000000E-002     1.6096589658235497E-024
  -3.0699999999999998E-002     7.2401827539219362E-024
  -3.0650000000000000E-002     1.2823692287803245E-023
  -3.0600000000000002E-002     1.7297128468418928E-023
  -3.0550000000000001E-002     1.9574939349936874E-023
  -3.0499999999999999E-002     1.8697132507420148E-023
  -3.0449999999999998E-002     1.3980404698604728E-023
  -3.0400000000000000E-002     5.1756333818865305E-024
  -3.0350000000000002E-002    -7.3645796381547739E-024
  -3.0300000000000001E-002    -2.2519212744471619E-023
  -3.0249999999999999E-002    -3.8272556658079339E-023
  -3.0200000000000001E-002    -5.1701493864626937E-023
  -3.0150000000000000E-002    -5.9171072748734841E-023
  -3.0100000000000002E-002    -5.6823400208035009E-023
  -3.0050000000000000E-002    -4.1390376550757503E-023
  -2.9999999999999999E-002    -1.1260878357105698E-023
  -2.9950000000000001E-002     3.2392943010084762E-023
  -2.9899999999999999E-002     8.4740846080177847E-023
  -2.9850000000000002E-002     1.3703930440339946E-022
  -2.9800000000000000E-002     1.7732122177815548E-022
  -2.9749999999999999E-002     1.9219220142584499E-022
  -2.9700000000000001E-002     1.6962542330976283E-022
  -2.9650000000000003E-002     1.0232643612478075E-022
  -2.9600000000000001E-002    -9.0458802151608085E-024
  -2.9550000000000000E-002    -1.5367018392705870E-022
  -2.9499999999999998E-002    -3.1018019629921494E-022
  -2.9450000000000000E-002    -4.4863747930148390E-022
  -2.9400000000000003E-002    -5.3490620367902113E-022
  -2.9350000000000001E-002    -5.3690847686658179E-022
  -2.9300000000000000E-002    -4.3172091175664509E-022
  -2.9249999999999998E-002    -2.1215551863463067E-022
  -2.9200000000000000E-002     1.0855983387979721E-022
  -2.9150000000000002E-002     4.9510843506520774E-022
  -2.9100000000000001E-002     8.9202136082957651E-022
  -2.9049999999999999E-002     1.2292360113290669E-021
  -2.8999999999999998E-002     1.4307752612065619E-021
  -2.8950000000000000E-002     1.4257060177868035E-021
  -2.8900000000000002E-002     1.1603942757500617E-021
  -2.8850000000000001E-002     6.1101462475917228E-022
  -2.8799999999999999E-002    -2.0485615118750388E-022
  -2.8749999999999998E-002    -1.2190874745174976E-021
  -2.8700000000000000E-002    -2.3084098739197236E-021
  -2.8650000000000002E-002    -3.2971832938703240E-021
  -2.8600000000000000E-002    -3.9706357283037663E-021
  -2.8549999999999999E-002    -4.1011423767683882E-021
  -2.8500000000000001E-002    -3.4882630741886902E-021
  -2.8450000000000000E-002    -2.0098774500027253E-021
  -2.8400000000000002E-002     3.2274444607721399E-022
  -2.8350000000000000E-002     3.3177817229447326E-021
  -2.8299999999999999E-002     6.5788128036162039E-021
  -2.8250000000000001E-002     9.5194104360728963E-021
  -2.8200000000000003E-002     1.1427834333079766E-020
  -2.8150000000000001E-002     1.1584295359165326E-020
  -2.8100000000000000E-002     9.4202606743642349E-021
  -2.8049999999999999E-002     4.6946119209125975E-021
  -2.8000000000000001E-002    -2.3511529139284963E-021
  -2.7950000000000003E-002    -1.0902929540705520E-020
  -2.7900000000000001E-002    -1.9590169505981066E-020
  -2.7850000000000000E-002    -2.6634254916555018E-020
  -2.7799999999999998E-002    -3.0129648443446153E-020
  -2.7750000000000000E-002    -2.8426402910514777E-020
  -2.7700000000000002E-002    -2.0550776604244482E-020
  -2.7650000000000001E-002    -6.5772874389710387E-021
  -2.7600000000000000E-002     1.2141999918061292E-020
  -2.7549999999999998E-002     3.2971889831323903E-020
  -2.7500000000000000E-002     5.2258453458873019E-020
  -2.7450000000000002E-002     6.5858610531476063E-020
  -2.7400000000000001E-002     6.9871730252582694E-020
  -2.7349999999999999E-002     6.1457205900255123E-020
  -2.7299999999999998E-002     3.9586905562878797E-020
  -2.7250000000000000E-002     5.5739012588065845E-021
  -2.7200000000000002E-002    -3.6756779010913971E-020
  -2.7150000000000001E-002    -8.1336271775809186E-020
  -2.7099999999999999E-002    -1.2056656354393127E-019
  -2.7049999999999998E-002    -1.4640947802355844E-019
  -2.7000000000000000E-002    -1.5170719334558614E-019
  -2.6950000000000002E-002    -1.3154124715723243E-019
  -2.6900000000000000E-002    -8.4417457825779317E-020
  -2.6849999999999999E-002    -1.3074595191098128E-020
  -2.6800000000000001E-002     7.5246587933199393E-020
  -2.6749999999999999E-002     1.6917834295658212E-019
  -2.6700000000000002E-002     2.5427868957432475E-019
  -2.6650000000000000E-002     3.1471738077390017E-019
  -2.6599999999999999E-002     3.3547055569674341E-019
  -2.6550000000000001E-002     3.0481842745724289E-019
  -2.6500000000000003E-002     2.1686043478113786E-019
  -2.6450000000000001E-002     7.3692336847488286E-020
  -2.6400000000000000E-002    -1.1315861441637399E-019
  -2.6349999999999998E-002    -3.2244935680046005E-019
  -2.6300000000000000E-002    -5.2443688132426859E-019
  -2.6250000000000002E-002    -6.8379673491252744E-019
  -2.6200000000000001E-002    -7.6421349962130671E-019
  -2.6150000000000000E-002    -7.3429610362186184E-019
  -2.6099999999999998E-002    -5.7412661612500676E-019
  -2.6050000000000000E-002    -2.8142960641005980E-019
  -2.6000000000000002E-002     1.2385937353153308E-019
  -2.5950000000000001E-002     5.9787125633395804E-019
  -2.5899999999999999E-002     1.0749488833494080E-018
  -2.5849999999999998E-002     1.4741973937324229E-018
  -2.5800000000000000E-002     1.7102664099156347E-018
  -2.5750000000000002E-002     1.7073518473576882E-018
  -2.5700000000000001E-002     1.4145703524178006E-018
  -2.5649999999999999E-002     8.2021390578850585E-019
  -2.5599999999999998E-002    -3.7921900977586270E-020
  -2.5550000000000000E-002    -1.0687884588642151E-018
  -2.5500000000000002E-002    -2.1328998685401304E-018
  -2.5450000000000000E-002    -3.0565511837134729E-018
  -2.5399999999999999E-002    -3.6547775692885355E-018
  -2.5349999999999998E-002    -3.7607457301423041E-018
  -2.5300000000000000E-002    -3.2577541114736917E-018
  -2.5250000000000002E-002    -2.1088632509315933E-018
  -2.5200000000000000E-002    -3.7870060005778900E-019
  -2.5149999999999999E-002     1.7577080966317341E-018
  -2.5100000000000001E-002     4.0229895752175721E-018
  -2.5049999999999999E-002     6.0641902858647277E-018
  -2.5000000000000001E-002     7.4973308461596678E-018
  -2.4950000000000000E-002     7.9656968590591854E-018
  -2.4899999999999999E-002     7.2047542423598082E-018
  -2.4850000000000001E-002     5.1041069316943694E-018
  -2.4800000000000003E-002     1.7555204322655119E-018
  -2.4750000000000001E-002    -2.5237661958400954E-018
  -2.4700000000000000E-002    -7.2011936746785464E-018
  -2.4649999999999998E-002    -1.1577263592442651E-017
  -2.4600000000000000E-002    -1.4871309968454753E-017
  -2.4550000000000002E-002    -1.6337198661324130E-017
  -2.4500000000000001E-002    -1.5394840182193734E-017
  -2.4450000000000000E-002    -1.1757916099988369E-017
  -2.4399999999999998E-002    -5.5351687827065189E-018
  -2.4350000000000000E-002     2.7169901901910244E-018
  -2.4299999999999999E-002     1.2008312827311793E-017
  -2.4250000000000001E-002     2.1004224966927419E-017
  -2.4199999999999999E-002     2.8188641375678084E-017
  -2.4150000000000001E-002     3.2084435839520331E-017
  -2.4100000000000000E-002     3.1503471254993648E-017
  -2.4049999999999998E-002     2.5788449959603389E-017
  -2.4000000000000000E-002     1.5004717589666317E-017
  -2.3949999999999999E-002     4.2516716711915874E-020
  -2.3900000000000001E-002    -1.7400104070374948E-017
  -2.3850000000000000E-002    -3.4967548312415141E-017
  -2.3800000000000002E-002    -4.9923682195388469E-017
  -2.3750000000000000E-002    -5.9527726690892874E-017
  -2.3699999999999999E-002    -6.1461973453178962E-017
  -2.3650000000000001E-002    -5.4250790342896252E-017
  -2.3599999999999999E-002    -3.7605088394389361E-017
  -2.3550000000000001E-002    -1.2630968730600868E-017
  -2.3500000000000000E-002     1.8144776101990787E-017
  -2.3449999999999999E-002     5.0957460907366556E-017
  -2.3400000000000001E-002     8.1193229996437964E-017
  -2.3349999999999999E-002     1.0395207558900984E-016
  -2.3300000000000001E-002     1.1472594588986484E-016
  -2.3250000000000000E-002     1.1011077264974695E-016
  -2.3199999999999998E-002     8.8457511836134528E-017
  -2.3150000000000000E-002     5.0363974825557209E-017
  -2.3099999999999999E-002    -1.0818322785339571E-018
  -2.3050000000000001E-002    -6.0375820726048023E-017
  -2.3000000000000000E-002    -1.2002588315182115E-016
  -2.2950000000000002E-002    -1.7132862102905176E-016
  -2.2900000000000000E-002    -2.0544141125079308E-016
  -2.2849999999999999E-002    -2.1464650195545073E-016
  -2.2800000000000001E-002    -1.9365862368192739E-016
  -2.2749999999999999E-002    -1.4079442875928184E-016
  -2.2700000000000001E-002    -5.8808303023093196E-017
  -2.2650000000000000E-002     4.4788340853033593E-017
  -2.2599999999999999E-002     1.5806356630782932E-016
  -2.2550000000000001E-002     2.6572298620954870E-016
  -2.2499999999999999E-002     3.5085556383097347E-016
  -2.2450000000000001E-002     3.9721911040703796E-016
  -2.2400000000000000E-002     3.9180604234319553E-016
  -2.2349999999999998E-002     3.2733804834087491E-016
  -2.2300000000000000E-002     2.0428801082697450E-016
  -2.2249999999999999E-002     3.2034533618969437E-017
  -2.2200000000000001E-002    -1.7117347518383195E-016
  -2.2150000000000000E-002    -3.7962673784606008E-016
  -2.2100000000000002E-002    -5.6293452330658487E-016
  -2.2050000000000000E-002    -6.8994651647867326E-016
  -2.1999999999999999E-002    -7.3337782218123284E-016
  -2.1950000000000001E-002    -6.7451854738142201E-016
  -2.1899999999999999E-002    -5.0730898941407685E-016
  -2.1850000000000001E-002    -2.4106011656777703E-016
  -2.1800000000000000E-002     9.8788132180756191E-017
  -2.1749999999999999E-002     4.7225377490349770E-016
  -2.1700000000000001E-002     8.2881684586621966E-016
  -2.1649999999999999E-002     1.1135475774529734E-015
  -2.1600000000000001E-002     1.2747080093127051E-015
  -2.1550000000000000E-002     1.2718654642192978E-015
  -2.1499999999999998E-002     1.0833666247811107E-015
  -2.1450000000000000E-002     7.1197259677529314E-016
  -2.1399999999999999E-002     1.8758800863886145E-016
  -2.1350000000000001E-002    -4.3367546467997255E-016
  -2.1299999999999999E-002    -1.0744076071779066E-015
  -2.1250000000000002E-002    -1.6445329764433437E-015
  -2.1200000000000000E-002    -2.0528459873788418E-015
  -2.1149999999999999E-002    -2.2200997564799906E-015
  -2.1100000000000001E-002    -2.0919210202725957E-015
  -2.1049999999999999E-002    -1.6496498926565793E-015
  -2.1000000000000001E-002    -9.1729488745947451E-016
  -2.0950000000000000E-002     3.6846657954637902E-017
  -2.0899999999999998E-002     1.1047360196718976E-015
  -2.0850000000000000E-002     2.1493400086927048E-015
  -2.0799999999999999E-002     3.0207226399655838E-015
  -2.0750000000000001E-002     3.5757611755997230E-015
  -2.0700000000000000E-002     3.6990848037374495E-015
  -2.0649999999999998E-002     3.3223892245784044E-015
  -2.0600000000000000E-002     2.4392524151166290E-015
  -2.0549999999999999E-002     1.1129029466057728E-015
  -2.0500000000000001E-002    -5.2486030303075110E-016
  -2.0449999999999999E-002    -2.2843411087836626E-015
  -2.0400000000000001E-002    -3.9377096880915040E-015
  -2.0350000000000000E-002    -5.2460644095452358E-015
  -2.0299999999999999E-002    -5.9908405843169751E-015
  -2.0250000000000001E-002    -6.0057535684963352E-015
  -2.0199999999999999E-002    -5.2050498136759905E-015
  -2.0150000000000001E-002    -3.6039070583656872E-015
  -2.0100000000000000E-002    -1.3274845632728979E-015
  -2.0049999999999998E-002     1.3937485682870892E-015
  -2.0000000000000000E-002     4.2432282820718205E-015
  -1.9949999999999999E-002     6.8510790538806342E-015
  -1.9900000000000001E-002     8.8376369734826232E-015
  -1.9850000000000000E-002     9.8631775313392073E-015
  -1.9799999999999998E-002     9.6780310893234546E-015
  -1.9750000000000000E-002     8.1665108404106227E-015
  -1.9699999999999999E-002     5.3781053206963829E-015
  -1.9650000000000001E-002     1.5402537935548209E-015
  -1.9599999999999999E-002    -2.9512569596784953E-015
  -1.9550000000000001E-002    -7.5657785708203214E-015
  -1.9500000000000000E-002    -1.1693638163928586E-014
  -1.9449999999999999E-002    -1.4719556314844627E-014
  -1.9400000000000001E-002    -1.6105820854899344E-014
  -1.9349999999999999E-002    -1.5475003355787998E-014
  -1.9300000000000001E-002    -1.2680683186853374E-014
  -1.9250000000000000E-002    -7.8548170588143987E-015
  -1.9199999999999998E-002    -1.4221963758106445E-015
  -1.9150000000000000E-002     5.9240902713018338E-015
  -1.9099999999999999E-002     1.3287485355538030E-014
  -1.9050000000000001E-002     1.9668694751962919E-014
  -1.9000000000000000E-002     2.4092300310506564E-014
  -1.8949999999999998E-002     2.5744226801257743E-014
  -1.8900000000000000E-002     2.4101793628898839E-014
  -1.8849999999999999E-002     1.9037065443951889E-014
  -1.8800000000000001E-002     1.0876051510990127E-014
  -1.8749999999999999E-002     4.0075138605959146E-016
  -1.8700000000000001E-002    -1.1212001298117064E-014
  -1.8650000000000000E-002    -2.2512502247204346E-014
  -1.8599999999999998E-002    -3.1949711043635431E-014
  -1.8550000000000001E-002    -3.8072971046172329E-014
  -1.8499999999999999E-002    -3.9738670814680464E-014
  -1.8450000000000001E-002    -3.6293680956178848E-014
  -1.8400000000000000E-002    -2.7708334404007350E-014
  -1.8349999999999998E-002    -1.4636532655718950E-014
  -1.8300000000000000E-002     1.6112134469463823E-015
  -1.8249999999999999E-002     1.9185129299529657E-014
  -1.8200000000000001E-002     3.5895358486139376E-014
  -1.8149999999999999E-002     4.9472633652221616E-014
  -1.8100000000000002E-002     5.7860649408622978E-014
  -1.8050000000000000E-002     5.9503784742698216E-014
  -1.7999999999999999E-002     5.3592128119800996E-014
  -1.7950000000000001E-002     4.0228449596972009E-014
  -1.7899999999999999E-002     2.0489658397039444E-014
  -1.7850000000000001E-002    -3.6332049337052432E-015
  -1.7800000000000000E-002    -2.9417664350301454E-014
  -1.7749999999999998E-002    -5.3700986353885085E-014
  -1.7700000000000000E-002    -7.3250605998842528E-014
  -1.7649999999999999E-002    -8.5172486663409351E-014
  -1.7600000000000001E-002    -8.7308242421730565E-014
  -1.7550000000000000E-002    -7.8569598072507572E-014
  -1.7499999999999998E-002    -5.9162933584749261E-014
  -1.7450000000000000E-002    -3.0666966029573613E-014
  -1.7399999999999999E-002     4.0577183152197596E-015
  -1.7350000000000001E-002     4.1128918417117918E-014
  -1.7299999999999999E-002     7.6053412710282590E-014
  -1.7250000000000001E-002     1.0424777685738733E-013
  -1.7200000000000000E-002     1.2161240533872954E-013
  -1.7149999999999999E-002     1.2509051301018807E-013
  -1.7100000000000001E-002     1.1314009922170504E-013
  -1.7049999999999999E-002     8.6052182604979519E-014
  -1.7000000000000001E-002     4.6062389398952810E-014
  -1.6950000000000000E-002    -2.7754692577673977E-015
  -1.6899999999999998E-002    -5.4957486803836096E-014
  -1.6850000000000000E-002    -1.0411309138398081E-013
  -1.6799999999999999E-002    -1.4374798121508773E-013
  -1.6750000000000001E-002    -1.6806526110861410E-013
  -1.6700000000000000E-002    -1.7276694629013874E-013
  -1.6649999999999998E-002    -1.5573131431597763E-013
  -1.6600000000000000E-002    -1.1746822036994754E-013
  -1.6549999999999999E-002    -6.1274339410304993E-014
  -1.6500000000000001E-002     6.9585367856391858E-015
  -1.6449999999999999E-002     7.9288114220694284E-014
  -1.6400000000000001E-002     1.4658003656614877E-013
  -1.6350000000000000E-002     1.9959623350795069E-013
  -1.6299999999999999E-002     2.3019189733682047E-013
  -1.6250000000000001E-002     2.3247427558361799E-013
  -1.6199999999999999E-002     2.0376793017565517E-013
  -1.6150000000000001E-002     1.4524309631581648E-013
  -1.6100000000000000E-002     6.2095505962238020E-014
  -1.6049999999999998E-002    -3.6784065938410671E-014
  -1.6000000000000000E-002    -1.3965015761215897E-013
  -1.5949999999999999E-002    -2.3318463781286842E-013
  -1.5900000000000001E-002    -3.0408871846146324E-013
  -1.5850000000000000E-002    -3.4080122616841677E-013
  -1.5799999999999998E-002    -3.3513040530195730E-013
  -1.5750000000000000E-002    -2.8358120867439729E-013
  -1.5699999999999999E-002    -1.8818617481024146E-013
  -1.5650000000000001E-002    -5.6699328114729275E-014
  -1.5599999999999999E-002     9.7913421486358893E-014
  -1.5550000000000001E-002     2.5866754806040671E-013
  -1.5500000000000000E-002     4.0632872047248459E-013
  -1.5449999999999998E-002     5.2157083053250457E-013
  -1.5400000000000000E-002     5.8727917876694307E-013
  -1.5349999999999999E-002     5.9072547742540388E-013
  -1.5300000000000001E-002     5.2534601277892344E-013
  -1.5250000000000000E-002     3.9189161106699560E-013
  -1.5199999999999998E-002     1.9878662033509986E-013
  -1.5150000000000000E-002    -3.8378095479809542E-014
  -1.5099999999999999E-002    -2.9819222864403760E-013
  -1.5050000000000001E-002    -5.5548689758574880E-013
  -1.4999999999999999E-002    -7.8389713476710500E-013
  -1.4949999999999998E-002    -9.5864934391586505E-013
  -1.4900000000000000E-002    -1.0592602395464943E-012
  -1.4849999999999999E-002    -1.0718418469383120E-012
  -1.4800000000000001E-002    -9.9073771731652485E-013
  -1.4749999999999999E-002    -8.1928992382634299E-013
  -1.4700000000000001E-002    -5.6963118257984505E-013
  -1.4650000000000000E-002    -2.6150518135432473E-013
  -1.4599999999999998E-002     7.9762502460073395E-014
  -1.4550000000000000E-002     4.2591836042990270E-013
  -1.4499999999999999E-002     7.4874934888889999E-013
  -1.4450000000000001E-002     1.0230101709610582E-012
  -1.4400000000000000E-002     1.2289419602569246E-012
  -1.4349999999999998E-002     1.3540577777121765E-012
  -1.4300000000000000E-002     1.3939519485687631E-012
  -1.4249999999999999E-002     1.3520107062910785E-012
  -1.4200000000000001E-002     1.2380464415186316E-012
  -1.4149999999999999E-002     1.0660301519787882E-012
  -1.4099999999999998E-002     8.5123289359432470E-013
  -1.4050000000000000E-002     6.0719654628026714E-013
  -1.3999999999999999E-002     3.4300948584327161E-013
  -1.3950000000000001E-002     6.1360455901070453E-014
  -1.3899999999999999E-002    -2.4222396101231437E-013
  -1.3850000000000001E-002    -5.7868157138687692E-013
  -1.3800000000000000E-002    -9.6315753036674003E-013
  -1.3749999999999998E-002    -1.4112918427678985E-012
  -1.3700000000000000E-002    -1.9343613911077541E-012
  -1.3649999999999999E-002    -2.5337725844986962E-012
  -1.3600000000000001E-002    -3.1955296486912432E-012
  -1.3550000000000000E-002    -3.8853719689274365E-012
  -1.3499999999999998E-002    -4.5452580363296005E-012
  -1.3450000000000000E-002    -5.0917734308687477E-012
  -1.3399999999999999E-002    -5.4168659034979362E-012
  -1.3350000000000001E-002    -5.3910785577828907E-012
  -1.3299999999999999E-002    -4.8691846528342273E-012
  -1.3249999999999998E-002    -3.6978560424845172E-012
  -1.3200000000000000E-002    -1.7247737830751410E-012
  -1.3149999999999998E-002     1.1916214869129124E-012
  -1.3100000000000001E-002     5.1726224150875627E-012
  -1.3049999999999999E-002     1.0310892557780150E-011
  -1.3000000000000001E-002     1.6664064223346724E-011
  -1.2950000000000000E-002     2.4250930094933277E-011
  -1.2899999999999998E-002     3.3050615985929669E-011
  -1.2850000000000000E-002     4.3004824531907332E-011
  -1.2799999999999999E-002     5.4022908845245574E-011