  -4.0000000000000001E-002     0.0000000000000000     
  -3.9949999999999999E-002     0.0000000000000000     
  -3.9899999999999998E-002     0.0000000000000000     
  -3.9850000000000003E-002     0.0000000000000000     
  -3.9800000000000002E-002     0.0000000000000000     
  -3.9750000000000001E-002     0.0000000000000000     
  -3.9699999999999999E-002     0.0000000000000000     
  -3.9649999999999998E-002     0.0000000000000000     
  -3.9600000000000003E-002     0.0000000000000000     
  -3.9550000000000002E-002     0.0000000000000000     
  -3.9500000000000000E-002     0.0000000000000000     
  -3.9449999999999999E-002     0.0000000000000000     
  -3.9399999999999998E-002     0.0000000000000000     
  -3.9350000000000003E-002     0.0000000000000000     
  -3.9300000000000002E-002     0.0000000000000000     
  -3.9250000000000000E-002     0.0000000000000000     
  -3.9199999999999999E-002     0.0000000000000000     
  -3.9150000000000004E-002     0.0000000000000000     
  -3.9100000000000003E-002     0.0000000000000000     
  -3.9050000000000001E-002     0.0000000000000000     
  -3.9000000000000000E-002     0.0000000000000000     
  -3.8949999999999999E-002     0.0000000000000000     
  -3.8900000000000004E-002     0.0000000000000000     
  -3.8850000000000003E-002     0.0000000000000000     
  -3.8800000000000001E-002     0.0000000000000000     
  -3.8750000000000000E-002     0.0000000000000000     
  -3.8699999999999998E-002     0.0000000000000000     
  -3.8650000000000004E-002     0.0000000000000000     
  -3.8600000000000002E-002     0.0000000000000000     
  -3.8550000000000001E-002     0.0000000000000000     
  -3.8500000000000000E-002     0.0000000000000000     
  -3.8449999999999998E-002     0.0000000000000000     
  -3.8400000000000004E-002     0.0000000000000000     
  -3.8350000000000002E-002     0.0000000000000000     
  -3.8300000000000001E-002     0.0000000000000000     
  -3.8249999999999999E-002     0.0000000000000000     
  -3.8199999999999998E-002     0.0000000000000000     
  -3.8150000000000003E-002     0.0000000000000000     
  -3.8100000000000002E-002     0.0000000000000000     
  -3.8050000000000000E-002     0.0000000000000000     
  -3.7999999999999999E-002     0.0000000000000000     
  -3.7949999999999998E-002     0.0000000000000000     
  -3.7900000000000003E-002     0.0000000000000000     
  -3.7850000000000002E-002     0.0000000000000000     
  -3.7800000000000000E-002     0.0000000000000000     
  -3.7749999999999999E-002     0.0000000000000000     
  -3.7699999999999997E-002     0.0000000000000000     
  -3.7650000000000003E-002     0.0000000000000000     
  -3.7600000000000001E-002     0.0000000000000000     
  -3.7550000000000000E-002     0.0000000000000000     
  -3.7499999999999999E-002     0.0000000000000000     
  -3.7449999999999997E-002     0.0000000000000000     
  -3.7400000000000003E-002     0.0000000000000000     
  -3.7350000000000001E-002     0.0000000000000000     
  -3.7300000000000000E-002     0.0000000000000000     
  -3.7249999999999998E-002     0.0000000000000000     
  -3.7200000000000004E-002     0.0000000000000000     
  -3.7150000000000002E-002     0.0000000000000000     
  -3.7100000000000001E-002     0.0000000000000000     
  -3.7050000000000000E-002     0.0000000000000000     
  -3.6999999999999998E-002     0.0000000000000000     
  -3.6950000000000004E-002     0.0000000000000000     
  -3.6900000000000002E-002     0.0000000000000000     
  -3.6850000000000001E-002     0.0000000000000000     
  -3.6799999999999999E-002     0.0000000000000000     
  -3.6749999999999998E-002     0.0000000000000000     
  -3.6700000000000003E-002     0.0000000000000000     
  -3.6650000000000002E-002     0.0000000000000000     
  -3.6600000000000001E-002     0.0000000000000000     
  -3.6549999999999999E-002     0.0000000000000000     
  -3.6499999999999998E-002     0.0000000000000000     
  -3.6450000000000003E-002     0.0000000000000000     
  -3.6400000000000002E-002     0.0000000000000000     
  -3.6350000000000000E-002     0.0000000000000000     
  -3.6299999999999999E-002     0.0000000000000000     
  -3.6249999999999998E-002     0.0000000000000000     
  -3.6200000000000003E-002     0.0000000000000000     
  -3.6150000000000002E-002     0.0000000000000000     
  -3.6100000000000000E-002     0.0000000000000000     
  -3.6049999999999999E-002     0.0000000000000000     
  -3.6000000000000004E-002     0.0000000000000000     
  -3.5950000000000003E-002     0.0000000000000000     
  -3.5900000000000001E-002     0.0000000000000000     
  -3.5850000000000000E-002     0.0000000000000000     
  -3.5799999999999998E-002     0.0000000000000000     
  -3.5750000000000004E-002     0.0000000000000000     
  -3.5700000000000003E-002     0.0000000000000000     
  -3.5650000000000001E-002     0.0000000000000000     
  -3.5600000000000000E-002     0.0000000000000000     
  -3.5549999999999998E-002     0.0000000000000000     
  -3.5500000000000004E-002     0.0000000000000000     
  -3.5450000000000002E-002     0.0000000000000000     
  -3.5400000000000001E-002     0.0000000000000000     
  -3.5349999999999999E-002     0.0000000000000000     
  -3.5299999999999998E-002     0.0000000000000000     
  -3.5250000000000004E-002     0.0000000000000000     
  -3.5200000000000002E-002     0.0000000000000000     
  -3.5150000000000001E-002     0.0000000000000000     
  -3.5099999999999999E-002     0.0000000000000000     
  -3.5049999999999998E-002     0.0000000000000000     
  -3.5000000000000003E-002     0.0000000000000000     
  -3.4950000000000002E-002     0.0000000000000000     
  -3.4900000000000000E-002     0.0000000000000000     
  -3.4849999999999999E-002     0.0000000000000000     
  -3.4799999999999998E-002     0.0000000000000000     
  -3.4750000000000003E-002     0.0000000000000000     
  -3.4700000000000002E-002     0.0000000000000000     
  -3.4650000000000000E-002     0.0000000000000000     
  -3.4599999999999999E-002     0.0000000000000000     
  -3.4549999999999997E-002     0.0000000000000000     
  -3.4500000000000003E-002     0.0000000000000000     
  -3.4450000000000001E-002     0.0000000000000000     
  -3.4400000000000000E-002     0.0000000000000000     
  -3.4349999999999999E-002     0.0000000000000000     
  -3.4299999999999997E-002     0.0000000000000000     
  -3.4250000000000003E-002     0.0000000000000000     
  -3.4200000000000001E-002     0.0000000000000000     
  -3.4150000000000000E-002     0.0000000000000000     
  -3.4099999999999998E-002     0.0000000000000000     
  -3.4049999999999997E-002     0.0000000000000000     
  -3.4000000000000002E-002     0.0000000000000000     
  -3.3950000000000001E-002     0.0000000000000000     
  -3.3900000000000000E-002     0.0000000000000000     
  -3.3849999999999998E-002     0.0000000000000000     
  -3.3799999999999997E-002     0.0000000000000000     
  -3.3750000000000002E-002     0.0000000000000000     
  -3.3700000000000001E-002     0.0000000000000000     
  -3.3649999999999999E-002     0.0000000000000000     
  -3.3599999999999998E-002     0.0000000000000000     
  -3.3550000000000003E-002     0.0000000000000000     
  -3.3500000000000002E-002     0.0000000000000000     
  -3.3450000000000001E-002     0.0000000000000000     
  -3.3399999999999999E-002     0.0000000000000000     
  -3.3349999999999998E-002     0.0000000000000000     
  -3.3300000000000003E-002     0.0000000000000000     
  -3.3250000000000002E-002     0.0000000000000000     
  -3.3200000000000000E-002     0.0000000000000000     
  -3.3149999999999999E-002     0.0000000000000000     
  -3.3099999999999997E-002     0.0000000000000000     
  -3.3050000000000003E-002     0.0000000000000000     
  -3.3000000000000002E-002     0.0000000000000000     
  -3.2950000000000000E-002     0.0000000000000000     
  -3.2899999999999999E-002     0.0000000000000000     
  -3.2850000000000004E-002     0.0000000000000000     
  -3.2800000000000003E-002     0.0000000000000000     
  -3.2750000000000001E-002     0.0000000000000000     
  -3.2700000000000000E-002     0.0000000000000000     
  -3.2649999999999998E-002     0.0000000000000000     
  -3.2600000000000004E-002     0.0000000000000000     
  -3.2550000000000003E-002     0.0000000000000000     
  -3.2500000000000001E-002     0.0000000000000000     
  -3.2450000000000000E-002     0.0000000000000000     
  -3.2399999999999998E-002     0.0000000000000000     
  -3.2350000000000004E-002     0.0000000000000000     
  -3.2300000000000002E-002     0.0000000000000000     
  -3.2250000000000001E-002     0.0000000000000000     
  -3.2199999999999999E-002     0.0000000000000000     
  -3.2149999999999998E-002     0.0000000000000000     
  -3.2100000000000004E-002     0.0000000000000000     
  -3.2050000000000002E-002     0.0000000000000000     
  -3.2000000000000001E-002     0.0000000000000000     
  -3.1949999999999999E-002     0.0000000000000000     
  -3.1899999999999998E-002     0.0000000000000000     
  -3.1850000000000003E-002     0.0000000000000000     
  -3.1800000000000002E-002     0.0000000000000000     
  -3.1750000000000000E-002     0.0000000000000000     
  -3.1699999999999999E-002     0.0000000000000000     
  -3.1649999999999998E-002     0.0000000000000000     
  -3.1600000000000003E-002     0.0000000000000000     
  -3.1550000000000002E-002     0.0000000000000000     
  -3.1500000000000000E-002     0.0000000000000000     
  -3.1449999999999999E-002     0.0000000000000000     
  -3.1399999999999997E-002     0.0000000000000000     
  -3.1350000000000003E-002     0.0000000000000000     
  -3.1300000000000001E-002     0.0000000000000000     
  -3.1250000000000000E-002     0.0000000000000000     
  -3.1199999999999999E-002     0.0000000000000000     
  -3.1150000000000001E-002     0.0000000000000000     
  -3.1100000000000003E-002     0.0000000000000000     
  -3.1050000000000001E-002     0.0000000000000000     
  -3.1000000000000000E-002     0.0000000000000000     
  -3.0949999999999998E-002     0.0000000000000000     
  -3.0900000000000000E-002     0.0000000000000000     
  -3.0850000000000002E-002     0.0000000000000000     
  -3.0800000000000001E-002     0.0000000000000000     
  -3.0750000000000000E-002     0.0000000000000000     
  -3.0699999999999998E-002     0.0000000000000000     
  -3.0650000000000000E-002     0.0000000000000000     
  -3.0600000000000002E-002     0.0000000000000000     
  -3.0550000000000001E-002     0.0000000000000000     
  -3.0499999999999999E-002     0.0000000000000000     
  -3.0449999999999998E-002     0.0000000000000000     
  -3.0400000000000000E-002     0.0000000000000000     
  -3.0350000000000002E-002     0.0000000000000000     
  -3.0300000000000001E-002     0.0000000000000000     
  -3.0249999999999999E-002     0.0000000000000000     
  -3.0200000000000001E-002     0.0000000000000000     
  -3.0150000000000000E-002     0.0000000000000000     
  -3.0100000000000002E-002     0.0000000000000000     
  -3.0050000000000000E-002     0.0000000000000000     
  -2.9999999999999999E-002     0.0000000000000000     
  -2.9950000000000001E-002     0.0000000000000000     
  -2.9899999999999999E-002     0.0000000000000000     
  -2.9850000000000002E-002     0.0000000000000000     
  -2.9800000000000000E-002     0.0000000000000000     
  -2.9749999999999999E-002     0.0000000000000000     
  -2.9700000000000001E-002     0.0000000000000000     
  -2.9650000000000003E-002     0.0000000000000000     
  -2.9600000000000001E-002     0.0000000000000000     
  -2.9550000000000000E-002     0.0000000000000000     
  -2.9499999999999998E-002     0.0000000000000000     
  -2.9450000000000000E-002     0.0000000000000000     
  -2.9400000000000003E-002     0.0000000000000000     
  -2.9350000000000001E-002     0.0000000000000000     
  -2.9300000000000000E-002     0.0000000000000000     
  -2.9249999999999998E-002     0.0000000000000000     
  -2.9200000000000000E-002     0.0000000000000000     
  -2.9150000000000002E-002     0.0000000000000000     
  -2.9100000000000001E-002     0.0000000000000000     
  -2.9049999999999999E-002     0.0000000000000000     
  -2.8999999999999998E-002     0.0000000000000000     
  -2.8950000000000000E-002     0.0000000000000000     
  -2.8900000000000002E-002     0.0000000000000000     
  -2.8850000000000001E-002     0.0000000000000000     
  -2.8799999999999999E-002     0.0000000000000000     
  -2.8749999999999998E-002     0.0000000000000000     
  -2.8700000000000000E-002     0.0000000000000000     
  -2.8650000000000002E-002     0.0000000000000000     
  -2.8600000000000000E-002     0.0000000000000000     
  -2.8549999999999999E-002     0.0000000000000000     
  -2.8500000000000001E-002     0.0000000000000000     
  -2.8450000000000000E-002     0.0000000000000000     
  -2.8400000000000002E-002     0.0000000000000000     
  -2.8350000000000000E-002     0.0000000000000000     
  -2.8299999999999999E-002     0.0000000000000000     
  -2.8250000000000001E-002     0.0000000000000000     
  -2.8200000000000003E-002     0.0000000000000000     
  -2.8150000000000001E-002     0.0000000000000000     
  -2.8100000000000000E-002     0.0000000000000000     
  -2.8049999999999999E-002     0.0000000000000000     
  -2.8000000000000001E-002     0.0000000000000000     
  -2.7950000000000003E-002     0.0000000000000000     
  -2.7900000000000001E-002     0.0000000000000000     
  -2.7850000000000000E-002     0.0000000000000000     
  -2.7799999999999998E-002     0.0000000000000000     
  -2.7750000000000000E-002     0.0000000000000000     
  -2.7700000000000002E-002     0.0000000000000000     
  -2.7650000000000001E-002     0.0000000000000000     
  -2.7600000000000000E-002     0.0000000000000000     
  -2.7549999999999998E-002     0.0000000000000000     
  -2.7500000000000000E-002     0.0000000000000000     
  -2.7450000000000002E-002     0.0000000000000000     
  -2.7400000000000001E-002     0.0000000000000000     
  -2.7349999999999999E-002     0.0000000000000000     
  -2.7299999999999998E-002     0.0000000000000000     
  -2.7250000000000000E-002     0.0000000000000000     
  -2.7200000000000002E-002     0.0000000000000000     
  -2.7150000000000001E-002     0.0000000000000000     
  -2.7099999999999999E-002     0.0000000000000000     
  -2.7049999999999998E-002     0.0000000000000000     
  -2.7000000000000000E-002     0.0000000000000000     
  -2.6950000000000002E-002     0.0000000000000000     
  -2.6900000000000000E-002     0.0000000000000000     
  -2.6849999999999999E-002     0.0000000000000000     
  -2.6800000000000001E-002     0.0000000000000000     
  -2.6749999999999999E-002     0.0000000000000000     
  -2.6700000000000002E-002     0.0000000000000000     
  -2.6650000000000000E-002     0.0000000000000000     
  -2.6599999999999999E-002     0.0000000000000000     
  -2.6550000000000001E-002     0.0000000000000000     
  -2.6500000000000003E-002     0.0000000000000000     
  -2.6450000000000001E-002     0.0000000000000000     
  -2.6400000000000000E-002     0.0000000000000000     
  -2.6349999999999998E-002     0.0000000000000000     
  -2.6300000000000000E-002     0.0000000000000000     
  -2.6250000000000002E-002     0.0000000000000000     
  -2.6200000000000001E-002     0.0000000000000000     
  -2.6150000000000000E-002     0.0000000000000000     
  -2.6099999999999998E-002     0.0000000000000000     
  -2.6050000000000000E-002     0.0000000000000000     
  -2.6000000000000002E-002     0.0000000000000000     
  -2.5950000000000001E-002     0.0000000000000000     
  -2.5899999999999999E-002     0.0000000000000000     
  -2.5849999999999998E-002     0.0000000000000000     
  -2.5800000000000000E-002     0.0000000000000000     
  -2.5750000000000002E-002     0.0000000000000000     
  -2.5700000000000001E-002     0.0000000000000000     
  -2.5649999999999999E-002     0.0000000000000000     
  -2.5599999999999998E-002     0.0000000000000000     
  -2.5550000000000000E-002     0.0000000000000000     
  -2.5500000000000002E-002     0.0000000000000000     
  -2.5450000000000000E-002     0.0000000000000000     
  -2.5399999999999999E-002     0.0000000000000000     
  -2.5349999999999998E-002     0.0000000000000000     
  -2.5300000000000000E-002     0.0000000000000000     
  -2.5250000000000002E-002     0.0000000000000000     
  -2.5200000000000000E-002     0.0000000000000000     
  -2.5149999999999999E-002     0.0000000000000000     
  -2.5100000000000001E-002     0.0000000000000000     
  -2.5049999999999999E-002     0.0000000000000000     
  -2.5000000000000001E-002     0.0000000000000000     
  -2.4950000000000000E-002     0.0000000000000000     
  -2.4899999999999999E-002     0.0000000000000000     
  -2.4850000000000001E-002     0.0000000000000000     
  -2.4800000000000003E-002     0.0000000000000000     
  -2.4750000000000001E-002     0.0000000000000000     
  -2.4700000000000000E-002     0.0000000000000000     
  -2.4649999999999998E-002     0.0000000000000000     
  -2.4600000000000000E-002     0.0000000000000000     
  -2.4550000000000002E-002     0.0000000000000000     
  -2.4500000000000001E-002     0.0000000000000000     
  -2.4450000000000000E-002     0.0000000000000000     
  -2.4399999999999998E-002     0.0000000000000000     
  -2.4350000000000000E-002     0.0000000000000000     
  -2.4299999999999999E-002     0.0000000000000000     
  -2.4250000000000001E-002     0.0000000000000000     
  -2.4199999999999999E-002     0.0000000000000000     
  -2.4150000000000001E-002     0.0000000000000000     
  -2.4100000000000000E-002     0.0000000000000000     
  -2.4049999999999998E-002     0.0000000000000000     
  -2.4000000000000000E-002     0.0000000000000000     
  -2.3949999999999999E-002     0.0000000000000000     
  -2.3900000000000001E-002     0.0000000000000000     
  -2.3850000000000000E-002     0.0000000000000000     
  -2.3800000000000002E-002     0.0000000000000000     
  -2.3750000000000000E-002     0.0000000000000000     
  -2.3699999999999999E-002     0.0000000000000000     
  -2.3650000000000001E-002     0.0000000000000000     
  -2.3599999999999999E-002     0.0000000000000000     
  -2.3550000000000001E-002     0.0000000000000000     
  -2.3500000000000000E-002     0.0000000000000000     
  -2.3449999999999999E-002     0.0000000000000000     
  -2.3400000000000001E-002     0.0000000000000000     
  -2.3349999999999999E-002     0.0000000000000000     
  -2.3300000000000001E-002     0.0000000000000000     
  -2.3250000000000000E-002     0.0000000000000000     
  -2.3199999999999998E-002     0.0000000000000000     
  -2.3150000000000000E-002     0.0000000000000000     
  -2.3099999999999999E-002     0.0000000000000000     
  -2.3050000000000001E-002     0.0000000000000000     
  -2.3000000000000000E-002     0.0000000000000000     
  -2.2950000000000002E-002     0.0000000000000000     
  -2.2900000000000000E-002     0.0000000000000000     
  -2.2849999999999999E-002     0.0000000000000000     
  -2.2800000000000001E-002     0.0000000000000000     
  -2.2749999999999999E-002     0.0000000000000000     
  -2.2700000000000001E-002     0.0000000000000000     
  -2.2650000000000000E-002     0.0000000000000000     
  -2.2599999999999999E-002     0.0000000000000000     
  -2.2550000000000001E-002     0.0000000000000000     
  -2.2499999999999999E-002     0.0000000000000000     
  -2.2450000000000001E-002     0.0000000000000000     
  -2.2400000000000000E-002     0.0000000000000000     
  -2.2349999999999998E-002     0.0000000000000000     
  -2.2300000000000000E-002     0.0000000000000000     
  -2.2249999999999999E-002     0.0000000000000000     
  -2.2200000000000001E-002     0.0000000000000000     
  -2.2150000000000000E-002     0.0000000000000000     
  -2.2100000000000002E-002     0.0000000000000000     
  -2.2050000000000000E-002     0.0000000000000000     
  -2.1999999999999999E-002     0.0000000000000000     
  -2.1950000000000001E-002     0.0000000000000000     
  -2.1899999999999999E-002     0.0000000000000000     
  -2.1850000000000001E-002     0.0000000000000000     
  -2.1800000000000000E-002     0.0000000000000000     
  -2.1749999999999999E-002     0.0000000000000000     
  -2.1700000000000001E-002     0.0000000000000000     
  -2.1649999999999999E-002     0.0000000000000000     
  -2.1600000000000001E-002     0.0000000000000000     
  -2.1550000000000000E-002     0.0000000000000000     
  -2.1499999999999998E-002     0.0000000000000000     
  -2.1450000000000000E-002     0.0000000000000000     
  -2.1399999999999999E-002     0.0000000000000000     
  -2.1350000000000001E-002     0.0000000000000000     
  -2.1299999999999999E-002     0.0000000000000000     
  -2.1250000000000002E-002     0.0000000000000000     
  -2.1200000000000000E-002     0.0000000000000000     
  -2.1149999999999999E-002     0.0000000000000000     
  -2.1100000000000001E-002     0.0000000000000000     
  -2.1049999999999999E-002     0.0000000000000000     
  -2.1000000000000001E-002     0.0000000000000000     
  -2.0950000000000000E-002     0.0000000000000000     
  -2.0899999999999998E-002     0.0000000000000000     
  -2.0850000000000000E-002     0.0000000000000000     
  -2.0799999999999999E-002     0.0000000000000000     
  -2.0750000000000001E-002     0.0000000000000000     
  -2.0700000000000000E-002     0.0000000000000000     
  -2.0649999999999998E-002     0.0000000000000000     
  -2.0600000000000000E-002     0.0000000000000000     
  -2.0549999999999999E-002     0.0000000000000000     
  -2.0500000000000001E-002     0.0000000000000000     
  -2.0449999999999999E-002     0.0000000000000000     
  -2.0400000000000001E-002     0.0000000000000000     
  -2.0350000000000000E-002     0.0000000000000000     
  -2.0299999999999999E-002     0.0000000000000000     
  -2.0250000000000001E-002     0.0000000000000000     
  -2.0199999999999999E-002     0.0000000000000000     
  -2.0150000000000001E-002     0.0000000000000000     
  -2.0100000000000000E-002     0.0000000000000000     
  -2.0049999999999998E-002     0.0000000000000000     
  -2.0000000000000000E-002     0.0000000000000000     
  -1.9949999999999999E-002     0.0000000000000000     
  -1.9900000000000001E-002     0.0000000000000000     
  -1.9850000000000000E-002     0.0000000000000000     
  -1.9799999999999998E-002     0.0000000000000000     
  -1.9750000000000000E-002     0.0000000000000000     
  -1.9699999999999999E-002     0.0000000000000000     
  -1.9650000000000001E-002     0.0000000000000000     
  -1.9599999999999999E-002     0.0000000000000000     
  -1.9550000000000001E-002     0.0000000000000000     
  -1.9500000000000000E-002     0.0000000000000000     
  -1.9449999999999999E-002     0.0000000000000000     
  -1.9400000000000001E-002     0.0000000000000000     
  -1.9349999999999999E-002     0.0000000000000000     
  -1.9300000000000001E-002     0.0000000000000000     
  -1.9250000000000000E-002     0.0000000000000000     
  -1.9199999999999998E-002     0.0000000000000000     
  -1.9150000000000000E-002     0.0000000000000000     
  -1.9099999999999999E-002     0.0000000000000000     
  -1.9050000000000001E-002     0.0000000000000000     
  -1.9000000000000000E-002     0.0000000000000000     
  -1.8949999999999998E-002     0.0000000000000000     
  -1.8900000000000000E-002     0.0000000000000000     
  -1.8849999999999999E-002     0.0000000000000000     
  -1.8800000000000001E-002     0.0000000000000000     
  -1.8749999999999999E-002     0.0000000000000000     
  -1.8700000000000001E-002     0.0000000000000000     
  -1.8650000000000000E-002     0.0000000000000000     
  -1.8599999999999998E-002     0.0000000000000000     
  -1.8550000000000001E-002     0.0000000000000000     
  -1.8499999999999999E-002     0.0000000000000000     
  -1.8450000000000001E-002     0.0000000000000000     
  -1.8400000000000000E-002     0.0000000000000000     
  -1.8349999999999998E-002     0.0000000000000000     
  -1.8300000000000000E-002     0.0000000000000000     
  -1.8249999999999999E-002     0.0000000000000000     
  -1.8200000000000001E-002     0.0000000000000000     
  -1.8149999999999999E-002     0.0000000000000000     
  -1.8100000000000002E-002     0.0000000000000000     
  -1.8050000000000000E-002     0.0000000000000000     
  -1.7999999999999999E-002     0.0000000000000000     
  -1.7950000000000001E-002     0.0000000000000000     
  -1.7899999999999999E-002     0.0000000000000000     
  -1.7850000000000001E-002     0.0000000000000000     
  -1.7800000000000000E-002     0.0000000000000000     
  -1.7749999999999998E-002     0.0000000000000000     
  -1.7700000000000000E-002     0.0000000000000000     
  -1.7649999999999999E-002     0.0000000000000000     
  -1.7600000000000001E-002     0.0000000000000000     
  -1.7550000000000000E-002     0.0000000000000000     
  -1.7499999999999998E-002     4.3502307241405634E-040
  -1.7450000000000000E-002     9.6713266590497914E-040
  -1.7399999999999999E-002     9.6713266590497914E-040
  -1.7350000000000001E-002     9.6713266590497914E-040
  -1.7299999999999999E-002     5.4135775644207379E-040
  -1.7250000000000001E-002    -1.1714710370991594E-039
  -1.7200000000000000E-002    -3.1280031043301679E-039
  -1.7149999999999999E-002    -5.3379210643350216E-039
  -1.7100000000000001E-002    -6.1128644182236111E-039
  -1.7049999999999999E-002    -2.2079164656365484E-039
  -1.7000000000000001E-002     5.8068645455750460E-039
  -1.6950000000000000E-002     1.2594688163097782E-038
  -1.6899999999999998E-002     1.7243811140664984E-038
  -1.6850000000000000E-002     1.6640012089069173E-038
  -1.6799999999999999E-002     1.2133666723272756E-038
  -1.6750000000000001E-002     1.5641018587824797E-038
  -1.6700000000000000E-002     1.6978145383506203E-038
  -1.6649999999999998E-002     9.7782150821900862E-039
  -1.6600000000000000E-002    -1.8127234286876135E-038
  -1.6549999999999999E-002    -4.9766039165878325E-038
  -1.6500000000000001E-002    -7.2688995640137164E-038
  -1.6449999999999999E-002    -8.1534773520599852E-038
  -1.6400000000000001E-002    -7.1772292638738472E-038
  -1.6350000000000000E-002    -4.7704727567192278E-038
  -1.6299999999999999E-002    -6.4053610943319352E-038
  -1.6250000000000001E-002    -7.8991054318097467E-038
  -1.6199999999999999E-002    -6.3994725469523885E-039
  -1.6150000000000001E-002     1.4653213560115953E-037
  -1.6100000000000000E-002     3.1554594328784082E-037
  -1.6049999999999998E-002     4.0206483688463956E-037
  -1.6000000000000000E-002     3.5349045822542970E-037
  -1.5949999999999999E-002     1.9315763243024108E-037
  -1.5900000000000001E-002    -4.0628169246009672E-038
  -1.5850000000000000E-002    -2.9924910163654952E-037
  -1.5799999999999998E-002    -5.5262347061182725E-037
  -1.5750000000000000E-002    -7.7019048425673063E-037
  -1.5699999999999999E-002    -9.2301887212334384E-037
  -1.5650000000000001E-002    -9.0154206116888165E-037
  -1.5599999999999999E-002    -6.1197333359710196E-037
  -1.5550000000000001E-002    -4.7033227278530831E-038
  -1.5500000000000000E-002     6.8294223463887758E-037
  -1.5449999999999998E-002     1.3994415260466408E-036
  -1.5400000000000000E-002     1.9272656565128464E-036
  -1.5349999999999999E-002     2.1314473767064649E-036
  -1.5300000000000001E-002     1.9241388089400470E-036
  -1.5250000000000000E-002     1.2493324569909272E-036
  -1.5199999999999998E-002     1.0249085245116750E-037
  -1.5150000000000000E-002    -1.4093547238487955E-036
  -1.5099999999999999E-002    -3.0225475016241853E-036
  -1.5050000000000001E-002    -4.3465004934259942E-036
  -1.4999999999999999E-002    -4.9660957723126432E-036
  -1.4949999999999998E-002    -4.5744122104757511E-036
  -1.4900000000000000E-002    -3.0526708753916825E-036
  -1.4849999999999999E-002    -4.9137087258668546E-037
  -1.4800000000000001E-002     2.8160931689898047E-036
  -1.4749999999999999E-002     6.3727422842956325E-036
  -1.4700000000000001E-002     9.4824524559398212E-036
  -1.4650000000000000E-002     1.1318606748892870E-035
  -1.4599999999999998E-002     1.1090695113998383E-035
  -1.4550000000000000E-002     8.2838164821006340E-036
  -1.4499999999999999E-002     2.8744854637168548E-036
  -1.4450000000000001E-002    -4.5626091820724206E-036
  -1.4400000000000000E-002    -1.2881128643142587E-035
  -1.4349999999999998E-002    -2.0492794405175919E-035
  -1.4300000000000000E-002    -2.5572809729953587E-035
  -1.4249999999999999E-002    -2.6347861261906276E-035
  -1.4200000000000001E-002    -2.1484507532343970E-035
  -1.4149999999999999E-002    -1.0538454625591536E-035
  -1.4099999999999998E-002     5.6588042458210149E-036
  -1.4050000000000000E-002     2.4839530277475946E-035
  -1.3999999999999999E-002     4.3472402536860089E-035
  -1.3950000000000001E-002     5.7275170694237431E-035
  -1.3899999999999999E-002     6.1982240634618495E-035
  -1.3850000000000001E-002     5.4251949711472122E-035
  -1.3800000000000000E-002     3.2592738764621761E-035
  -1.3749999999999998E-002    -1.8342571693984120E-036
  -1.3700000000000000E-002    -4.4749613214888417E-035
  -1.3649999999999999E-002    -8.8862175913199931E-035
  -1.3600000000000001E-002    -1.2472196722216181E-034
  -1.3550000000000000E-002    -1.4231512528498023E-034
  -1.3499999999999998E-002    -1.3317857381823936E-034
  -1.3450000000000000E-002    -9.2644128753082815E-035
  -1.3399999999999999E-002    -2.1751551561372918E-035
  -1.3350000000000001E-002     7.1620109051561340E-035
  -1.3299999999999999E-002     1.7279702176108709E-034
  -1.3249999999999998E-002     2.6180875720995547E-034
  -1.3200000000000000E-002     3.1640533373600037E-034
  -1.3149999999999998E-002     3.1632928232639274E-034
  -1.3100000000000001E-002     2.4819525222662642E-034
  -1.3049999999999999E-002     1.1001888947783802E-034
  -1.3000000000000001E-002    -8.5682218047352889E-035
  -1.2950000000000000E-002    -3.1117696158686073E-034
  -1.2899999999999998E-002    -5.2583426011496423E-034
  -1.2850000000000000E-002    -6.8162564231591233E-034
  -1.2799999999999999E-002    -7.3140680976484555E-034