  -4.0000000000000001E-002     0.0000000000000000     
  -3.9949999999999999E-002     0.0000000000000000     
  -3.9899999999999998E-002     0.0000000000000000     
  -3.9850000000000003E-002     0.0000000000000000     
  -3.9800000000000002E-002     0.0000000000000000     
  -3.9750000000000001E-002     0.0000000000000000     
  -3.9699999999999999E-002     0.0000000000000000     
  -3.9649999999999998E-002     0.0000000000000000     
  -3.9600000000000003E-002     0.0000000000000000     
  -3.9550000000000002E-002     0.0000000000000000     
  -3.9500000000000000E-002     0.0000000000000000     
  -3.9449999999999999E-002     0.0000000000000000     
  -3.9399999999999998E-002     0.0000000000000000     
  -3.9350000000000003E-002     0.0000000000000000     
  -3.9300000000000002E-002     0.0000000000000000     
  -3.9250000000000000E-002     0.0000000000000000     
  -3.9199999999999999E-002     0.0000000000000000     
  -3.9150000000000004E-002     0.0000000000000000     
  -3.9100000000000003E-002     0.0000000000000000     
  -3.9050000000000001E-002     0.0000000000000000     
  -3.9000000000000000E-002     0.0000000000000000     
  -3.8949999999999999E-002     0.0000000000000000     
  -3.8900000000000004E-002     0.0000000000000000     
  -3.8850000000000003E-002     0.0000000000000000     
  -3.8800000000000001E-002     0.0000000000000000     
  -3.8750000000000000E-002     0.0000000000000000     
  -3.8699999999999998E-002     0.0000000000000000     
  -3.8650000000000004E-002     0.0000000000000000     
  -3.8600000000000002E-002     2.5400895680063309E-039
  -3.8550000000000001E-002     1.5330323610125980E-038
  -3.8500000000000000E-002     5.7441321574475509E-038
  -3.8449999999999998E-002     1.6675707862468826E-037
  -3.8400000000000004E-002     3.9666990411827620E-037
  -3.8350000000000002E-002     7.6007833789877874E-037
  -3.8300000000000001E-002     1.2030273119593716E-036
  -3.8249999999999999E-002     1.1458526832184833E-036
  -3.8199999999999998E-002    -1.0019070263021213E-036
  -3.8150000000000003E-002    -8.6880538706067459E-036
  -3.8100000000000002E-002    -2.7914433536941411E-035
  -3.8050000000000000E-002    -6.6703857048936801E-035
  -3.7999999999999999E-002    -1.3100937832432677E-034
  -3.7949999999999998E-002    -2.1328406392325084E-034
  -3.7900000000000003E-002    -2.6909154706675292E-034
  -3.7850000000000002E-002    -1.7895202376797141E-034
  -3.7800000000000000E-002     2.9933027355918828E-034
  -3.7749999999999999E-002     1.5634018839807326E-033
  -3.7699999999999997E-002     4.1250571717007297E-033
  -3.7650000000000003E-002     8.3873744925513561E-033
  -3.7600000000000001E-002     1.4088082692835717E-032
  -3.7550000000000000E-002     1.9262682108768667E-032
  -3.7499999999999999E-002     1.8723207172345885E-032
  -3.7449999999999997E-002     2.4438753650430530E-033
  -3.7400000000000003E-002    -4.5011967437022759E-032
  -3.7350000000000001E-002    -1.4184456838911448E-031
  -3.7300000000000000E-002    -2.9999543690876416E-031
  -3.7249999999999998E-002    -5.0656950015688342E-031
  -3.7200000000000004E-002    -6.9486880523677473E-031
  -3.7150000000000002E-002    -7.1053673943937157E-031
  -3.7100000000000001E-002    -2.8943178476667561E-031
  -3.7050000000000000E-002     9.2187810358823130E-031
  -3.6999999999999998E-002     3.2606602498676205E-030
  -3.6950000000000004E-002     6.8178839461435314E-030
  -3.6900000000000002E-002     1.1075302964651815E-029
  -3.6850000000000001E-002     1.4474736724075619E-029
  -3.6799999999999999E-002     1.4098386216995042E-029
  -3.6749999999999998E-002     5.7664864024429391E-030
  -3.6700000000000003E-002    -1.5063377325862743E-029
  -3.6650000000000002E-002    -5.1276572052449467E-029
  -3.6600000000000001E-002    -1.0094937529031654E-028
  -3.6549999999999999E-002    -1.5364668873142104E-028
  -3.6499999999999998E-002    -1.8755611640263508E-028
  -3.6450000000000003E-002    -1.6960462246520644E-028
  -3.6400000000000002E-002    -6.0980924910849749E-029
  -3.6350000000000000E-002     1.7022909587913855E-028
  -3.6299999999999999E-002     5.2966678985644633E-028
  -3.6249999999999998E-002     9.7433128040886077E-028
  -3.6200000000000003E-002     1.3948625825878362E-027
  -3.6150000000000002E-002     1.6130284327053364E-027
  -3.6100000000000000E-002     1.4049304614903160E-027
  -3.6049999999999999E-002     5.5580252091354343E-028
  -3.6000000000000004E-002    -1.0573559714368967E-027
  -3.5950000000000003E-002    -3.3719119406087112E-027
  -3.5900000000000001E-002    -6.0630313482076722E-027
  -3.5850000000000000E-002    -8.5184555265743578E-027
  -3.5799999999999998E-002    -9.8928535822006742E-027
  -3.5750000000000004E-002    -9.2514111574123671E-027
  -3.5700000000000003E-002    -5.7850949379663760E-027
  -3.5650000000000001E-002     9.4626644165094564E-028
  -3.5600000000000000E-002     1.0800137152999339E-026
  -3.5549999999999998E-002     2.2915190187628321E-026
  -3.5500000000000004E-002     3.5672456235873940E-026
  -3.5450000000000002E-002     4.6738163114807115E-026
  -3.5400000000000001E-002     5.3156706352928582E-026
  -3.5349999999999999E-002     5.1487518541982741E-026
  -3.5299999999999998E-002     3.8051110349682505E-026
  -3.5250000000000004E-002     9.4370712626933406E-027
  -3.5200000000000002E-002    -3.6533976345192750E-026
  -3.5150000000000001E-002    -9.9290302158988891E-026
  -3.5099999999999999E-002    -1.7359112237137845E-025
  -3.5049999999999998E-002    -2.4778047089872322E-025
  -3.5000000000000003E-002    -3.0319017605643533E-025
  -3.4950000000000002E-002    -3.1582706090911012E-025
  -3.4900000000000000E-002    -2.6112815258394639E-025
  -3.4849999999999999E-002    -1.2156949761027225E-025
  -3.4799999999999998E-002     1.0457402159596594E-025
  -3.4750000000000003E-002     3.9648529287247912E-025
  -3.4700000000000002E-002     7.0988609360101756E-025
  -3.4650000000000000E-002     9.8475958979583247E-025
  -3.4599999999999999E-002     1.1615563095945321E-024
  -3.4549999999999997E-002     1.2012775639644859E-024
  -3.4500000000000003E-002     1.1005356350927549E-024
  -3.4450000000000001E-002     8.9094982947223904E-025
  -3.4400000000000000E-002     6.1542210323647616E-025
  -3.4349999999999999E-002     2.8297500056169363E-025
  -3.4299999999999997E-002    -1.8261985539650209E-025
  -3.4250000000000003E-002    -9.7195965081181057E-025
  -3.4200000000000001E-002    -2.3625549174605203E-024
  -3.4150000000000000E-002    -4.6091651598176491E-024
  -3.4099999999999998E-002    -7.7531868123754628E-024
  -3.4049999999999997E-002    -1.1394160863181874E-023
  -3.4000000000000002E-002    -1.4511139164928293E-023
  -3.3950000000000001E-002    -1.5449715437756251E-023
  -3.3900000000000000E-002    -1.2180961461675702E-023
  -3.3849999999999998E-002    -2.8772059303718677E-024
  -3.3799999999999997E-002     1.3260924988722372E-023
  -3.3750000000000002E-002     3.5126702385536242E-023
  -3.3700000000000001E-002     5.9092784748947354E-023
  -3.3649999999999999E-002     7.9010811212899751E-023
  -3.3599999999999998E-002     8.7090407052576172E-023
  -3.3550000000000003E-002     7.5702306284532236E-023
  -3.3500000000000002E-002     3.9831256765520549E-023
  -3.3450000000000001E-002    -2.0424578347586064E-023
  -3.3399999999999999E-002    -9.8127419190654615E-023
  -3.3349999999999998E-002    -1.7935358357311580E-022
  -3.3300000000000003E-002    -2.4512600317880066E-022
  -3.3250000000000002E-002    -2.7535346563676164E-022
  -3.3200000000000000E-002    -2.5400811277841758E-022
  -3.3149999999999999E-002    -1.7417949821591442E-022
  -3.3099999999999997E-002    -4.1399568693945783E-023
  -3.3050000000000003E-002     1.2608603913215962E-022
  -3.3000000000000002E-002     3.0060504733400971E-022
  -3.2950000000000000E-002     4.5123828113972363E-022
  -3.2899999999999999E-002     5.5108783072302744E-022
  -3.2850000000000004E-002     5.8317637043382133E-022
  -3.2800000000000003E-002     5.4272936844129728E-022
  -3.2750000000000001E-002     4.3478024237049648E-022
  -3.2700000000000000E-002     2.6794682236724016E-022
  -3.2649999999999998E-002     4.7232018452328668E-023
  -3.2600000000000004E-002    -2.3004171003592097E-022
  -3.2550000000000003E-002    -5.7131793534087166E-022
  -3.2500000000000001E-002    -9.7721498121239724E-022
  -3.2450000000000000E-002    -1.4232922358947619E-021
  -3.2399999999999998E-002    -1.8414636040984489E-021
  -3.2350000000000004E-002    -2.1105178768709043E-021
  -3.2300000000000002E-002    -2.0655832424091970E-021
  -3.2250000000000001E-002    -1.5328247197848278E-021
  -3.2199999999999999E-002    -3.8816231651766651E-022
  -3.2149999999999998E-002     1.3711324498856559E-021
  -3.2100000000000004E-002     3.5626099389215760E-021
  -3.2050000000000002E-002     5.7886612516562758E-021
  -3.2000000000000001E-002     7.4645906137938739E-021
  -3.1949999999999999E-002     7.9180367258596982E-021
  -3.1899999999999998E-002     6.5541169101800460E-021
  -3.1850000000000003E-002     3.0576089113777552E-021
  -3.1800000000000002E-002    -2.4173370741983822E-021
  -3.1750000000000000E-002    -9.1306760200963864E-021
  -3.1699999999999999E-002    -1.5769516190992734E-020
  -3.1649999999999998E-002    -2.0624422113822702E-020
  -3.1600000000000003E-002    -2.1924419862301277E-020
  -3.1550000000000002E-002    -1.8279891674383616E-020
  -3.1500000000000000E-002    -9.1406186491671832E-021
  -3.1449999999999999E-002     4.8486997577032182E-021
  -3.1399999999999997E-002     2.1710132600689955E-020
  -3.1350000000000003E-002     3.8291571135843339E-020
  -3.1300000000000001E-002     5.0741296881574089E-020
  -3.1250000000000000E-002     5.5239697445443283E-020
  -3.1199999999999999E-002     4.8857947461136749E-020
  -3.1150000000000001E-002     3.0365524342763354E-020
  -3.1100000000000003E-002     7.9995836458656890E-022
  -3.1050000000000001E-002    -3.6351674565413950E-020
  -3.1000000000000000E-002    -7.5436394194238601E-020
  -3.0949999999999998E-002    -1.0936716130347120E-019
  -3.0900000000000000E-002    -1.3069553412395302E-019
  -3.0850000000000002E-002    -1.3285401235930740E-019
  -3.0800000000000001E-002    -1.1137272786517810E-019
  -3.0750000000000000E-002    -6.4892024322849484E-020
  -3.0699999999999998E-002     4.1618385617467971E-021
  -3.0650000000000000E-002     8.9318111576055463E-020
  -3.0600000000000002E-002     1.8026088136827721E-019
  -3.0550000000000001E-002     2.6351296713108145E-019
  -3.0499999999999999E-002     3.2363424009755096E-019
  -3.0449999999999998E-002     3.4496724088004176E-019
  -3.0400000000000000E-002     3.1392722686943491E-019
  -3.0350000000000002E-002     2.2173773414557734E-019
  -3.0300000000000001E-002     6.7345118410104581E-020
  -3.0249999999999999E-002    -1.3996707485244669E-019
  -3.0200000000000001E-002    -3.7893925636166811E-019
  -3.0150000000000000E-002    -6.1644412333016816E-019
  -3.0100000000000002E-002    -8.1002132236602586E-019
  -3.0050000000000000E-002    -9.1318496272644326E-019
  -2.9999999999999999E-002    -8.8328448333987129E-019
  -2.9950000000000001E-002    -6.9098173303468079E-019
  -2.9899999999999999E-002    -3.2970839004659445E-019
  -2.9850000000000002E-002     1.7702131466098468E-019
  -2.9800000000000000E-002     7.7264059406437321E-019
  -2.9749999999999999E-002     1.3706368403468648E-018
  -2.9700000000000001E-002     1.8644725508556839E-018
  -2.9650000000000003E-002     2.1436612688807067E-018
  -2.9600000000000001E-002     2.1138450610342652E-018
  -2.9550000000000000E-002     1.7174636271218384E-018
  -2.9499999999999998E-002     9.5095780081027900E-019
  -2.9450000000000000E-002    -1.2537092354254992E-019
  -2.9400000000000003E-002    -1.3876745419471626E-018
  -2.9350000000000001E-002    -2.6601077541483578E-018
  -2.9300000000000000E-002    -3.7366171061782442E-018
  -2.9249999999999998E-002    -4.4100301865507171E-018
  -2.9200000000000000E-002    -4.5041753009737246E-018
  -2.9150000000000002E-002    -3.9043028542844749E-018
  -2.9100000000000001E-002    -2.5815134811184879E-018
  -2.9049999999999999E-002    -6.0801813731575343E-019
  -2.8999999999999998E-002     1.8386003936238689E-018
  -2.8950000000000000E-002     4.4827796393913404E-018
  -2.8900000000000002E-002     6.9700332579973719E-018
  -2.8850000000000001E-002     8.8975545302680762E-018
  -2.8799999999999999E-002     9.8562890139810678E-018
  -2.8749999999999998E-002     9.4840400167338432E-018
  -2.8700000000000000E-002     7.5278096447479628E-018
  -2.8650000000000002E-002     3.9107521170005226E-018
  -2.8600000000000000E-002    -1.2048690138762514E-018
  -2.8549999999999999E-002    -7.3717192827102400E-018
  -2.8500000000000001E-002    -1.3844699832486778E-017
  -2.8450000000000000E-002    -1.9618002421209116E-017
  -2.8400000000000002E-002    -2.3524196906169713E-017
  -2.8350000000000000E-002    -2.4397955472052946E-017
  -2.8299999999999999E-002    -2.1292791736700936E-017
  -2.8250000000000001E-002    -1.3722446368368142E-017
  -2.8200000000000003E-002    -1.8831818076622040E-018
  -2.8150000000000001E-002     1.3196270000314118E-017
  -2.8100000000000000E-002     2.9629928602366069E-017
  -2.8049999999999999E-002     4.4814370885113063E-017
  -2.8000000000000001E-002     5.5746737957894105E-017
  -2.7950000000000003E-002     5.9498749663769150E-017
  -2.7900000000000001E-002     5.3785890920055803E-017
  -2.7850000000000000E-002     3.7537096539794803E-017
  -2.7799999999999998E-002     1.1350640636684716E-017
  -2.7750000000000000E-002    -2.2276824898801269E-017
  -2.7700000000000002E-002    -5.9035565365397836E-017
  -2.7650000000000001E-002    -9.3241560179021385E-017
  -2.7600000000000000E-002    -1.1860437832576293E-016
  -2.7549999999999998E-002    -1.2923170614627477E-016
  -2.7500000000000000E-002    -1.2072007294237604E-016
  -2.7450000000000002E-002    -9.1145510571188180E-017
  -2.7400000000000001E-002    -4.1764510252224458E-017
  -2.7349999999999999E-002     2.2732891800340871E-017
  -2.7299999999999998E-002     9.4512339372365110E-017
  -2.7250000000000000E-002     1.6343559457569435E-016
  -2.7200000000000002E-002     2.1836920840179421E-016
  -2.7150000000000001E-002     2.4879512106623496E-016
  -2.7099999999999999E-002     2.4649829152819739E-016
  -2.7049999999999998E-002     2.0708098387540327E-016
  -2.7000000000000000E-002     1.3106648807846561E-016
  -2.6950000000000002E-002     2.4402077195507957E-017
  -2.6900000000000000E-002    -1.0175514410570408E-016
  -2.6849999999999999E-002    -2.3199619783741160E-016
  -2.6800000000000001E-002    -3.4829670474920649E-016
  -2.6749999999999999E-002    -4.3217943063117210E-016
  -2.6700000000000002E-002    -4.6718053056974230E-016
  -2.6650000000000000E-002    -4.4134297883859129E-016
  -2.6599999999999999E-002    -3.4943330764135839E-016
  -2.6550000000000001E-002    -1.9457339352415534E-016
  -2.6500000000000003E-002     1.0994913042867757E-017
  -2.6450000000000001E-002     2.4623355583385665E-016
  -2.6400000000000000E-002     4.8284718977406477E-016
  -2.6349999999999998E-002     6.8803300822109796E-016
  -2.6300000000000000E-002     8.2827897844101907E-016
  -2.6250000000000002E-002     8.7387471953268913E-016
  -2.6200000000000001E-002     8.0363848812814278E-016
  -2.6150000000000000E-002     6.0923874161782419E-016
  -2.6099999999999998E-002     2.9843065614192771E-016
  -2.6050000000000000E-002    -1.0343645703205028E-016
  -2.6000000000000002E-002    -5.5414769082957339E-016
  -2.5950000000000001E-002    -9.9785577675382197E-016
  -2.5899999999999999E-002    -1.3707656418919598E-015
  -2.5849999999999998E-002    -1.6088584242378422E-015
  -2.5800000000000000E-002    -1.6568839277659841E-015
  -2.5750000000000002E-002    -1.4775541468244978E-015
  -2.5700000000000001E-002    -1.0596812557755485E-015
  -2.5649999999999999E-002    -4.2395906671323082E-016
  -2.5599999999999998E-002     3.7478504145092704E-016
  -2.5550000000000000E-002     1.2497436726211424E-015
  -2.5500000000000002E-002     2.0891053411603945E-015
  -2.5450000000000000E-002     2.7676909372353861E-015
  -2.5399999999999999E-002     3.1624272980517101E-015
  -2.5349999999999998E-002     3.1701739975031330E-015
  -2.5300000000000000E-002     2.7258166134783390E-015
  -2.5250000000000002E-002     1.8181176101895649E-015
  -2.5200000000000000E-002     5.0063019855145059E-016
  -2.5149999999999999E-002    -1.1048299905634970E-015
  -2.5100000000000001E-002    -2.8140897412192492E-015
  -2.5049999999999999E-002    -4.3968154923095855E-015
  -2.5000000000000001E-002    -5.6025251233772011E-015
  -2.4950000000000000E-002    -6.1943191733974663E-015
  -2.4899999999999999E-002    -5.9865711633167187E-015
  -2.4850000000000001E-002    -4.8814341761187580E-015
  -2.4800000000000003E-002    -2.8982043584260841E-015
  -2.4750000000000001E-002    -1.8959331502402573E-016
  -2.4700000000000000E-002     2.9599778860270803E-015
  -2.4649999999999998E-002     6.1568282553348839E-015
  -2.4600000000000000E-002     8.9410379632531995E-015
  -2.4550000000000002E-002     1.0846373237778532E-014
  -2.4500000000000001E-002     1.1470080730692813E-014
  -2.4450000000000000E-002     1.0542780002453486E-014
  -2.4399999999999998E-002     7.9872876926957713E-015
  -2.4350000000000000E-002     3.9555218442065989E-015
  -2.4299999999999999E-002    -1.1651504499715445E-015
  -2.4250000000000001E-002    -6.7807761471371492E-015
  -2.4199999999999999E-002    -1.2154344060019246E-014
  -2.4150000000000001E-002    -1.6497801218384868E-014
  -2.4100000000000000E-002    -1.9081251449406953E-014
  -2.4049999999999998E-002    -1.9344300309440855E-014
  -2.4000000000000000E-002    -1.6993032006827240E-014
  -2.3949999999999999E-002    -1.2067074486756085E-014
  -2.3900000000000001E-002    -4.9647480854324074E-015
  -2.3850000000000000E-002     3.5801559935093386E-015
  -2.3800000000000002E-002     1.2569680583256248E-014
  -2.3750000000000000E-002     2.0854024374758302E-014
  -2.3699999999999999E-002     2.7271788267961591E-014
  -2.3650000000000001E-002     3.0800957707770905E-014
  -2.3599999999999999E-002     3.0701629300859800E-014
  -2.3550000000000001E-002     2.6632116892254601E-014
  -2.3500000000000000E-002     1.8723113701713973E-014
  -2.3449999999999999E-002     7.5992270408298824E-015
  -2.3400000000000001E-002    -5.6570494381034009E-015
  -2.3349999999999999E-002    -1.9597727448513846E-014
  -2.3300000000000001E-002    -3.2551041536869152E-014
  -2.3250000000000000E-002    -4.2800288392674578E-014
  -2.3199999999999998E-002    -4.8783401268332294E-014
  -2.3150000000000000E-002    -4.9293775521568267E-014
  -2.3099999999999999E-002    -4.3661104467829091E-014
  -2.3050000000000001E-002    -3.1890580424066581E-014
  -2.3000000000000000E-002    -1.4740435768125652E-014
  -2.2950000000000002E-002     6.2789210235554037E-015
  -2.2900000000000000E-002     2.8994851519742007E-014
  -2.2849999999999999E-002     5.0754126600204403E-014
  -2.2800000000000001E-002     6.8688347586854664E-014
  -2.2749999999999999E-002     8.0043722330312297E-014
  -2.2700000000000001E-002     8.2544085634093196E-014
  -2.2650000000000000E-002     7.4746119486095870E-014
  -2.2599999999999999E-002     5.6339373571999782E-014
  -2.2550000000000001E-002     2.8342809805053709E-014
  -2.2499999999999999E-002    -6.8446012047602303E-015
  -2.2450000000000001E-002    -4.5568792165422281E-014
  -2.2400000000000000E-002    -8.3231016990233601E-014
  -2.2349999999999998E-002    -1.1476913747430697E-013
  -2.2300000000000000E-002    -1.3526906868196294E-013
  -2.2249999999999999E-002    -1.4064083485727797E-013
  -2.2200000000000001E-002    -1.2827481229933496E-013
  -2.2150000000000000E-002    -9.7584241450969729E-014
  -2.2100000000000002E-002    -5.0343005120386130E-014
  -2.2050000000000000E-002     9.2559382030652064E-015
  -2.1999999999999999E-002     7.4866050411280930E-014
  -2.1950000000000001E-002     1.3858125116632630E-013
  -2.1899999999999999E-002     1.9181610481482781E-013
  -2.1850000000000001E-002     2.2638397003806881E-013
  -2.1800000000000000E-002     2.3564536411364001E-013
  -2.1749999999999999E-002     2.1557325566829141E-013
  -2.1700000000000001E-002     1.6557642789242901E-013
  -2.1649999999999999E-002     8.8939052158933603E-014
  -2.1600000000000001E-002    -7.2260089874412242E-015
  -2.1550000000000000E-002    -1.1255245484674904E-013
  -2.1499999999999998E-002    -2.1449493700706967E-013
  -2.1450000000000000E-002    -2.9979807743286656E-013
  -2.1399999999999999E-002    -3.5618897429212175E-013
  -2.1350000000000001E-002    -3.7407509895060624E-013
  -2.1299999999999999E-002    -3.4801112211426420E-013
  -2.1250000000000002E-002    -2.7771362935208549E-013
  -2.1200000000000000E-002    -1.6845215913314574E-013
  -2.1149999999999999E-002    -3.0723707963125797E-014
  -2.1100000000000001E-002     1.2078498479044739E-013
  -2.1049999999999999E-002     2.6884247116399465E-013
  -2.1000000000000001E-002     3.9572919050399475E-013
  -2.0950000000000000E-002     4.8544491380285067E-013
  -2.0899999999999998E-002     5.2577734693096070E-013
  -2.0850000000000000E-002     5.0995492384533814E-013
  -2.0799999999999999E-002     4.3765761477173322E-013
  -2.0750000000000001E-002     3.1524397008184767E-013
  -2.0700000000000000E-002     1.5515435840387602E-013
  -2.0649999999999998E-002    -2.5442339344950905E-014
  -2.0600000000000000E-002    -2.0659772587230138E-013
  -2.0549999999999999E-002    -3.6789671684768573E-013
  -2.0500000000000001E-002    -4.9086342017091287E-013
  -2.0449999999999999E-002    -5.6118471401770288E-013
  -2.0400000000000001E-002    -5.7050242104127780E-013
  -2.0350000000000000E-002    -5.1757498597688608E-013
  -2.0299999999999999E-002    -4.0867608924097789E-013
  -2.0250000000000001E-002    -2.5716941816064449E-013
  -2.0199999999999999E-002    -8.2273393972244157E-014
  -2.0150000000000001E-002     9.2901258064759802E-014
  -2.0100000000000000E-002     2.4389105203906674E-013
  -2.0049999999999998E-002     3.4778862022934859E-013
  -2.0000000000000000E-002     3.8625684496236002E-013
  -1.9949999999999999E-002     3.4834060727512624E-013
  -1.9900000000000001E-002     2.3274288383198079E-013
  -1.9850000000000000E-002     4.9227392637912306E-014
  -1.9799999999999998E-002    -1.8115227366427637E-013
  -1.9750000000000000E-002    -4.2721825667117132E-013
  -1.9699999999999999E-002    -6.5032175088197709E-013
  -1.9650000000000001E-002    -8.0840298123675438E-013
  -1.9599999999999999E-002    -8.6117924682985589E-013
  -1.9550000000000001E-002    -7.7597552009262857E-013
  -1.9500000000000000E-002    -5.3353706464784038E-013
  -1.9449999999999999E-002    -1.3305071913963028E-013
  -1.9400000000000001E-002     4.0442359160264747E-013
  -1.9349999999999999E-002     1.0348122761048619E-012
  -1.9300000000000001E-002     1.6926800467474063E-012
  -1.9250000000000000E-002     2.2958595302375004E-012
  -1.9199999999999998E-002     2.7528692264246148E-012
  -1.9150000000000000E-002     2.9725369100967633E-012
  -1.9099999999999999E-002     2.8748843051991606E-012
  -1.9050000000000001E-002     2.4020725287643870E-012
  -1.9000000000000000E-002     1.5280888601934424E-012
  -1.8949999999999998E-002     2.6591930382697063E-013
  -1.8900000000000000E-002    -1.3288262265494348E-012
  -1.8849999999999999E-002    -3.1584618350789018E-012
  -1.8800000000000001E-002    -5.0880850284133874E-012
  -1.8749999999999999E-002    -6.9543431886823475E-012
  -1.8700000000000001E-002    -8.5771886228521990E-012
  -1.8650000000000000E-002    -9.7733063763347452E-012
  -1.8599999999999998E-002    -1.0369661112055610E-011
  -1.8550000000000001E-002    -1.0215586906113761E-011
  -1.8499999999999999E-002    -9.1920182614974224E-012
  -1.8450000000000001E-002    -7.2168420691539404E-012
  -1.8400000000000000E-002    -4.2458653043844798E-012
  -1.8349999999999998E-002    -2.6948091588356765E-013
  -1.8300000000000000E-002     4.6943253931224403E-012
  -1.8249999999999999E-002     1.0609480326796926E-011
  -1.8200000000000001E-002     1.7432415085940837E-011
  -1.8149999999999999E-002     2.5122176806159803E-011
  -1.8100000000000002E-002     3.3648632440124755E-011
  -1.8050000000000000E-002     4.2997624973347645E-011
  -1.7999999999999999E-002     5.3172387675726069E-011
  -1.7950000000000001E-002     6.4191169446331210E-011
  -1.7899999999999999E-002     7.6081350552027694E-011
  -1.7850000000000001E-002     8.8871067244764011E-011
  -1.7800000000000000E-002     1.0257945790661377E-010
  -1.7749999999999998E-002     1.1720691611895168E-010
  -1.7700000000000000E-002     1.3272673660597997E-010
  -1.7649999999999999E-002     1.4907918173851890E-010
  -1.7600000000000001E-002     1.6616889461648903E-010
  -1.7550000000000000E-002     1.8386607008133380E-010
  -1.7499999999999998E-002     2.0201141104262121E-010
  -1.7450000000000000E-002     2.2042451298076434E-010
  -1.7399999999999999E-002     2.3891515178294975E-010
  -1.7350000000000001E-002     2.5729654812537533E-010
  -1.7299999999999999E-002     2.7539957407701266E-010
  -1.7250000000000001E-002     2.9308681053855189E-010
  -1.7200000000000000E-002     3.1026546214126537E-010
  -1.7149999999999999E-002     3.2689733531358277E-010
  -1.7100000000000001E-002     3.4300582715111493E-010
  -1.7049999999999999E-002     3.5867753278432133E-010
  -1.7000000000000001E-002     3.7405897299100616E-010
  -1.6950000000000000E-002     3.8934734153829149E-010
  -1.6899999999999998E-002     4.0477561325511278E-010
  -1.6850000000000000E-002     4.2059297496681735E-010
  -1.6799999999999999E-002     4.3704182841194677E-010
  -1.6750000000000001E-002     4.5433389499601258E-010
  -1.6700000000000000E-002     4.7262736726199228E-010
  -1.6649999999999998E-002     4.9200892886934939E-010
  -1.6600000000000000E-002     5.1248230679767906E-010
  -1.6549999999999999E-002     5.3396613879699994E-010
  -1.6500000000000001E-002     5.5630192123891173E-010
  -1.6449999999999999E-002     5.7927183762780827E-010
  -1.6400000000000001E-002     6.0262492408245472E-010
  -1.6350000000000000E-002     6.2610892344698400E-010
  -1.6299999999999999E-002     6.4950403327724393E-010
  -1.6250000000000001E-002     6.7265363353893611E-010
  -1.6199999999999999E-002     6.9548893828114441E-010
  -1.6150000000000001E-002     7.1804279143979322E-010
  -1.6100000000000000E-002     7.4045175017031587E-010
  -1.6049999999999998E-002     7.6294477904148156E-010
  -1.6000000000000000E-002     7.8582049343235410E-010
  -1.5949999999999999E-002     8.0941535159261286E-010
  -1.5900000000000001E-002     8.3406691791163833E-010
  -1.5850000000000000E-002     8.6007676877953520E-010
  -1.5799999999999998E-002     8.8767829369144735E-010
  -1.5750000000000000E-002     9.1701242878873936E-010
  -1.5699999999999999E-002     9.4811491699865367E-010
  -1.5650000000000001E-002     9.8091650580397944E-010
  -1.5599999999999999E-002     1.0152549440352015E-009
  -1.5550000000000001E-002     1.0508985714340431E-009
  -1.5500000000000000E-002     1.0875759541469931E-009
  -1.5449999999999998E-002     1.1250106199561101E-009
  -1.5400000000000000E-002     1.1629542327311883E-009
  -1.5349999999999999E-002     1.2012163340815810E-009
  -1.5300000000000001E-002     1.2396858130715913E-009
  -1.5250000000000000E-002     1.2783432788941051E-009
  -1.5199999999999998E-002     1.3172632069868839E-009
  -1.5150000000000000E-002     1.3566061488506904E-009
  -1.5099999999999999E-002     1.3966023255637102E-009
  -1.5050000000000001E-002     1.4375284348410832E-009
  -1.4999999999999999E-002     1.4796820854944332E-009
  -1.4949999999999998E-002     1.5233541776596911E-009
  -1.4900000000000000E-002     1.5688048237436244E-009
  -1.4849999999999999E-002     1.6162426566294860E-009
  -1.4800000000000001E-002     1.6658110609656166E-009
  -1.4749999999999999E-002     1.7175820446091440E-009
  -1.4700000000000001E-002     1.7715561881405164E-009
  -1.4650000000000000E-002     1.8276700502987542E-009
  -1.4599999999999998E-002     1.8858095097915081E-009
  -1.4550000000000000E-002     1.9458263185280720E-009
  -1.4499999999999999E-002     2.0075568619599628E-009
  -1.4450000000000001E-002     2.0708420153643919E-009
  -1.4400000000000000E-002     2.1355450756366431E-009
  -1.4349999999999998E-002     2.2015676699622943E-009
  -1.4300000000000000E-002     2.2688625692855981E-009
  -1.4249999999999999E-002     2.3374399445371554E-009
  -1.4200000000000001E-002     2.4073696674872624E-009
  -1.4149999999999999E-002     2.4787767985865777E-009
  -1.4099999999999998E-002     2.5518324349865683E-009
  -1.4050000000000000E-002     2.6267400445631139E-009
  -1.3999999999999999E-002     2.7037170041305476E-009
  -1.3950000000000001E-002     2.7829770853438354E-009
  -1.3899999999999999E-002     2.8647110281699013E-009
  -1.3850000000000001E-002     2.9490720844139480E-009
  -1.3800000000000000E-002     3.0361657656507491E-009
  -1.3749999999999998E-002     3.1260480627997487E-009
  -1.3700000000000000E-002     3.2187295785130509E-009
  -1.3649999999999999E-002     3.3141887946682400E-009
  -1.3600000000000001E-002     3.4123906760108423E-009
  -1.3550000000000000E-002     3.5133082142912429E-009
  -1.3499999999999998E-002     3.6169440276407685E-009
  -1.3450000000000000E-002     3.7233476677642517E-009
  -1.3399999999999999E-002     3.8326242763002378E-009
  -1.3350000000000001E-002     3.9449343308307127E-009
  -1.3299999999999999E-002     4.0604825865999467E-009
  -1.3249999999999998E-002     4.1794975904300997E-009
  -1.3200000000000000E-002     4.3022042905283734E-009
  -1.3149999999999998E-002     4.4287984147023477E-009
  -1.3100000000000001E-002     4.5594181923505139E-009
  -1.3049999999999999E-002     4.6941277865510060E-009
  -1.3000000000000001E-002     4.8329093317560827E-009
  -1.2950000000000000E-002     4.9756686692965508E-009
  -1.2899999999999998E-002     5.1222541156860222E-009
  -1.2850000000000000E-002     5.2724849362906352E-009
  -1.2799999999999999E-002     5.4261844186385474E-009