  -4.0000000000000001E-002     0.0000000000000000     
  -3.9949999999999999E-002     0.0000000000000000     
  -3.9899999999999998E-002     0.0000000000000000     
  -3.9850000000000003E-002     0.0000000000000000     
  -3.9800000000000002E-002     0.0000000000000000     
  -3.9750000000000001E-002     0.0000000000000000     
  -3.9699999999999999E-002     0.0000000000000000     
  -3.9649999999999998E-002     0.0000000000000000     
  -3.9600000000000003E-002     0.0000000000000000     
  -3.9550000000000002E-002     0.0000000000000000     
  -3.9500000000000000E-002     0.0000000000000000     
  -3.9449999999999999E-002     0.0000000000000000     
  -3.9399999999999998E-002     0.0000000000000000     
  -3.9350000000000003E-002     0.0000000000000000     
  -3.9300000000000002E-002     0.0000000000000000     
  -3.9250000000000000E-002     0.0000000000000000     
  -3.9199999999999999E-002     0.0000000000000000     
  -3.9150000000000004E-002     0.0000000000000000     
  -3.9100000000000003E-002     0.0000000000000000     
  -3.9050000000000001E-002     0.0000000000000000     
  -3.9000000000000000E-002     0.0000000000000000     
  -3.8949999999999999E-002     0.0000000000000000     
  -3.8900000000000004E-002     0.0000000000000000     
  -3.8850000000000003E-002     0.0000000000000000     
  -3.8800000000000001E-002     0.0000000000000000     
  -3.8750000000000000E-002     0.0000000000000000     
  -3.8699999999999998E-002     0.0000000000000000     
  -3.8650000000000004E-002     0.0000000000000000     
  -3.8600000000000002E-002     0.0000000000000000     
  -3.8550000000000001E-002     0.0000000000000000     
  -3.8500000000000000E-002     0.0000000000000000     
  -3.8449999999999998E-002     0.0000000000000000     
  -3.8400000000000004E-002     0.0000000000000000     
  -3.8350000000000002E-002     0.0000000000000000     
  -3.8300000000000001E-002     0.0000000000000000     
  -3.8249999999999999E-002     0.0000000000000000     
  -3.8199999999999998E-002     0.0000000000000000     
  -3.8150000000000003E-002     0.0000000000000000     
  -3.8100000000000002E-002     0.0000000000000000     
  -3.8050000000000000E-002     0.0000000000000000     
  -3.7999999999999999E-002     0.0000000000000000     
  -3.7949999999999998E-002     0.0000000000000000     
  -3.7900000000000003E-002     0.0000000000000000     
  -3.7850000000000002E-002     0.0000000000000000     
  -3.7800000000000000E-002     0.0000000000000000     
  -3.7749999999999999E-002     0.0000000000000000     
  -3.7699999999999997E-002     0.0000000000000000     
  -3.7650000000000003E-002     0.0000000000000000     
  -3.7600000000000001E-002     0.0000000000000000     
  -3.7550000000000000E-002     0.0000000000000000     
  -3.7499999999999999E-002     0.0000000000000000     
  -3.7449999999999997E-002     0.0000000000000000     
  -3.7400000000000003E-002     0.0000000000000000     
  -3.7350000000000001E-002     0.0000000000000000     
  -3.7300000000000000E-002     0.0000000000000000     
  -3.7249999999999998E-002     0.0000000000000000     
  -3.7200000000000004E-002     0.0000000000000000     
  -3.7150000000000002E-002     0.0000000000000000     
  -3.7100000000000001E-002     0.0000000000000000     
  -3.7050000000000000E-002     0.0000000000000000     
  -3.6999999999999998E-002     0.0000000000000000     
  -3.6950000000000004E-002     0.0000000000000000     
  -3.6900000000000002E-002     0.0000000000000000     
  -3.6850000000000001E-002     0.0000000000000000     
  -3.6799999999999999E-002     0.0000000000000000     
  -3.6749999999999998E-002     0.0000000000000000     
  -3.6700000000000003E-002     0.0000000000000000     
  -3.6650000000000002E-002     0.0000000000000000     
  -3.6600000000000001E-002     0.0000000000000000     
  -3.6549999999999999E-002     0.0000000000000000     
  -3.6499999999999998E-002     0.0000000000000000     
  -3.6450000000000003E-002     0.0000000000000000     
  -3.6400000000000002E-002     0.0000000000000000     
  -3.6350000000000000E-002     0.0000000000000000     
  -3.6299999999999999E-002     0.0000000000000000     
  -3.6249999999999998E-002     0.0000000000000000     
  -3.6200000000000003E-002     0.0000000000000000     
  -3.6150000000000002E-002     0.0000000000000000     
  -3.6100000000000000E-002     0.0000000000000000     
  -3.6049999999999999E-002     0.0000000000000000     
  -3.6000000000000004E-002     0.0000000000000000     
  -3.5950000000000003E-002     0.0000000000000000     
  -3.5900000000000001E-002     0.0000000000000000     
  -3.5850000000000000E-002     0.0000000000000000     
  -3.5799999999999998E-002     0.0000000000000000     
  -3.5750000000000004E-002     0.0000000000000000     
  -3.5700000000000003E-002     0.0000000000000000     
  -3.5650000000000001E-002     0.0000000000000000     
  -3.5600000000000000E-002     0.0000000000000000     
  -3.5549999999999998E-002     0.0000000000000000     
  -3.5500000000000004E-002     0.0000000000000000     
  -3.5450000000000002E-002     0.0000000000000000     
  -3.5400000000000001E-002     0.0000000000000000     
  -3.5349999999999999E-002     0.0000000000000000     
  -3.5299999999999998E-002     0.0000000000000000     
  -3.5250000000000004E-002     0.0000000000000000     
  -3.5200000000000002E-002     0.0000000000000000     
  -3.5150000000000001E-002     0.0000000000000000     
  -3.5099999999999999E-002     0.0000000000000000     
  -3.5049999999999998E-002     0.0000000000000000     
  -3.5000000000000003E-002     0.0000000000000000     
  -3.4950000000000002E-002     0.0000000000000000     
  -3.4900000000000000E-002     0.0000000000000000     
  -3.4849999999999999E-002     0.0000000000000000     
  -3.4799999999999998E-002     0.0000000000000000     
  -3.4750000000000003E-002     0.0000000000000000     
  -3.4700000000000002E-002     0.0000000000000000     
  -3.4650000000000000E-002     0.0000000000000000     
  -3.4599999999999999E-002     0.0000000000000000     
  -3.4549999999999997E-002     0.0000000000000000     
  -3.4500000000000003E-002     0.0000000000000000     
  -3.4450000000000001E-002     0.0000000000000000     
  -3.4400000000000000E-002     0.0000000000000000     
  -3.4349999999999999E-002     0.0000000000000000     
  -3.4299999999999997E-002     0.0000000000000000     
  -3.4250000000000003E-002     0.0000000000000000     
  -3.4200000000000001E-002     0.0000000000000000     
  -3.4150000000000000E-002     0.0000000000000000     
  -3.4099999999999998E-002     0.0000000000000000     
  -3.4049999999999997E-002     0.0000000000000000     
  -3.4000000000000002E-002     0.0000000000000000     
  -3.3950000000000001E-002     0.0000000000000000     
  -3.3900000000000000E-002     0.0000000000000000     
  -3.3849999999999998E-002     0.0000000000000000     
  -3.3799999999999997E-002     0.0000000000000000     
  -3.3750000000000002E-002     0.0000000000000000     
  -3.3700000000000001E-002     0.0000000000000000     
  -3.3649999999999999E-002     0.0000000000000000     
  -3.3599999999999998E-002     0.0000000000000000     
  -3.3550000000000003E-002     0.0000000000000000     
  -3.3500000000000002E-002     0.0000000000000000     
  -3.3450000000000001E-002     0.0000000000000000     
  -3.3399999999999999E-002     0.0000000000000000     
  -3.3349999999999998E-002     0.0000000000000000     
  -3.3300000000000003E-002     0.0000000000000000     
  -3.3250000000000002E-002     0.0000000000000000     
  -3.3200000000000000E-002     0.0000000000000000     
  -3.3149999999999999E-002     0.0000000000000000     
  -3.3099999999999997E-002     0.0000000000000000     
  -3.3050000000000003E-002     0.0000000000000000     
  -3.3000000000000002E-002     0.0000000000000000     
  -3.2950000000000000E-002     0.0000000000000000     
  -3.2899999999999999E-002     0.0000000000000000     
  -3.2850000000000004E-002     0.0000000000000000     
  -3.2800000000000003E-002     0.0000000000000000     
  -3.2750000000000001E-002     0.0000000000000000     
  -3.2700000000000000E-002     0.0000000000000000     
  -3.2649999999999998E-002     0.0000000000000000     
  -3.2600000000000004E-002     0.0000000000000000     
  -3.2550000000000003E-002     0.0000000000000000     
  -3.2500000000000001E-002     0.0000000000000000     
  -3.2450000000000000E-002     0.0000000000000000     
  -3.2399999999999998E-002     0.0000000000000000     
  -3.2350000000000004E-002     0.0000000000000000     
  -3.2300000000000002E-002     0.0000000000000000     
  -3.2250000000000001E-002     0.0000000000000000     
  -3.2199999999999999E-002     0.0000000000000000     
  -3.2149999999999998E-002     0.0000000000000000     
  -3.2100000000000004E-002     0.0000000000000000     
  -3.2050000000000002E-002     0.0000000000000000     
  -3.2000000000000001E-002     0.0000000000000000     
  -3.1949999999999999E-002     0.0000000000000000     
  -3.1899999999999998E-002     0.0000000000000000     
  -3.1850000000000003E-002     0.0000000000000000     
  -3.1800000000000002E-002     0.0000000000000000     
  -3.1750000000000000E-002     0.0000000000000000     
  -3.1699999999999999E-002     0.0000000000000000     
  -3.1649999999999998E-002     0.0000000000000000     
  -3.1600000000000003E-002     0.0000000000000000     
  -3.1550000000000002E-002     0.0000000000000000     
  -3.1500000000000000E-002     0.0000000000000000     
  -3.1449999999999999E-002     0.0000000000000000     
  -3.1399999999999997E-002     0.0000000000000000     
  -3.1350000000000003E-002     0.0000000000000000     
  -3.1300000000000001E-002     0.0000000000000000     
  -3.1250000000000000E-002     0.0000000000000000     
  -3.1199999999999999E-002     0.0000000000000000     
  -3.1150000000000001E-002     0.0000000000000000     
  -3.1100000000000003E-002     0.0000000000000000     
  -3.1050000000000001E-002     0.0000000000000000     
  -3.1000000000000000E-002     0.0000000000000000     
  -3.0949999999999998E-002     0.0000000000000000     
  -3.0900000000000000E-002     0.0000000000000000     
  -3.0850000000000002E-002     0.0000000000000000     
  -3.0800000000000001E-002     0.0000000000000000     
  -3.0750000000000000E-002     0.0000000000000000     
  -3.0699999999999998E-002     0.0000000000000000     
  -3.0650000000000000E-002     0.0000000000000000     
  -3.0600000000000002E-002     0.0000000000000000     
  -3.0550000000000001E-002     0.0000000000000000     
  -3.0499999999999999E-002     0.0000000000000000     
  -3.0449999999999998E-002     0.0000000000000000     
  -3.0400000000000000E-002     0.0000000000000000     
  -3.0350000000000002E-002     0.0000000000000000     
  -3.0300000000000001E-002     0.0000000000000000     
  -3.0249999999999999E-002     0.0000000000000000     
  -3.0200000000000001E-002     0.0000000000000000     
  -3.0150000000000000E-002     0.0000000000000000     
  -3.0100000000000002E-002     0.0000000000000000     
  -3.0050000000000000E-002     0.0000000000000000     
  -2.9999999999999999E-002     0.0000000000000000     
  -2.9950000000000001E-002     0.0000000000000000     
  -2.9899999999999999E-002     0.0000000000000000     
  -2.9850000000000002E-002     0.0000000000000000     
  -2.9800000000000000E-002     0.0000000000000000     
  -2.9749999999999999E-002     0.0000000000000000     
  -2.9700000000000001E-002     0.0000000000000000     
  -2.9650000000000003E-002     0.0000000000000000     
  -2.9600000000000001E-002     0.0000000000000000     
  -2.9550000000000000E-002     0.0000000000000000     
  -2.9499999999999998E-002     0.0000000000000000     
  -2.9450000000000000E-002     0.0000000000000000     
  -2.9400000000000003E-002     0.0000000000000000     
  -2.9350000000000001E-002     0.0000000000000000     
  -2.9300000000000000E-002     0.0000000000000000     
  -2.9249999999999998E-002     0.0000000000000000     
  -2.9200000000000000E-002     0.0000000000000000     
  -2.9150000000000002E-002     0.0000000000000000     
  -2.9100000000000001E-002     0.0000000000000000     
  -2.9049999999999999E-002     0.0000000000000000     
  -2.8999999999999998E-002     0.0000000000000000     
  -2.8950000000000000E-002     0.0000000000000000     
  -2.8900000000000002E-002     0.0000000000000000     
  -2.8850000000000001E-002     0.0000000000000000     
  -2.8799999999999999E-002     0.0000000000000000     
  -2.8749999999999998E-002     0.0000000000000000     
  -2.8700000000000000E-002     0.0000000000000000     
  -2.8650000000000002E-002     0.0000000000000000     
  -2.8600000000000000E-002     0.0000000000000000     
  -2.8549999999999999E-002     0.0000000000000000     
  -2.8500000000000001E-002     0.0000000000000000     
  -2.8450000000000000E-002     0.0000000000000000     
  -2.8400000000000002E-002     0.0000000000000000     
  -2.8350000000000000E-002     0.0000000000000000     
  -2.8299999999999999E-002     0.0000000000000000     
  -2.8250000000000001E-002     0.0000000000000000     
  -2.8200000000000003E-002     0.0000000000000000     
  -2.8150000000000001E-002     0.0000000000000000     
  -2.8100000000000000E-002     0.0000000000000000     
  -2.8049999999999999E-002     0.0000000000000000     
  -2.8000000000000001E-002     0.0000000000000000     
  -2.7950000000000003E-002     0.0000000000000000     
  -2.7900000000000001E-002     0.0000000000000000     
  -2.7850000000000000E-002     0.0000000000000000     
  -2.7799999999999998E-002     0.0000000000000000     
  -2.7750000000000000E-002     0.0000000000000000     
  -2.7700000000000002E-002     0.0000000000000000     
  -2.7650000000000001E-002     0.0000000000000000     
  -2.7600000000000000E-002     0.0000000000000000     
  -2.7549999999999998E-002     0.0000000000000000     
  -2.7500000000000000E-002     0.0000000000000000     
  -2.7450000000000002E-002     0.0000000000000000     
  -2.7400000000000001E-002     0.0000000000000000     
  -2.7349999999999999E-002     0.0000000000000000     
  -2.7299999999999998E-002     0.0000000000000000     
  -2.7250000000000000E-002     0.0000000000000000     
  -2.7200000000000002E-002     0.0000000000000000     
  -2.7150000000000001E-002     0.0000000000000000     
  -2.7099999999999999E-002     0.0000000000000000     
  -2.7049999999999998E-002     0.0000000000000000     
  -2.7000000000000000E-002     0.0000000000000000     
  -2.6950000000000002E-002     0.0000000000000000     
  -2.6900000000000000E-002     0.0000000000000000     
  -2.6849999999999999E-002     0.0000000000000000     
  -2.6800000000000001E-002     0.0000000000000000     
  -2.6749999999999999E-002     0.0000000000000000     
  -2.6700000000000002E-002     0.0000000000000000     
  -2.6650000000000000E-002     0.0000000000000000     
  -2.6599999999999999E-002     0.0000000000000000     
  -2.6550000000000001E-002     0.0000000000000000     
  -2.6500000000000003E-002     0.0000000000000000     
  -2.6450000000000001E-002     0.0000000000000000     
  -2.6400000000000000E-002     0.0000000000000000     
  -2.6349999999999998E-002     0.0000000000000000     
  -2.6300000000000000E-002     0.0000000000000000     
  -2.6250000000000002E-002     0.0000000000000000     
  -2.6200000000000001E-002     0.0000000000000000     
  -2.6150000000000000E-002     0.0000000000000000     
  -2.6099999999999998E-002     0.0000000000000000     
  -2.6050000000000000E-002     0.0000000000000000     
  -2.6000000000000002E-002     0.0000000000000000     
  -2.5950000000000001E-002     0.0000000000000000     
  -2.5899999999999999E-002     0.0000000000000000     
  -2.5849999999999998E-002     0.0000000000000000     
  -2.5800000000000000E-002     0.0000000000000000     
  -2.5750000000000002E-002     0.0000000000000000     
  -2.5700000000000001E-002     0.0000000000000000     
  -2.5649999999999999E-002     1.1310674110018052E-039
  -2.5599999999999998E-002     2.2007693490103197E-039
  -2.5550000000000000E-002     1.2128608354660042E-039
  -2.5500000000000002E-002    -2.0166233460463502E-039
  -2.5450000000000000E-002    -5.5117029312769823E-039
  -2.5399999999999999E-002    -7.4876763243379361E-039
  -2.5349999999999998E-002    -5.5372206694301233E-039
  -2.5300000000000000E-002     0.0000000000000000     
  -2.5250000000000002E-002     1.9076591874554331E-038
  -2.5200000000000000E-002     4.1118425789045220E-038
  -2.5149999999999999E-002     5.5636545052186976E-038
  -2.5100000000000001E-002     5.1434131920146350E-038
  -2.5049999999999999E-002     3.3851301674612299E-038
  -2.5000000000000001E-002    -2.6524731300744386E-039
  -2.4950000000000000E-002    -4.0681096807563123E-038
  -2.4899999999999999E-002    -8.2007123525717569E-038
  -2.4850000000000001E-002    -1.1969821398576680E-037
  -2.4800000000000003E-002    -1.2514500477826919E-037
  -2.4750000000000001E-002    -9.3609388623807446E-038
  -2.4700000000000000E-002    -2.1806254841319809E-038
  -2.4649999999999998E-002     5.6368328912823733E-038
  -2.4600000000000000E-002     1.4740877219022101E-037
  -2.4550000000000002E-002     1.8726002254086489E-037
  -2.4500000000000001E-002     1.7926340372140498E-037
  -2.4450000000000000E-002     1.0850241520826270E-037
  -2.4399999999999998E-002     1.0237883538804141E-038
  -2.4350000000000000E-002    -8.7717033136512707E-038
  -2.4299999999999999E-002    -1.2652679044350109E-037
  -2.4250000000000001E-002    -1.1546012765212784E-037
  -2.4199999999999999E-002    -8.5328265970627483E-038
  -2.4150000000000001E-002    -8.2485838903139990E-038
  -2.4100000000000000E-002    -1.5375486032917519E-037
  -2.4049999999999998E-002    -2.9405735116181020E-037
  -2.4000000000000000E-002    -4.5053367534630343E-037
  -2.3949999999999999E-002    -5.4697310382975070E-037
  -2.3900000000000001E-002    -4.7535162034769673E-037
  -2.3850000000000000E-002    -1.6832446509935360E-037
  -2.3800000000000002E-002     3.7579179672268040E-037
  -2.3750000000000000E-002     1.0957416873807858E-036
  -2.3699999999999999E-002     1.8645753059747271E-036
  -2.3650000000000001E-002     2.4921280836212908E-036
  -2.3599999999999999E-002     2.7327597788641408E-036
  -2.3550000000000001E-002     2.3168265541472933E-036
  -2.3500000000000000E-002     1.0238386583128307E-036
  -2.3449999999999999E-002    -1.2023055096937296E-036
  -2.3400000000000001E-002    -4.1461141929510625E-036
  -2.3349999999999999E-002    -7.2462665042159904E-036
  -2.3300000000000001E-002    -9.6225119877212230E-036
  -2.3250000000000000E-002    -1.0224228363666701E-035
  -2.3199999999999998E-002    -8.1036710649345204E-036
  -2.3150000000000000E-002    -2.7701738411249691E-036
  -2.3099999999999999E-002     5.4653290903407168E-036
  -2.3050000000000001E-002     1.5274237507513869E-035
  -2.3000000000000000E-002     2.4354051299397741E-035
  -2.2950000000000002E-002     2.9796641015681557E-035
  -2.2900000000000000E-002     2.8779076764024279E-035
  -2.2849999999999999E-002     1.9455294684147539E-035
  -2.2800000000000001E-002     1.8280507625894964E-036
  -2.2749999999999999E-002    -2.1676895788591022E-035
  -2.2700000000000001E-002    -4.6212499696012112E-035
  -2.2650000000000000E-002    -6.5262787461284531E-035
  -2.2599999999999999E-002    -7.2126702464319067E-035
  -2.2550000000000001E-002    -6.1862298655561654E-035
  -2.2499999999999999E-002    -3.3185552124350298E-035
  -2.2450000000000001E-002     1.0297105184061069E-035
  -2.2400000000000000E-002     6.0083218369317806E-035
  -2.2349999999999998E-002     1.0427766960285461E-034
  -2.2300000000000000E-002     1.3045194345581129E-034
  -2.2249999999999999E-002     1.2922431896586571E-034
  -2.2200000000000001E-002     9.7535200791683905E-035
  -2.2150000000000000E-002     4.0474431779582304E-035
  -2.2100000000000002E-002    -2.9244225734459013E-035
  -2.2050000000000000E-002    -9.4436587858944591E-035
  -2.1999999999999999E-002    -1.3862700331930832E-034
  -2.1950000000000001E-002    -1.5177223708953569E-034
  -2.1899999999999999E-002    -1.3449716705062256E-034
  -2.1850000000000001E-002    -9.8877748527121092E-035
  -2.1800000000000000E-002    -6.4642475810078235E-035
  -2.1749999999999999E-002    -5.1167842574319530E-035
  -2.1700000000000001E-002    -6.7436984482606693E-035
  -2.1649999999999999E-002    -1.0361195544664467E-034
  -2.1600000000000001E-002    -1.2837096773495894E-034
  -2.1550000000000000E-002    -9.5194640802229865E-035
  -2.1499999999999998E-002     4.1746342684033554E-035
  -2.1450000000000000E-002     3.0505828634013793E-034
  -2.1399999999999999E-002     6.7156983047436442E-034
  -2.1350000000000001E-002     1.0587467549222469E-033
  -2.1299999999999999E-002     1.3288477929782951E-033
  -2.1250000000000002E-002     1.3160573740411659E-033
  -2.1200000000000000E-002     8.7521407656445297E-034
  -2.1149999999999999E-002    -5.7520685029284191E-035
  -2.1100000000000001E-002    -1.4092029897645319E-033
  -2.1049999999999999E-002    -2.9408472969810735E-033
  -2.1000000000000001E-002    -4.2631088156759498E-033
  -2.0950000000000000E-002    -4.9063095898111217E-033
  -2.0899999999999998E-002    -4.4389494832561482E-033
  -2.0850000000000000E-002    -2.6112063352557663E-033
  -2.0799999999999999E-002     5.1482614285150508E-034
  -2.0750000000000001E-002     4.4925588667359756E-033
  -2.0700000000000000E-002     8.5136539695978671E-033
  -2.0649999999999998E-002     1.1543149018144859E-032
  -2.0600000000000000E-002     1.2552892094905229E-032
  -2.0549999999999999E-002     1.0805450003295001E-032
  -2.0500000000000001E-002     6.1145701271408791E-033
  -2.0449999999999999E-002    -9.9964277279792694E-034
  -2.0400000000000001E-002    -9.3260435636219742E-033
  -2.0350000000000000E-002    -1.7172489290876521E-032
  -2.0299999999999999E-002    -2.2738197566166383E-032
  -2.0250000000000001E-002    -2.4559538282491600E-032
  -2.0199999999999999E-002    -2.1903245500336386E-032
  -2.0150000000000001E-002    -1.4980072699193750E-032
  -2.0100000000000000E-002    -4.8943280296209128E-033
  -2.0049999999999998E-002     6.6752242490407151E-033
  -2.0000000000000000E-002     1.7971393995834938E-032
  -1.9949999999999999E-002     2.7659344820033623E-032
  -1.9900000000000001E-002     3.5128734009831620E-032
  -1.9850000000000000E-002     4.0435922072745822E-032
  -1.9799999999999998E-002     4.3843056461604188E-032
  -1.9750000000000000E-002     4.5079526698395911E-032
  -1.9699999999999999E-002     4.2619241361240340E-032
  -1.9650000000000001E-002     3.3368070186462189E-032
  -1.9599999999999999E-002     1.3129459004969049E-032
  -1.9550000000000001E-002    -2.1970294887247208E-032
  -1.9500000000000000E-002    -7.3243529745021437E-032
  -1.9449999999999999E-002    -1.3693102306826922E-031
  -1.9400000000000001E-002    -2.0230331376348955E-031
  -1.9349999999999999E-002    -2.5139869568935839E-031
  -1.9300000000000001E-002    -2.6125249245261775E-031
  -1.9250000000000000E-002    -2.0893664240040175E-031
  -1.9199999999999998E-002    -7.8892293464891065E-032
  -1.9150000000000000E-002     1.2892036481002426E-031
  -1.9099999999999999E-002     3.9233588025346609E-031
  -1.9050000000000001E-002     6.6438904569779363E-031
  -1.9000000000000000E-002     8.7707831350788227E-031
  -1.8949999999999998E-002     9.5257828525424877E-031
  -1.8900000000000000E-002     8.2114071741036180E-031
  -1.8849999999999999E-002     4.4273221024755584E-031
  -1.8800000000000001E-002    -1.7248316152597941E-031
  -1.8749999999999999E-002    -9.5079939703693581E-031
  -1.8700000000000001E-002    -1.7544314607454224E-030
  -1.8650000000000000E-002    -2.3974896128592097E-030
  -1.8599999999999998E-002    -2.6787029576492447E-030
  -1.8550000000000001E-002    -2.4267688976363834E-030
  -1.8499999999999999E-002    -1.5499376099899360E-030
  -1.8450000000000001E-002    -7.8437445463329087E-032
  -1.8400000000000000E-002     1.8123422597793005E-030
  -1.8349999999999998E-002     3.8077472122519622E-030
  -1.8300000000000000E-002     5.4935113574553438E-030
  -1.8249999999999999E-002     6.4266314779905827E-030
  -1.8200000000000001E-002     6.2270828830920382E-030
  -1.8149999999999999E-002     4.6734233150101101E-030
  -1.8100000000000002E-002     1.7818066208630044E-030
  -1.8050000000000000E-002    -2.1513808366825591E-030
  -1.7999999999999999E-002    -6.5577376865962494E-030
  -1.7950000000000001E-002    -1.0661388710995397E-029
  -1.7899999999999999E-002    -1.3594306032785548E-029
  -1.7850000000000001E-002    -1.4546258850859909E-029
  -1.7800000000000000E-002    -1.2925323255731763E-029
  -1.7749999999999998E-002    -8.5014027770030647E-030
  -1.7700000000000000E-002    -1.5067147589863301E-030
  -1.7649999999999999E-002     7.3268435927873453E-030
  -1.7600000000000001E-002     1.6804822360689333E-029
  -1.7550000000000000E-002     2.5383569303481489E-029
  -1.7499999999999998E-002     3.1352900701291429E-029
  -1.7450000000000000E-002     3.3074094567739997E-029
  -1.7399999999999999E-002     2.9253400980858210E-029
  -1.7350000000000001E-002     1.9225509853055102E-029
  -1.7299999999999999E-002     3.2142151051935988E-030
  -1.7250000000000001E-002    -1.7471152179183477E-029
  -1.7200000000000000E-002    -4.0353779473608825E-029
  -1.7149999999999999E-002    -6.1877081264051986E-029
  -1.7100000000000001E-002    -7.7711952196199071E-029
  -1.7049999999999999E-002    -8.3312624131135880E-029
  -1.7000000000000001E-002    -7.4708991148615548E-029
  -1.6950000000000000E-002    -4.9463752426403217E-029
  -1.6899999999999998E-002    -7.6523469909722426E-030
  -1.6850000000000000E-002     4.7341678410911276E-029
  -1.6799999999999999E-002     1.0846260696155335E-028
  -1.6750000000000001E-002     1.6528783211516677E-028
  -1.6700000000000000E-002     2.0516697038699086E-028
  -1.6649999999999998E-002     2.1521644949873734E-028
  -1.6600000000000000E-002     1.8499345400556893E-028
  -1.6549999999999999E-002     1.0945159643425806E-028
  -1.6500000000000001E-002    -8.4113795196185411E-030
  -1.6449999999999999E-002    -1.5591085305701878E-028
  -1.6400000000000001E-002    -3.1070269554516041E-028
  -1.6350000000000000E-002    -4.4294381588506896E-028
  -1.6299999999999999E-002    -5.1968049958815782E-028
  -1.6250000000000001E-002    -5.1106761730670520E-028
  -1.6199999999999999E-002    -3.9750265420861744E-028
  -1.6150000000000001E-002    -1.7631894898317223E-028
  -1.6100000000000000E-002     1.3354248146731806E-028
  -1.6049999999999998E-002     4.9038028123308460E-028
  -1.6000000000000000E-002     8.3315504597018125E-028
  -1.5949999999999999E-002     1.0897632717012393E-027
  -1.5900000000000001E-002     1.1894431249925892E-027
  -1.5850000000000000E-002     1.0775470259567844E-027
  -1.5799999999999998E-002     7.3006136100846349E-028
  -1.5750000000000000E-002     1.6480222917624997E-028
  -1.5699999999999999E-002    -5.5365914220029212E-028
  -1.5650000000000001E-002    -1.3175153140862105E-027
  -1.5599999999999999E-002    -1.9885114688914127E-027
  -1.5550000000000001E-002    -2.4190937337985186E-027
  -1.5500000000000000E-002    -2.4791841292054004E-027
  -1.5449999999999998E-002    -2.0843153001750448E-027
  -1.5400000000000000E-002    -1.2199472221227794E-027
  -1.5349999999999999E-002     4.3262308843922966E-029
  -1.5300000000000001E-002     1.5474961372537079E-027
  -1.5250000000000000E-002     3.0615401910982456E-027
  -1.5199999999999998E-002     4.3101554225782989E-027
  -1.5150000000000000E-002     5.0161521731268866E-027
  -1.5099999999999999E-002     4.9496618470551740E-027
  -1.5050000000000001E-002     3.9771286077030242E-027
  -1.4999999999999999E-002     2.1016080414775330E-027
  -1.4949999999999998E-002    -5.1375965655742816E-028
  -1.4900000000000000E-002    -3.5456424015878908E-027
  -1.4849999999999999E-002    -6.5375361963456522E-027
  -1.4800000000000001E-002    -8.9539864880786041E-027
  -1.4749999999999999E-002    -1.0257834509030392E-026
  -1.4700000000000001E-002    -1.0002045026922805E-026
  -1.4650000000000000E-002    -7.9238620651324217E-027
  -1.4599999999999998E-002    -4.0263262074515644E-027
  -1.4550000000000000E-002     1.3688739781488041E-027
  -1.4499999999999999E-002     7.6120412962929184E-027
  -1.4450000000000001E-002     1.3770600410245908E-026
  -1.4400000000000000E-002     1.8733124410836863E-026
  -1.4349999999999998E-002     2.1367612140372657E-026
  -1.4300000000000000E-002     2.0718662553926107E-026
  -1.4249999999999999E-002     1.6217373908469112E-026
  -1.4200000000000001E-002     7.8688583364214659E-027
  -1.4149999999999999E-002    -3.6224750577131199E-027
  -1.4099999999999998E-002    -1.6828035875028475E-026
  -1.4050000000000000E-002    -2.9699250575599136E-026
  -1.3999999999999999E-002    -3.9811607735144728E-026
  -1.3950000000000001E-002    -4.4734716671582216E-026
  -1.3899999999999999E-002    -4.2486518272278431E-026
  -1.3850000000000001E-002    -3.2002843411504230E-026
  -1.3800000000000000E-002    -1.3534623745252058E-026
  -1.3749999999999998E-002     1.1121128157712565E-026
  -1.3700000000000000E-002     3.8638349967037697E-026
  -1.3649999999999999E-002     6.4477337719699786E-026
  -1.3600000000000001E-002     8.3500204844716638E-026
  -1.3550000000000000E-002     9.0828221896504948E-026
  -1.3499999999999998E-002     8.2822473327837053E-026
  -1.3450000000000000E-002     5.8020382636198258E-026
  -1.3399999999999999E-002     1.7836170172302537E-026
  -1.3350000000000001E-002    -3.3157585398790676E-026
  -1.3299999999999999E-002    -8.7501870267027823E-026
  -1.3249999999999998E-002    -1.3572738894994242E-025
  -1.3200000000000000E-002    -1.6777613029898862E-025
  -1.3149999999999998E-002    -1.7479225520355437E-025
  -1.3100000000000001E-002    -1.5100322654928985E-025
  -1.3049999999999999E-002    -9.5346850706417526E-026
  -1.3000000000000001E-002    -1.2490141911605077E-026
  -1.2950000000000000E-002     8.7055303160819777E-026
  -1.2899999999999998E-002     1.8789350095524875E-025
  -1.2850000000000000E-002     2.7177518323535015E-025
  -1.2799999999999999E-002     3.2049318339217951E-025