  -4.0000000000000001E-002     0.0000000000000000     
  -3.9949999999999999E-002     0.0000000000000000     
  -3.9899999999999998E-002     0.0000000000000000     
  -3.9850000000000003E-002     0.0000000000000000     
  -3.9800000000000002E-002     0.0000000000000000     
  -3.9750000000000001E-002     0.0000000000000000     
  -3.9699999999999999E-002     0.0000000000000000     
  -3.9649999999999998E-002     0.0000000000000000     
  -3.9600000000000003E-002     0.0000000000000000     
  -3.9550000000000002E-002     0.0000000000000000     
  -3.9500000000000000E-002     0.0000000000000000     
  -3.9449999999999999E-002     0.0000000000000000     
  -3.9399999999999998E-002     0.0000000000000000     
  -3.9350000000000003E-002     0.0000000000000000     
  -3.9300000000000002E-002     0.0000000000000000     
  -3.9250000000000000E-002     0.0000000000000000     
  -3.9199999999999999E-002     0.0000000000000000     
  -3.9150000000000004E-002     0.0000000000000000     
  -3.9100000000000003E-002     0.0000000000000000     
  -3.9050000000000001E-002     0.0000000000000000     
  -3.9000000000000000E-002     0.0000000000000000     
  -3.8949999999999999E-002     0.0000000000000000     
  -3.8900000000000004E-002     0.0000000000000000     
  -3.8850000000000003E-002     0.0000000000000000     
  -3.8800000000000001E-002     0.0000000000000000     
  -3.8750000000000000E-002     0.0000000000000000     
  -3.8699999999999998E-002     0.0000000000000000     
  -3.8650000000000004E-002     0.0000000000000000     
  -3.8600000000000002E-002     0.0000000000000000     
  -3.8550000000000001E-002     0.0000000000000000     
  -3.8500000000000000E-002     0.0000000000000000     
  -3.8449999999999998E-002     0.0000000000000000     
  -3.8400000000000004E-002     0.0000000000000000     
  -3.8350000000000002E-002     0.0000000000000000     
  -3.8300000000000001E-002     0.0000000000000000     
  -3.8249999999999999E-002     0.0000000000000000     
  -3.8199999999999998E-002     0.0000000000000000     
  -3.8150000000000003E-002     0.0000000000000000     
  -3.8100000000000002E-002     0.0000000000000000     
  -3.8050000000000000E-002     0.0000000000000000     
  -3.7999999999999999E-002     0.0000000000000000     
  -3.7949999999999998E-002     0.0000000000000000     
  -3.7900000000000003E-002     0.0000000000000000     
  -3.7850000000000002E-002     0.0000000000000000     
  -3.7800000000000000E-002     0.0000000000000000     
  -3.7749999999999999E-002     0.0000000000000000     
  -3.7699999999999997E-002     0.0000000000000000     
  -3.7650000000000003E-002     0.0000000000000000     
  -3.7600000000000001E-002     0.0000000000000000     
  -3.7550000000000000E-002     0.0000000000000000     
  -3.7499999999999999E-002     0.0000000000000000     
  -3.7449999999999997E-002     0.0000000000000000     
  -3.7400000000000003E-002     0.0000000000000000     
  -3.7350000000000001E-002     0.0000000000000000     
  -3.7300000000000000E-002     0.0000000000000000     
  -3.7249999999999998E-002     0.0000000000000000     
  -3.7200000000000004E-002     0.0000000000000000     
  -3.7150000000000002E-002     0.0000000000000000     
  -3.7100000000000001E-002     0.0000000000000000     
  -3.7050000000000000E-002     0.0000000000000000     
  -3.6999999999999998E-002     0.0000000000000000     
  -3.6950000000000004E-002     0.0000000000000000     
  -3.6900000000000002E-002     0.0000000000000000     
  -3.6850000000000001E-002     0.0000000000000000     
  -3.6799999999999999E-002     0.0000000000000000     
  -3.6749999999999998E-002     0.0000000000000000     
  -3.6700000000000003E-002     0.0000000000000000     
  -3.6650000000000002E-002     0.0000000000000000     
  -3.6600000000000001E-002     0.0000000000000000     
  -3.6549999999999999E-002     0.0000000000000000     
  -3.6499999999999998E-002     0.0000000000000000     
  -3.6450000000000003E-002     0.0000000000000000     
  -3.6400000000000002E-002     0.0000000000000000     
  -3.6350000000000000E-002     0.0000000000000000     
  -3.6299999999999999E-002     0.0000000000000000     
  -3.6249999999999998E-002     0.0000000000000000     
  -3.6200000000000003E-002     0.0000000000000000     
  -3.6150000000000002E-002     0.0000000000000000     
  -3.6100000000000000E-002     0.0000000000000000     
  -3.6049999999999999E-002     0.0000000000000000     
  -3.6000000000000004E-002     0.0000000000000000     
  -3.5950000000000003E-002     0.0000000000000000     
  -3.5900000000000001E-002     0.0000000000000000     
  -3.5850000000000000E-002     0.0000000000000000     
  -3.5799999999999998E-002     0.0000000000000000     
  -3.5750000000000004E-002     0.0000000000000000     
  -3.5700000000000003E-002     0.0000000000000000     
  -3.5650000000000001E-002     0.0000000000000000     
  -3.5600000000000000E-002     0.0000000000000000     
  -3.5549999999999998E-002     0.0000000000000000     
  -3.5500000000000004E-002     0.0000000000000000     
  -3.5450000000000002E-002     0.0000000000000000     
  -3.5400000000000001E-002    -1.0970136931104105E-038
  -3.5349999999999999E-002    -2.9183760606470063E-038
  -3.5299999999999998E-002    -4.6920689302957717E-038
  -3.5250000000000004E-002    -4.8758589455305988E-038
  -3.5200000000000002E-002    -3.4515526976257916E-038
  -3.5150000000000001E-002     1.3989427730816829E-038
  -3.5099999999999999E-002     1.0573740006628235E-037
  -3.5049999999999998E-002     2.4726401101744494E-037
  -3.5000000000000003E-002     4.2213879923237339E-037
  -3.4950000000000002E-002     5.8283011578941625E-037
  -3.4900000000000000E-002     6.3947914727763825E-037
  -3.4849999999999999E-002     4.6597103006855921E-037
  -3.4799999999999998E-002    -7.6509569170844956E-038
  -3.4750000000000003E-002    -1.1002295166931102E-036
  -3.4700000000000002E-002    -2.5904404792374361E-036
  -3.4650000000000000E-002    -4.3255622036408839E-036
  -3.4599999999999999E-002    -5.7900726828834972E-036
  -3.4549999999999997E-002    -6.1667715540916278E-036
  -3.4500000000000003E-002    -4.4287445667160416E-036
  -3.4450000000000001E-002     4.0418643488270396E-037
  -3.4400000000000000E-002     8.8420788391143479E-036
  -3.4349999999999999E-002     2.0385690008215071E-035
  -3.4299999999999997E-002     3.3005352740541062E-035
  -3.4250000000000003E-002     4.2855221737021225E-035
  -3.4200000000000001E-002     4.4488107999476185E-035
  -3.4150000000000000E-002     3.1806563615357152E-035
  -3.4099999999999998E-002    -1.5208149634729186E-037
  -3.4049999999999997E-002    -5.2762569192028165E-035
  -3.4000000000000002E-002    -1.2120591704267221E-034
  -3.3950000000000001E-002    -1.9257415078525131E-034
  -3.3900000000000000E-002    -2.4575142062874483E-034
  -3.3849999999999998E-002    -2.5403850907489086E-034
  -3.3799999999999997E-002    -1.9096945658915940E-034
  -3.3750000000000002E-002    -3.8827217794510676E-035
  -3.3700000000000001E-002     2.0183316265258685E-034
  -3.3649999999999999E-002     5.0444436261154989E-034
  -3.3599999999999998E-002     8.1378471346334234E-034
  -3.3550000000000003E-002     1.0512291519930565E-033
  -3.3500000000000002E-002     1.1289098237286114E-033
  -3.3450000000000001E-002     9.7095375028940872E-034
  -3.3399999999999999E-002     5.3679941293845375E-034
  -3.3349999999999998E-002    -1.6069716435989243E-034
  -3.3300000000000003E-002    -1.0497721535522482E-033
  -3.3250000000000002E-002    -2.0113214424758748E-033
  -3.3200000000000000E-002    -2.9060632553055034E-033
  -3.3149999999999999E-002    -3.6084614503311402E-033
  -3.3099999999999997E-002    -4.0325370422012950E-033
  -3.3050000000000003E-002    -4.1333374966019327E-033
  -3.3000000000000002E-002    -3.8738013764546018E-033
  -3.2950000000000000E-002    -3.1604916757044577E-033
  -3.2899999999999999E-002    -1.7703664765526065E-033
  -3.2850000000000004E-002     6.9177729348054906E-034
  -3.2800000000000003E-002     4.7573147297437031E-033
  -3.2750000000000001E-002     1.0939710598307170E-032
  -3.2700000000000000E-002     1.9450836217169455E-032
  -3.2649999999999998E-002     2.9820788070527933E-032
  -3.2600000000000004E-002     4.0505267932688730E-032
  -3.2550000000000003E-002     4.8607731871708342E-032
  -3.2500000000000001E-002     4.9864452252992729E-032
  -3.2450000000000000E-002     3.9030686525241069E-032
  -3.2399999999999998E-002     1.0764510900199338E-032
  -3.2350000000000004E-002    -3.8963703126452206E-032
  -3.2300000000000002E-002    -1.1099834295407810E-031
  -3.2250000000000001E-002    -2.0083850449226458E-031
  -3.2199999999999999E-002    -2.9651839882115038E-031
  -3.2149999999999998E-002    -3.7705668766389673E-031
  -3.2100000000000004E-002    -4.1224868175885845E-031
  -3.2050000000000002E-002    -3.6480591373440151E-031
  -3.2000000000000001E-002    -1.9593301083703918E-031
  -3.1949999999999999E-002     1.2483392304047833E-031
  -3.1899999999999998E-002     6.0553367958969128E-031
  -3.1850000000000003E-002     1.2149654849264865E-030
  -3.1800000000000002E-002     1.8668119781052409E-030
  -3.1750000000000000E-002     2.4106150788304823E-030
  -3.1699999999999999E-002     2.6370810496630886E-030
  -3.1649999999999998E-002     2.3049434989557638E-030
  -3.1600000000000003E-002     1.1935460275411711E-030
  -3.1550000000000002E-002    -8.2107060285088140E-031
  -3.1500000000000000E-002    -3.6779240764574501E-030
  -3.1449999999999999E-002    -7.0520282227419983E-030
  -3.1399999999999997E-002    -1.0313578359809389E-029
  -3.1350000000000003E-002    -1.2556146611961124E-029
  -3.1300000000000001E-002    -1.2717179986771917E-029
  -3.1250000000000000E-002    -9.7961033613830878E-030
  -3.1199999999999999E-002    -3.1486665865495929E-030
  -3.1150000000000001E-002     7.1939418926971827E-030
  -3.1100000000000003E-002     2.0258206858369491E-029
  -3.1050000000000001E-002     3.4002662389280750E-029
  -3.1000000000000000E-002     4.5414147764547236E-029
  -3.0949999999999998E-002     5.0874924674163027E-029
  -3.0900000000000000E-002     4.6798323101839602E-029
  -3.0850000000000002E-002     3.0468405333012776E-029
  -3.0800000000000001E-002     9.5866931608501906E-031
  -3.0750000000000000E-002    -4.0041555975277415E-029
  -3.0699999999999998E-002    -8.7687843953613083E-029
  -3.0650000000000000E-002    -1.3391969684173599E-028
  -3.0600000000000002E-002    -1.6803775133757852E-028
  -3.0550000000000001E-002    -1.7802116458293291E-028
  -3.0499999999999999E-002    -1.5259749183067623E-028
  -3.0449999999999998E-002    -8.3950734537101837E-029
  -3.0400000000000000E-002     2.9220429454634270E-029
  -3.0350000000000002E-002     1.7879556855954733E-028
  -3.0300000000000001E-002     3.4520505850305533E-028
  -3.0249999999999999E-002     4.9718263002574500E-028
  -3.0200000000000001E-002     5.9421719698511550E-028
  -3.0150000000000000E-002     5.9237481626600441E-028
  -3.0100000000000002E-002     4.5356309158464826E-028
  -3.0050000000000000E-002     1.5736013959478593E-028
  -2.9999999999999999E-002    -2.8663668851265613E-028
  -2.9950000000000001E-002    -8.2908692692663603E-028
  -2.9899999999999999E-002    -1.3775868446828929E-027
  -2.9850000000000002E-002    -1.8032780997080990E-027
  -2.9800000000000000E-002    -1.9594845724669135E-027
  -2.9749999999999999E-002    -1.7118593148901858E-027
  -2.9700000000000001E-002    -9.7611948183495731E-028
  -2.9650000000000003E-002     2.4398472757426956E-028
  -2.9600000000000001E-002     1.8282276328831445E-027
  -2.9550000000000000E-002     3.5311354059230692E-027
  -2.9499999999999998E-002     5.0007362025549495E-027
  -2.9450000000000000E-002     5.8277309501268941E-027
  -2.9400000000000003E-002     5.6212208943394618E-027
  -2.9350000000000001E-002     4.1000486328633095E-027
  -2.9300000000000000E-002     1.1832687414079287E-027
  -2.9249999999999998E-002    -2.9391782072853576E-027
  -2.9200000000000000E-002    -7.7731284156478541E-027
  -2.9150000000000002E-002    -1.2536759924859941E-026
  -2.9100000000000001E-002    -1.6232615764563594E-026
  -2.9049999999999999E-002    -1.7773218005548609E-026
  -2.8999999999999998E-002    -1.6152201762788323E-026
  -2.8950000000000000E-002    -1.0648043284634969E-026
  -2.8900000000000002E-002    -1.0429430342096470E-027
  -2.8850000000000001E-002     1.2167140698647867E-026
  -2.8799999999999999E-002     2.7605611829407750E-026
  -2.8749999999999998E-002     4.2939632215891291E-026
  -2.8700000000000000E-002     5.4957201927480332E-026
  -2.8650000000000002E-002     5.9862808370058286E-026
  -2.8600000000000000E-002     5.3842643528676847E-026
  -2.8549999999999999E-002     3.3906015992055784E-026
  -2.8500000000000001E-002    -1.0670452804395342E-027
  -2.8450000000000000E-002    -4.9243311674308449E-026
  -2.8400000000000002E-002    -1.0499351181359014E-025
  -2.8350000000000000E-002    -1.5863374693738176E-025
  -2.8299999999999999E-002    -1.9709196618484850E-025
  -2.8250000000000001E-002    -2.0572920452689953E-025
  -2.8200000000000003E-002    -1.7131442600399473E-025
  -2.8150000000000001E-002    -8.5824010084119825E-026
  -2.8100000000000000E-002     4.9624687691065924E-026
  -2.8049999999999999E-002     2.2169573622442550E-025
  -2.8000000000000001E-002     4.0372744503880288E-025
  -2.7950000000000003E-002     5.5756656576701933E-025
  -2.7900000000000001E-002     6.3885470251682110E-025
  -2.7850000000000000E-002     6.0553735623794246E-025
  -2.7799999999999998E-002     4.2846655320957629E-025
  -2.7750000000000000E-002     1.0211308841733186E-025
  -2.7700000000000002E-002    -3.4716932996986815E-025
  -2.7650000000000001E-002    -8.5795608364670113E-025
  -2.7600000000000000E-002    -1.3377056325724213E-024
  -2.7549999999999998E-002    -1.6747295686434869E-024
  -2.7500000000000000E-002    -1.7574032777218545E-024
  -2.7450000000000002E-002    -1.4980479137722290E-024
  -2.7400000000000001E-002    -8.5737064462450655E-025
  -2.7349999999999999E-002     1.3555398716324072E-025
  -2.7299999999999998E-002     1.3727593884470934E-024
  -2.7250000000000000E-002     2.6702757178715963E-024
  -2.7200000000000002E-002     3.7864381066958779E-024
  -2.7150000000000001E-002     4.4550652208302100E-024
  -2.7099999999999999E-002     4.4302315729211438E-024
  -2.7049999999999998E-002     3.5368967285232686E-024
  -2.7000000000000000E-002     1.7198286961303623E-024
  -2.6950000000000002E-002    -9.1766903958208647E-025
  -2.6900000000000000E-002    -4.0936542196917409E-024
  -2.6849999999999999E-002    -7.3534072742389049E-024
  -2.6800000000000001E-002    -1.0106424067712324E-023
  -2.6749999999999999E-002    -1.1696451219981175E-023
  -2.6700000000000002E-002    -1.1502013838660170E-023
  -2.6650000000000000E-002    -9.0593062442166601E-024
  -2.6599999999999999E-002    -4.1928561258957025E-024
  -2.6550000000000001E-002     2.8670716093137592E-024
  -2.6500000000000003E-002     1.1406526024919506E-023
  -2.6450000000000001E-002     2.0217556731345959E-023
  -2.6400000000000000E-002     2.7680472329757236E-023
  -2.6349999999999998E-002     3.1953562265074463E-023
  -2.6300000000000000E-002     3.1267772392068855E-023
  -2.6250000000000002E-002     2.4300384635873224E-023
  -2.6200000000000001E-002     1.0575527491581506E-023
  -2.6150000000000000E-002    -9.1840901286066823E-024
  -2.6099999999999998E-002    -3.2843891440798772E-023
  -2.6050000000000000E-002    -5.6870591496492712E-023
  -2.6000000000000002E-002    -7.6637417047148282E-023
  -2.5950000000000001E-002    -8.7043364744894155E-023
  -2.5899999999999999E-002    -8.3407016942832818E-023
  -2.5849999999999998E-002    -6.2525463178063033E-023
  -2.5800000000000000E-002    -2.3724248391808144E-023
  -2.5750000000000002E-002     3.0320567574965836E-023
  -2.5700000000000001E-002     9.3215886491789436E-023
  -2.5649999999999999E-002     1.5513229564406555E-022
  -2.5599999999999998E-002     2.0383916235719154E-022
  -2.5550000000000000E-002     2.2647573451782423E-022
  -2.5500000000000002E-002     2.1188899439681675E-022
  -2.5450000000000000E-002     1.5321908575858738E-022
  -2.5399999999999999E-002     5.0291165607493840E-023
  -2.5349999999999998E-002    -8.8690334527524155E-023
  -2.5300000000000000E-002    -2.4663166635471908E-022
  -2.5250000000000002E-002    -3.9859712467024937E-022
  -2.5200000000000000E-002    -5.1458230308438108E-022
  -2.5149999999999999E-002    -5.6390094375253261E-022
  -2.5100000000000001E-002    -5.2075033481904720E-022
  -2.5049999999999999E-002    -3.7020493915601685E-022
  -2.5000000000000001E-002    -1.1363415452458807E-022
  -2.4950000000000000E-002     2.2759041714713494E-022
  -2.4899999999999999E-002     6.1119233956849042E-022
  -2.4850000000000001E-002     9.7673517653342293E-022
  -2.4800000000000003E-002     1.2523929652147547E-021
  -2.4750000000000001E-002     1.3654752026340518E-021
  -2.4700000000000000E-002     1.2556697981172160E-021
  -2.4649999999999998E-002     8.8920524283232591E-022
  -2.4600000000000000E-002     2.7151412626794045E-022
  -2.4550000000000002E-002    -5.4433829473081110E-022
  -2.4500000000000001E-002    -1.4560723032216531E-021
  -2.4450000000000000E-002    -2.3194113529894299E-021
  -2.4399999999999998E-002    -2.9648558447001995E-021
  -2.4350000000000000E-002    -3.2231281276016746E-021
  -2.4299999999999999E-002    -2.9565387603527672E-021
  -2.4250000000000001E-002    -2.0917446871911800E-021
  -2.4199999999999999E-002    -6.4806080323615093E-022
  -2.4150000000000001E-002     1.2450084410893087E-021
  -2.4100000000000000E-002     3.3467105302702203E-021
  -2.4049999999999998E-002     5.3243024269052583E-021
  -2.4000000000000000E-002     6.7934577811157845E-021
  -2.3949999999999999E-002     7.3768885888765434E-021
  -2.3900000000000001E-002     6.7742246488670392E-021
  -2.3850000000000000E-002     4.8327086938297589E-021
  -2.3800000000000002E-002     1.6060002954563870E-021
  -2.3750000000000000E-002    -2.6119434236275111E-021
  -2.3699999999999999E-002    -7.2889810996662382E-021
  -2.3650000000000001E-002    -1.1699647910497358E-020
  -2.3599999999999999E-002    -1.5013180833883045E-020
  -2.3550000000000001E-002    -1.6417638087975638E-020
  -2.3500000000000000E-002    -1.5265418974794278E-020
  -2.3449999999999999E-002    -1.1219092264556487E-020
  -2.3400000000000001E-002    -4.3724852548756257E-021
  -2.3349999999999999E-002     4.6783986522175819E-021
  -2.3300000000000001E-002     1.4836337224252903E-020
  -2.3250000000000000E-002     2.4589376348168830E-020
  -2.3199999999999998E-002     3.2184814726176371E-020
  -2.3150000000000000E-002     3.5878491335431727E-020
  -2.3099999999999999E-002     3.4232355156353000E-020
  -2.3050000000000001E-002     2.6420106858915531E-020
  -2.3000000000000000E-002     1.2491397725865807E-020
  -2.2950000000000002E-002    -6.4579343561488162E-021
  -2.2900000000000000E-002    -2.8257117411771187E-020
  -2.2849999999999999E-002    -4.9806933099461219E-020
  -2.2800000000000001E-002    -6.7412838153794377E-020
  -2.2749999999999999E-002    -7.7287226375304078E-020
  -2.2700000000000001E-002    -7.6171060434028428E-020
  -2.2650000000000000E-002    -6.1994381315373793E-020
  -2.2599999999999999E-002    -3.4471440655598840E-020
  -2.2550000000000001E-002     4.4846535049983974E-021
  -2.2499999999999999E-002     5.0636318673910221E-020
  -2.2450000000000001E-002     9.7666628841464875E-020
  -2.2400000000000000E-002     1.3782957766799106E-019
  -2.2349999999999998E-002     1.6297731838249891E-019
  -2.2300000000000000E-002     1.6586423346701809E-019
  -2.2249999999999999E-002     1.4155927266591672E-019
  -2.2200000000000001E-002     8.8744763595434189E-020
  -2.2150000000000000E-002     1.0655138814817288E-020
  -2.2100000000000002E-002    -8.4577572803267979E-020
  -2.2050000000000000E-002    -1.8434675773126590E-019
  -2.1999999999999999E-002    -2.7283915578920971E-019
  -2.1950000000000001E-002    -3.3309186543190541E-019
  -2.1899999999999999E-002    -3.4963589614089936E-019
  -2.1850000000000001E-002    -3.1138481735578288E-019
  -2.1800000000000000E-002    -2.1432151806998858E-019
  -2.1749999999999999E-002    -6.3489765509050618E-020
  -2.1700000000000001E-002     1.2617421525818693E-019
  -2.1649999999999999E-002     3.3051967419681654E-019
  -2.1600000000000001E-002     5.1852552035576867E-019
  -2.1550000000000000E-002     6.5621291490499063E-019
  -2.1499999999999998E-002     7.1174824396527029E-019
  -2.1450000000000000E-002     6.6109361428253287E-019
  -2.1399999999999999E-002     4.9335998030696514E-019
  -2.1350000000000001E-002     2.1492344934496355E-019
  -2.1299999999999999E-002    -1.4858866519597521E-019
  -2.1250000000000002E-002    -5.5313442383641703E-019
  -2.1200000000000000E-002    -9.4025875712109383E-019
  -2.1149999999999999E-002    -1.2441396929032785E-018
  -2.1100000000000001E-002    -1.4010380662444131E-018
  -2.1049999999999999E-002    -1.3600099951084669E-018
  -2.1000000000000001E-002    -1.0933450623455422E-018
  -2.0950000000000000E-002    -6.0498651121042924E-019
  -2.0899999999999998E-002     6.4768914169264462E-020
  -2.0850000000000000E-002     8.3966658610699712E-019
  -2.0799999999999999E-002     1.6137546785702193E-018
  -2.0750000000000001E-002     2.2634536320659385E-018
  -2.0700000000000000E-002     2.6644298873093348E-018
  -2.0649999999999998E-002     2.7113329126408512E-018
  -2.0600000000000000E-002     2.3376850693459991E-018
  -2.0549999999999999E-002     1.5327648628957206E-018
  -2.0500000000000001E-002     3.5231418258869274E-019
  -2.0449999999999999E-002    -1.0796047334629234E-018
  -2.0400000000000001E-002    -2.5792727923713459E-018
  -2.0350000000000000E-002    -3.9227532355376240E-018
  -2.0299999999999999E-002    -4.8746903399389174E-018
  -2.0250000000000001E-002    -5.2233673589153679E-018
  -2.0199999999999999E-002    -4.8174736704203098E-018
  -2.0150000000000001E-002    -3.5990974951628036E-018
  -2.0100000000000000E-002    -1.6272420410312597E-018
  -2.0049999999999998E-002     9.1319904303075845E-019
  -2.0000000000000000E-002     3.7205617124739143E-018
  -1.9949999999999999E-002     6.4049061406279408E-018
  -1.9900000000000001E-002     8.5343931542796952E-018
  -1.9850000000000000E-002     9.6950958237041128E-018
  -1.9799999999999998E-002     9.5571119456678231E-018
  -1.9750000000000000E-002     7.9378579803388272E-018
  -1.9699999999999999E-002     4.8525148854968094E-018
  -1.9650000000000001E-002     5.4205658889736446E-019
  -1.9599999999999999E-002    -4.5287366943568862E-018
  -1.9550000000000001E-002    -9.7075113100670583E-018
  -1.9500000000000000E-002    -1.4224529420830324E-017
  -1.9449999999999999E-002    -1.7291390342005754E-017
  -1.9400000000000001E-002    -1.8217732914099595E-017
  -1.9349999999999999E-002    -1.6531056181690459E-017
  -1.9300000000000001E-002    -1.2082000649514670E-017
  -1.9250000000000000E-002    -5.1169032790803670E-018
  -1.9199999999999998E-002     3.6984908597653029E-018
  -1.9150000000000000E-002     1.3315367079745829E-017
  -1.9099999999999999E-002     2.2402086519008546E-017
  -1.9050000000000001E-002     2.9503028874527853E-017
  -1.9000000000000000E-002     3.3240898856966621E-017
  -1.8949999999999998E-002     3.2538286410321553E-017
  -1.8900000000000000E-002     2.6827474632443525E-017
  -1.8849999999999999E-002     1.6214411562929606E-017
  -1.8800000000000001E-002     1.5645503622421257E-018
  -1.8749999999999999E-002    -1.5514667565606824E-017
  -1.8700000000000001E-002    -3.2807687719878886E-017
  -1.8650000000000000E-002    -4.7737975915314675E-017
  -1.8599999999999998E-002    -5.7707179999956756E-017
  -1.8550000000000001E-002    -6.0487544662300414E-017
  -1.8499999999999999E-002    -5.4614780300386896E-017
  -1.8450000000000001E-002    -3.9720805286950913E-017
  -1.8400000000000000E-002    -1.6746415700543446E-017
  -1.8349999999999998E-002     1.2015872496922086E-017
  -1.8300000000000000E-002     4.3079163953729798E-017
  -1.8249999999999999E-002     7.2123208050606796E-017
  -1.8200000000000001E-002     9.4531554702723754E-017
  -1.8149999999999999E-002     1.0604645705896600E-016
  -1.8100000000000002E-002     1.0345733238559098E-016
  -1.8050000000000000E-002     8.5222539390341107E-017
  -1.7999999999999999E-002     5.1921612804040681E-017
  -1.7950000000000001E-002     6.4478848092787913E-018
  -1.7899999999999999E-002    -4.6120189346959157E-017
  -1.7850000000000001E-002    -9.8989998213213515E-017
  -1.7800000000000000E-002    -1.4443988149729252E-016
  -1.7749999999999998E-002    -1.7483999160716848E-016
  -1.7700000000000000E-002    -1.8378607415061538E-016
  -1.7649999999999999E-002    -1.6719230407024320E-016
  -1.7600000000000001E-002    -1.2417763855158534E-016
  -1.7550000000000000E-002    -5.7591394684360541E-017
  -1.7499999999999998E-002     2.5940973675919693E-017
  -1.7450000000000000E-002     1.1651434743368443E-016
  -1.7399999999999999E-002     2.0197397898499915E-016
  -1.7350000000000001E-002     2.6939214094873805E-016
  -1.7299999999999999E-002     3.0683097314363050E-016
  -1.7250000000000001E-002     3.0517197155237362E-016
  -1.7200000000000000E-002     2.5975930449418321E-016
  -1.7149999999999999E-002     1.7160172048866285E-016
  -1.7100000000000001E-002     4.7912185773654452E-017
  -1.7049999999999999E-002    -9.8167195886437958E-017
  -1.7000000000000001E-002    -2.4871056228360254E-016
  -1.6950000000000000E-002    -3.8296371148458844E-016
  -1.6899999999999998E-002    -4.7992998064980582E-016
  -1.6850000000000000E-002    -5.2129820275296160E-016
  -1.6799999999999999E-002    -4.9434430648871017E-016
  -1.6750000000000001E-002    -3.9439811940687166E-016
  -1.6700000000000000E-002    -2.2648001637743420E-016
  -1.6649999999999998E-002    -5.7796645567769260E-018
  -1.6600000000000000E-002     2.4322959452762618E-016
  -1.6549999999999999E-002     4.8908304400443633E-016
  -1.6500000000000001E-002     6.9687655682138361E-016
  -1.6449999999999999E-002     8.3273725573491495E-016
  -1.6400000000000001E-002     8.6870277628848378E-016
  -1.6350000000000000E-002     7.8737710146033173E-016
  -1.6299999999999999E-002     5.8568270889391040E-016
  -1.6250000000000001E-002     2.7706879772613167E-016
  -1.6199999999999999E-002    -1.0833087054814638E-016
  -1.6150000000000001E-002    -5.2587216553224860E-016
  -1.6100000000000000E-002    -9.2089562287121609E-016
  -1.6049999999999998E-002    -1.2351997002682183E-015
  -1.6000000000000000E-002    -1.4148240765669886E-015
  -1.5949999999999999E-002    -1.4182006457560354E-015
  -1.5900000000000001E-002    -1.2235545730404820E-015
  -1.5850000000000000E-002    -8.3440262502950560E-016
  -1.5799999999999998E-002    -2.8212254841035680E-016
  -1.5750000000000000E-002     3.7513973631676417E-016
  -1.5699999999999999E-002     1.0575192565255450E-015
  -1.5650000000000001E-002     1.6721930452422958E-015
  -1.5599999999999999E-002     2.1250371833687414E-015
  -1.5550000000000001E-002     2.3338425922869180E-015
  -1.5500000000000000E-002     2.2413648774782843E-015
  -1.5449999999999998E-002     1.8263010745188918E-015
  -1.5400000000000000E-002     1.1103709404607044E-015
  -1.5349999999999999E-002     1.6003973842675476E-016
  -1.5300000000000001E-002    -9.1796050745279628E-016
  -1.5250000000000000E-002    -1.9873407508085697E-015
  -1.5199999999999998E-002    -2.8983230322987833E-015
  -1.5150000000000000E-002    -3.5073204921249336E-015
  -1.5099999999999999E-002    -3.6977796914067236E-015
  -1.5050000000000001E-002    -3.3993272650247320E-015
  -1.4999999999999999E-002    -2.6023210697635278E-015
  -1.4949999999999998E-002    -1.3652944108897487E-015
  -1.4900000000000000E-002     1.8643798723512506E-016
  -1.4849999999999999E-002     1.8716402336234876E-015
  -1.4800000000000001E-002     3.4728287268748635E-015
  -1.4749999999999999E-002     4.7628037172311236E-015
  -1.4700000000000001E-002     5.5349617045291999E-015
  -1.4650000000000000E-002     5.6335284125972150E-015
  -1.4599999999999998E-002     4.9795482257441528E-015
  -1.4550000000000000E-002     3.5887165122219730E-015
  -1.4499999999999999E-002     1.5779417594472073E-015
  -1.4450000000000001E-002    -8.4118829863325616E-016
  -1.4400000000000000E-002    -3.3822522158540812E-015
  -1.4349999999999998E-002    -5.7156036080912037E-015
  -1.4300000000000000E-002    -7.5085170602205842E-015
  -1.4249999999999999E-002    -8.4692778488842586E-015
  -1.4200000000000001E-002    -8.3897397398915495E-015
  -1.4149999999999999E-002    -7.1806521938579764E-015
  -1.4099999999999998E-002    -4.8945154445976539E-015
  -1.4050000000000000E-002    -1.7319123467917612E-015
  -1.3999999999999999E-002     1.9709794825357583E-015
  -1.3950000000000001E-002     5.7737710300671673E-015
  -1.3899999999999999E-002     9.1798316783856723E-015
  -1.3850000000000001E-002     1.1696207563262029E-014
  -1.3800000000000000E-002     1.2898891595068177E-014
  -1.3749999999999998E-002     1.2495540821042462E-014
  -1.3700000000000000E-002     1.0377254635873539E-014
  -1.3649999999999999E-002     6.6515921729750920E-015
  -1.3600000000000001E-002     1.6505883528676594E-015
  -1.3550000000000000E-002    -4.0898968564753989E-015
  -1.3499999999999998E-002    -9.8798534095109733E-015
  -1.3450000000000000E-002    -1.4950399609580766E-014
  -1.3399999999999999E-002    -1.8547524712361104E-014
  -1.3350000000000001E-002    -2.0033892108349693E-014
  -1.3299999999999999E-002    -1.8986042864243124E-014
  -1.3249999999999998E-002    -1.5273526801116822E-014
  -1.3200000000000000E-002    -9.1073705018195631E-015
  -1.3149999999999998E-002    -1.0480146870130730E-015
  -1.3100000000000001E-002     8.0327536712800400E-015
  -1.3049999999999999E-002     1.7035684577038247E-014
  -1.3000000000000001E-002     2.4757271290786012E-014
  -1.2950000000000000E-002     3.0039674683629252E-014
  -1.2899999999999998E-002     3.1929723197187265E-014
  -1.2850000000000000E-002     2.9826243579128380E-014
  -1.2799999999999999E-002     2.3594454118251559E-014