  -4.0000000000000001E-002     0.0000000000000000     
  -3.9949999999999999E-002     0.0000000000000000     
  -3.9899999999999998E-002     0.0000000000000000     
  -3.9850000000000003E-002     0.0000000000000000     
  -3.9800000000000002E-002     0.0000000000000000     
  -3.9750000000000001E-002     0.0000000000000000     
  -3.9699999999999999E-002     0.0000000000000000     
  -3.9649999999999998E-002     0.0000000000000000     
  -3.9600000000000003E-002     0.0000000000000000     
  -3.9550000000000002E-002     0.0000000000000000     
  -3.9500000000000000E-002     0.0000000000000000     
  -3.9449999999999999E-002     0.0000000000000000     
  -3.9399999999999998E-002     0.0000000000000000     
  -3.9350000000000003E-002     0.0000000000000000     
  -3.9300000000000002E-002     0.0000000000000000     
  -3.9250000000000000E-002     0.0000000000000000     
  -3.9199999999999999E-002     0.0000000000000000     
  -3.9150000000000004E-002     0.0000000000000000     
  -3.9100000000000003E-002     0.0000000000000000     
  -3.9050000000000001E-002     0.0000000000000000     
  -3.9000000000000000E-002     0.0000000000000000     
  -3.8949999999999999E-002     0.0000000000000000     
  -3.8900000000000004E-002     0.0000000000000000     
  -3.8850000000000003E-002     0.0000000000000000     
  -3.8800000000000001E-002     0.0000000000000000     
  -3.8750000000000000E-002     0.0000000000000000     
  -3.8699999999999998E-002     0.0000000000000000     
  -3.8650000000000004E-002     0.0000000000000000     
  -3.8600000000000002E-002     0.0000000000000000     
  -3.8550000000000001E-002     0.0000000000000000     
  -3.8500000000000000E-002     0.0000000000000000     
  -3.8449999999999998E-002     0.0000000000000000     
  -3.8400000000000004E-002     0.0000000000000000     
  -3.8350000000000002E-002     0.0000000000000000     
  -3.8300000000000001E-002     0.0000000000000000     
  -3.8249999999999999E-002     0.0000000000000000     
  -3.8199999999999998E-002     0.0000000000000000     
  -3.8150000000000003E-002     0.0000000000000000     
  -3.8100000000000002E-002     0.0000000000000000     
  -3.8050000000000000E-002     0.0000000000000000     
  -3.7999999999999999E-002     0.0000000000000000     
  -3.7949999999999998E-002     0.0000000000000000     
  -3.7900000000000003E-002     0.0000000000000000     
  -3.7850000000000002E-002     0.0000000000000000     
  -3.7800000000000000E-002     0.0000000000000000     
  -3.7749999999999999E-002     0.0000000000000000     
  -3.7699999999999997E-002     0.0000000000000000     
  -3.7650000000000003E-002     0.0000000000000000     
  -3.7600000000000001E-002     0.0000000000000000     
  -3.7550000000000000E-002     0.0000000000000000     
  -3.7499999999999999E-002     0.0000000000000000     
  -3.7449999999999997E-002     0.0000000000000000     
  -3.7400000000000003E-002     0.0000000000000000     
  -3.7350000000000001E-002     0.0000000000000000     
  -3.7300000000000000E-002     0.0000000000000000     
  -3.7249999999999998E-002     0.0000000000000000     
  -3.7200000000000004E-002     0.0000000000000000     
  -3.7150000000000002E-002     0.0000000000000000     
  -3.7100000000000001E-002     0.0000000000000000     
  -3.7050000000000000E-002     0.0000000000000000     
  -3.6999999999999998E-002     0.0000000000000000     
  -3.6950000000000004E-002     0.0000000000000000     
  -3.6900000000000002E-002     0.0000000000000000     
  -3.6850000000000001E-002     0.0000000000000000     
  -3.6799999999999999E-002     0.0000000000000000     
  -3.6749999999999998E-002     0.0000000000000000     
  -3.6700000000000003E-002     0.0000000000000000     
  -3.6650000000000002E-002     0.0000000000000000     
  -3.6600000000000001E-002     0.0000000000000000     
  -3.6549999999999999E-002     0.0000000000000000     
  -3.6499999999999998E-002     0.0000000000000000     
  -3.6450000000000003E-002     0.0000000000000000     
  -3.6400000000000002E-002     0.0000000000000000     
  -3.6350000000000000E-002     0.0000000000000000     
  -3.6299999999999999E-002     0.0000000000000000     
  -3.6249999999999998E-002     0.0000000000000000     
  -3.6200000000000003E-002     0.0000000000000000     
  -3.6150000000000002E-002     0.0000000000000000     
  -3.6100000000000000E-002     0.0000000000000000     
  -3.6049999999999999E-002     0.0000000000000000     
  -3.6000000000000004E-002     0.0000000000000000     
  -3.5950000000000003E-002     0.0000000000000000     
  -3.5900000000000001E-002     0.0000000000000000     
  -3.5850000000000000E-002     0.0000000000000000     
  -3.5799999999999998E-002     0.0000000000000000     
  -3.5750000000000004E-002     0.0000000000000000     
  -3.5700000000000003E-002     0.0000000000000000     
  -3.5650000000000001E-002     0.0000000000000000     
  -3.5600000000000000E-002     0.0000000000000000     
  -3.5549999999999998E-002     0.0000000000000000     
  -3.5500000000000004E-002     0.0000000000000000     
  -3.5450000000000002E-002     0.0000000000000000     
  -3.5400000000000001E-002     0.0000000000000000     
  -3.5349999999999999E-002     0.0000000000000000     
  -3.5299999999999998E-002     0.0000000000000000     
  -3.5250000000000004E-002     0.0000000000000000     
  -3.5200000000000002E-002     0.0000000000000000     
  -3.5150000000000001E-002     0.0000000000000000     
  -3.5099999999999999E-002     0.0000000000000000     
  -3.5049999999999998E-002     0.0000000000000000     
  -3.5000000000000003E-002     0.0000000000000000     
  -3.4950000000000002E-002     0.0000000000000000     
  -3.4900000000000000E-002     0.0000000000000000     
  -3.4849999999999999E-002     0.0000000000000000     
  -3.4799999999999998E-002     0.0000000000000000     
  -3.4750000000000003E-002     0.0000000000000000     
  -3.4700000000000002E-002     0.0000000000000000     
  -3.4650000000000000E-002     0.0000000000000000     
  -3.4599999999999999E-002     0.0000000000000000     
  -3.4549999999999997E-002     0.0000000000000000     
  -3.4500000000000003E-002     0.0000000000000000     
  -3.4450000000000001E-002     0.0000000000000000     
  -3.4400000000000000E-002     0.0000000000000000     
  -3.4349999999999999E-002     0.0000000000000000     
  -3.4299999999999997E-002     0.0000000000000000     
  -3.4250000000000003E-002     0.0000000000000000     
  -3.4200000000000001E-002     0.0000000000000000     
  -3.4150000000000000E-002     0.0000000000000000     
  -3.4099999999999998E-002     0.0000000000000000     
  -3.4049999999999997E-002     0.0000000000000000     
  -3.4000000000000002E-002     0.0000000000000000     
  -3.3950000000000001E-002     0.0000000000000000     
  -3.3900000000000000E-002     0.0000000000000000     
  -3.3849999999999998E-002     0.0000000000000000     
  -3.3799999999999997E-002     0.0000000000000000     
  -3.3750000000000002E-002     0.0000000000000000     
  -3.3700000000000001E-002     0.0000000000000000     
  -3.3649999999999999E-002     0.0000000000000000     
  -3.3599999999999998E-002     0.0000000000000000     
  -3.3550000000000003E-002     0.0000000000000000     
  -3.3500000000000002E-002     0.0000000000000000     
  -3.3450000000000001E-002     0.0000000000000000     
  -3.3399999999999999E-002     0.0000000000000000     
  -3.3349999999999998E-002     0.0000000000000000     
  -3.3300000000000003E-002     0.0000000000000000     
  -3.3250000000000002E-002     0.0000000000000000     
  -3.3200000000000000E-002     0.0000000000000000     
  -3.3149999999999999E-002     0.0000000000000000     
  -3.3099999999999997E-002     0.0000000000000000     
  -3.3050000000000003E-002     0.0000000000000000     
  -3.3000000000000002E-002     0.0000000000000000     
  -3.2950000000000000E-002     0.0000000000000000     
  -3.2899999999999999E-002     0.0000000000000000     
  -3.2850000000000004E-002     0.0000000000000000     
  -3.2800000000000003E-002     0.0000000000000000     
  -3.2750000000000001E-002     0.0000000000000000     
  -3.2700000000000000E-002     0.0000000000000000     
  -3.2649999999999998E-002     0.0000000000000000     
  -3.2600000000000004E-002     0.0000000000000000     
  -3.2550000000000003E-002     0.0000000000000000     
  -3.2500000000000001E-002     0.0000000000000000     
  -3.2450000000000000E-002     0.0000000000000000     
  -3.2399999999999998E-002     0.0000000000000000     
  -3.2350000000000004E-002     0.0000000000000000     
  -3.2300000000000002E-002     0.0000000000000000     
  -3.2250000000000001E-002     0.0000000000000000     
  -3.2199999999999999E-002     0.0000000000000000     
  -3.2149999999999998E-002     0.0000000000000000     
  -3.2100000000000004E-002     0.0000000000000000     
  -3.2050000000000002E-002     0.0000000000000000     
  -3.2000000000000001E-002     0.0000000000000000     
  -3.1949999999999999E-002     0.0000000000000000     
  -3.1899999999999998E-002     0.0000000000000000     
  -3.1850000000000003E-002     0.0000000000000000     
  -3.1800000000000002E-002     0.0000000000000000     
  -3.1750000000000000E-002     0.0000000000000000     
  -3.1699999999999999E-002     0.0000000000000000     
  -3.1649999999999998E-002     0.0000000000000000     
  -3.1600000000000003E-002     0.0000000000000000     
  -3.1550000000000002E-002     0.0000000000000000     
  -3.1500000000000000E-002     0.0000000000000000     
  -3.1449999999999999E-002     0.0000000000000000     
  -3.1399999999999997E-002     0.0000000000000000     
  -3.1350000000000003E-002     0.0000000000000000     
  -3.1300000000000001E-002     0.0000000000000000     
  -3.1250000000000000E-002     0.0000000000000000     
  -3.1199999999999999E-002     0.0000000000000000     
  -3.1150000000000001E-002     0.0000000000000000     
  -3.1100000000000003E-002     0.0000000000000000     
  -3.1050000000000001E-002     0.0000000000000000     
  -3.1000000000000000E-002     0.0000000000000000     
  -3.0949999999999998E-002     0.0000000000000000     
  -3.0900000000000000E-002     0.0000000000000000     
  -3.0850000000000002E-002     0.0000000000000000     
  -3.0800000000000001E-002     0.0000000000000000     
  -3.0750000000000000E-002     0.0000000000000000     
  -3.0699999999999998E-002     0.0000000000000000     
  -3.0650000000000000E-002     0.0000000000000000     
  -3.0600000000000002E-002     0.0000000000000000     
  -3.0550000000000001E-002     0.0000000000000000     
  -3.0499999999999999E-002     0.0000000000000000     
  -3.0449999999999998E-002     0.0000000000000000     
  -3.0400000000000000E-002     0.0000000000000000     
  -3.0350000000000002E-002     0.0000000000000000     
  -3.0300000000000001E-002     0.0000000000000000     
  -3.0249999999999999E-002     0.0000000000000000     
  -3.0200000000000001E-002     0.0000000000000000     
  -3.0150000000000000E-002     0.0000000000000000     
  -3.0100000000000002E-002     0.0000000000000000     
  -3.0050000000000000E-002     0.0000000000000000     
  -2.9999999999999999E-002     0.0000000000000000     
  -2.9950000000000001E-002     0.0000000000000000     
  -2.9899999999999999E-002     0.0000000000000000     
  -2.9850000000000002E-002     0.0000000000000000     
  -2.9800000000000000E-002     0.0000000000000000     
  -2.9749999999999999E-002     0.0000000000000000     
  -2.9700000000000001E-002     0.0000000000000000     
  -2.9650000000000003E-002     0.0000000000000000     
  -2.9600000000000001E-002     0.0000000000000000     
  -2.9550000000000000E-002     0.0000000000000000     
  -2.9499999999999998E-002     0.0000000000000000     
  -2.9450000000000000E-002     0.0000000000000000     
  -2.9400000000000003E-002     0.0000000000000000     
  -2.9350000000000001E-002     0.0000000000000000     
  -2.9300000000000000E-002     0.0000000000000000     
  -2.9249999999999998E-002     0.0000000000000000     
  -2.9200000000000000E-002     0.0000000000000000     
  -2.9150000000000002E-002     0.0000000000000000     
  -2.9100000000000001E-002     0.0000000000000000     
  -2.9049999999999999E-002     0.0000000000000000     
  -2.8999999999999998E-002     0.0000000000000000     
  -2.8950000000000000E-002     0.0000000000000000     
  -2.8900000000000002E-002     0.0000000000000000     
  -2.8850000000000001E-002     0.0000000000000000     
  -2.8799999999999999E-002     0.0000000000000000     
  -2.8749999999999998E-002     0.0000000000000000     
  -2.8700000000000000E-002     0.0000000000000000     
  -2.8650000000000002E-002     0.0000000000000000     
  -2.8600000000000000E-002     0.0000000000000000     
  -2.8549999999999999E-002     1.3264748482482502E-039
  -2.8500000000000001E-002     3.4046271076870105E-039
  -2.8450000000000000E-002     4.9502865108960370E-039
  -2.8400000000000002E-002     4.9502865108960370E-039
  -2.8350000000000000E-002     2.8842649793660053E-039
  -2.8299999999999999E-002     0.0000000000000000     
  -2.8250000000000001E-002     0.0000000000000000     
  -2.8200000000000003E-002     0.0000000000000000     
  -2.8150000000000001E-002    -3.7173742983769852E-039
  -2.8100000000000000E-002    -1.5302798357632006E-038
  -2.8049999999999999E-002    -3.2598824904048350E-038
  -2.8000000000000001E-002    -4.9706739206233890E-038
  -2.7950000000000003E-002    -5.8343536457719866E-038
  -2.7900000000000001E-002    -5.0831099578938795E-038
  -2.7850000000000000E-002    -2.6708148012064254E-038
  -2.7799999999999998E-002     3.7418659659096983E-038
  -2.7750000000000000E-002     1.3836440129894803E-037
  -2.7700000000000002E-002     2.4044237666847546E-037
  -2.7650000000000001E-002     3.1925787176849516E-037
  -2.7600000000000000E-002     3.2914806266152324E-037
  -2.7549999999999998E-002     2.8116619420540045E-037
  -2.7500000000000000E-002     1.3486803060133785E-037
  -2.7450000000000002E-002    -1.2128408510394095E-037
  -2.7400000000000001E-002    -4.8405060292774832E-037
  -2.7349999999999999E-002    -9.0675148485452618E-037
  -2.7299999999999998E-002    -1.3307789116492624E-036
  -2.7250000000000000E-002    -1.6225907322418765E-036
  -2.7200000000000002E-002    -1.6080624931281647E-036
  -2.7150000000000001E-002    -1.1053465150205944E-036
  -2.7099999999999999E-002     8.2682415705658952E-039
  -2.7049999999999998E-002     1.7097860786889373E-036
  -2.7000000000000000E-002     3.7740190415364051E-036
  -2.6950000000000002E-002     5.7211410943524936E-036
  -2.6900000000000000E-002     6.8863572410776160E-036
  -2.6849999999999999E-002     6.5543132582064923E-036
  -2.6800000000000001E-002     4.1626640444266680E-036
  -2.6749999999999999E-002    -4.6518489608287419E-037
  -2.6700000000000002E-002    -6.9197458958187552E-036
  -2.6650000000000000E-002    -1.4109412465947685E-035
  -2.6599999999999999E-002    -2.0321022414807479E-035
  -2.6550000000000001E-002    -2.3474797990111162E-035
  -2.6500000000000003E-002    -2.1566137330882535E-035
  -2.6450000000000001E-002    -1.3234908716606088E-035
  -2.6400000000000000E-002     1.6524426558170678E-036
  -2.6349999999999998E-002     2.1561921523908490E-035
  -2.6300000000000000E-002     4.3158105785372385E-035
  -2.6250000000000002E-002     6.1603973932783989E-035
  -2.6200000000000001E-002     7.1336883068010706E-035
  -2.6150000000000000E-002     6.7231763367990437E-035
  -2.6099999999999998E-002     4.5937074125837372E-035
  -2.6050000000000000E-002     7.0819553499622365E-036
  -2.6000000000000002E-002    -4.5953178099667617E-035
  -2.5950000000000001E-002    -1.0592447090171639E-034
  -2.5899999999999999E-002    -1.6234392196745251E-034
  -2.5849999999999998E-002    -2.0274115925296115E-034
  -2.5800000000000000E-002    -2.1436838942056245E-034
  -2.5750000000000002E-002    -1.8612290482585655E-034
  -2.5700000000000001E-002    -1.1052996935045748E-034
  -2.5649999999999999E-002     1.4259775304149316E-035
  -2.5599999999999998E-002     1.8242550010145002E-034
  -2.5550000000000000E-002     3.7839985910828949E-034
  -2.5500000000000002E-002     5.7502401416723396E-034
  -2.5450000000000000E-002     7.3264110363369186E-034
  -2.5399999999999999E-002     8.0036506049196910E-034
  -2.5349999999999998E-002     7.2113592698546958E-034
  -2.5300000000000000E-002     4.4206355058185397E-034
  -2.5250000000000002E-002    -6.9349042362398633E-035
  -2.5200000000000000E-002    -8.0437526544022484E-034
  -2.5149999999999999E-002    -1.6915490872933103E-033
  -2.5100000000000001E-002    -2.5812247957445690E-033
  -2.5049999999999999E-002    -3.2450035498331665E-033
  -2.5000000000000001E-002    -3.3988399439831718E-033
  -2.4950000000000000E-002    -2.7555498498317026E-033
  -2.4899999999999999E-002    -1.1057467866939564E-033
  -2.4850000000000001E-002     1.5835160685953552E-033
  -2.4800000000000003E-002     5.0741151967346660E-033
  -2.4750000000000001E-002     8.7970675094153033E-033
  -2.4700000000000000E-002     1.1861827072465223E-032
  -2.4649999999999998E-002     1.3163076121786244E-032
  -2.4600000000000000E-002     1.1596193528732499E-032
  -2.4550000000000002E-002     6.3647685847544483E-033
  -2.4500000000000001E-002    -2.6706050960932594E-033
  -2.4450000000000000E-002    -1.4685505282927666E-032
  -2.4399999999999998E-002    -2.7730520170551704E-032
  -2.4350000000000000E-002    -3.8817316813990336E-032
  -2.4299999999999999E-002    -4.4321246152369042E-032
  -2.4250000000000001E-002    -4.0706166833752495E-032
  -2.4199999999999999E-002    -2.5489633426933938E-032
  -2.4150000000000001E-002     1.7278544551097646E-033
  -2.4100000000000000E-002     3.8422996824329446E-032
  -2.4049999999999998E-002     7.8785471255602444E-032
  -2.4000000000000000E-002     1.1408081511697410E-031
  -2.3949999999999999E-002     1.3387973588862455E-031
  -2.3900000000000001E-002     1.2810941712587440E-031
  -2.3850000000000000E-002     8.9658035072992120E-032
  -2.3800000000000002E-002     1.7044024853988459E-032
  -2.3750000000000000E-002    -8.3491644976357535E-032
  -2.3699999999999999E-002    -1.9714611143852642E-031
  -2.3650000000000001E-002    -3.0151685482017411E-031
  -2.3599999999999999E-002    -3.6962312405784681E-031
  -2.3550000000000001E-002    -3.7481932813830719E-031
  -2.3500000000000000E-002    -2.9695282745002363E-031
  -2.3449999999999999E-002    -1.2868136712465585E-031
  -2.3400000000000001E-002     1.1941512258719970E-031
  -2.3349999999999999E-002     4.1632832050577230E-031
  -2.3300000000000001E-002     7.1185733761963173E-031
  -2.3250000000000000E-002     9.4217529720113801E-031
  -2.3199999999999998E-002     1.0395559971606212E-030
  -2.3150000000000000E-002     9.4524203745471220E-031
  -2.3099999999999999E-002     6.2365123888551101E-031
  -2.3050000000000001E-002     7.5541838757779538E-032
  -2.3000000000000000E-002    -6.5250661940073153E-031
  -2.2950000000000002E-002    -1.4648231627566406E-030
  -2.2900000000000000E-002    -2.2216185851276748E-030
  -2.2849999999999999E-002    -2.7533743208263217E-030
  -2.2800000000000001E-002    -2.8846541372609019E-030
  -2.2749999999999999E-002    -2.4658932446679919E-030
  -2.2700000000000001E-002    -1.4100510904682503E-030
  -2.2650000000000000E-002     2.7079668197141173E-031
  -2.2599999999999999E-002     2.4356048355757633E-030
  -2.2550000000000001E-002     4.7992750554457862E-030
  -2.2499999999999999E-002     6.9407960988551190E-030
  -2.2450000000000001E-002     8.3419365652544852E-030
  -2.2400000000000000E-002     8.4604663762189795E-030
  -2.2349999999999998E-002     6.8359791028113787E-030
  -2.2300000000000000E-002     3.2181053369485881E-030
  -2.2249999999999999E-002    -2.3027763113398654E-030
  -2.2200000000000001E-002    -9.1913249141486546E-030
  -2.2150000000000000E-002    -1.6424290133771240E-029
  -2.2100000000000002E-002    -2.2543026169298563E-029
  -2.2050000000000000E-002    -2.5825987789768108E-029
  -2.1999999999999999E-002    -2.4585713373829650E-029
  -2.1950000000000001E-002    -1.7565770972492429E-029
  -2.1899999999999999E-002    -4.3789789635004998E-030
  -2.1850000000000001E-002     1.4103657319282708E-029
  -2.1800000000000000E-002     3.5524360154656297E-029
  -2.1749999999999999E-002     5.6080972083145806E-029
  -2.1700000000000001E-002     7.0922238277342207E-029
  -2.1649999999999999E-002     7.4919059830762565E-029
  -2.1600000000000001E-002     6.3750419089553928E-029
  -2.1550000000000000E-002     3.5146581336077037E-029
  -2.1499999999999998E-002    -9.9551218833401283E-030
  -2.1450000000000000E-002    -6.6640947464992545E-029
  -2.1399999999999999E-002    -1.2593394261855453E-028
  -2.1350000000000001E-002    -1.7561089052817863E-028
  -2.1299999999999999E-002    -2.0199466161274007E-028
  -2.1250000000000002E-002    -1.9258588918323811E-028
  -2.1200000000000000E-002    -1.3916582935260240E-028
  -2.1149999999999999E-002    -4.0795598436324859E-029
  -2.1100000000000001E-002     9.3989228706350790E-029
  -2.1049999999999999E-002     2.4648698404950805E-028
  -2.1000000000000001E-002     3.8917703821652004E-028
  -2.0950000000000000E-002     4.8932028689185776E-028
  -2.0899999999999998E-002     5.1458392634738707E-028
  -2.0850000000000000E-002     4.3996944431598954E-028
  -2.0799999999999999E-002     2.5487879579824108E-028
  -2.0750000000000001E-002    -3.1135150910896434E-029
  -2.0700000000000000E-002    -3.8542866202235771E-028
  -2.0649999999999998E-002    -7.5337089431948677E-028
  -2.0600000000000000E-002    -1.0641581535636042E-027
  -2.0549999999999999E-002    -1.2411946102278397E-027
  -2.0500000000000001E-002    -1.2159628616421281E-027
  -2.0449999999999999E-002    -9.4340946686876527E-028
  -2.0400000000000001E-002    -4.1619201690034712E-028
  -2.0350000000000000E-002     3.2517505926861515E-028
  -2.0299999999999999E-002     1.1890494799567262E-027
  -2.0250000000000001E-002     2.0383239979586875E-027
  -2.0199999999999999E-002     2.7058698495089360E-027
  -2.0150000000000001E-002     3.0190299473186823E-027
  -2.0100000000000000E-002     2.8306891004828257E-027
  -2.0049999999999998E-002     2.0527746108074313E-027
  -2.0000000000000000E-002     6.8674365331613821E-028
  -1.9949999999999999E-002    -1.1550831841686211E-027
  -1.9900000000000001E-002    -3.2432959647664829E-027
  -1.9850000000000000E-002    -5.2450294666736549E-027
  -1.9799999999999998E-002    -6.7599133206540874E-027
  -1.9750000000000000E-002    -7.3774962347181289E-027
  -1.9699999999999999E-002    -6.7512598829935703E-027
  -1.9650000000000001E-002    -4.6800292969683882E-027
  -1.9599999999999999E-002    -1.1837068750557770E-027
  -1.9550000000000001E-002     3.4423680071954069E-027
  -1.9500000000000000E-002     8.6105853858403090E-027
  -1.9449999999999999E-002     1.3475406728904978E-026
  -1.9400000000000001E-002     1.7026598764894778E-026
  -1.9349999999999999E-002     1.8239761451225035E-026
  -1.9300000000000001E-002     1.6270787074667539E-026
  -1.9250000000000000E-002     1.0668184264123286E-026
  -1.9199999999999998E-002     1.5661120716940789E-027
  -1.9150000000000000E-002    -1.0185828685907582E-026
  -1.9099999999999999E-002    -2.2999549800393754E-026
  -1.9050000000000001E-002    -3.4666086061325381E-026
  -1.9000000000000000E-002    -4.2628268280124614E-026
  -1.8949999999999998E-002    -4.4394867191779008E-026
  -1.8900000000000000E-002    -3.8049858136015337E-026
  -1.8849999999999999E-002    -2.2778384037611334E-026
  -1.8800000000000001E-002     6.9291101667118547E-028
  -1.8749999999999999E-002     2.9852322641097252E-026
  -1.8700000000000001E-002     6.0455143298208166E-026
  -1.8650000000000000E-002     8.6934072046926522E-026
  -1.8599999999999998E-002     1.0317299141770985E-025
  -1.8550000000000001E-002     1.0357578316071326E-025
  -1.8499999999999999E-002     8.4286100036102355E-026
  -1.8450000000000001E-002     4.4349456338711441E-026
  -1.8400000000000000E-002    -1.3426632686023302E-026
  -1.8349999999999998E-002    -8.2153490653052245E-026
  -1.8300000000000000E-002    -1.5126665923376718E-025
  -1.8249999999999999E-002    -2.0773548899767345E-025
  -1.8200000000000001E-002    -2.3801485847490650E-025
  -1.8149999999999999E-002    -2.3051872275994824E-025
  -1.8100000000000002E-002    -1.7824741237811658E-025
  -1.8050000000000000E-002    -8.1097083481985319E-026
  -1.7999999999999999E-002     5.2654065183353591E-026
  -1.7950000000000001E-002     2.0613036574658074E-025
  -1.7899999999999999E-002     3.5520768609199833E-025
  -1.7850000000000001E-002     4.7148342179330507E-025
  -1.7800000000000000E-002     5.2663257396796448E-025
  -1.7749999999999998E-002     4.9761681545067690E-025
  -1.7700000000000000E-002     3.7195671035024614E-025
  -1.7649999999999999E-002     1.5212381828631277E-025
  -1.7600000000000001E-002    -1.4190429906193496E-025
  -1.7550000000000000E-002    -4.7272853744104990E-025
  -1.7499999999999998E-002    -7.8873181319761661E-025
  -1.7450000000000000E-002    -1.0304223097975953E-024
  -1.7399999999999999E-002    -1.1393926439797030E-024
  -1.7350000000000001E-002    -1.0688290835634991E-024
  -1.7299999999999999E-002    -7.9404302230130951E-025
  -1.7250000000000001E-002    -3.2121532175830287E-025
  -1.7200000000000000E-002     3.0748810848801411E-025
  -1.7149999999999999E-002     1.0140032126039491E-024
  -1.7100000000000001E-002     1.6906582274740085E-024
  -1.7049999999999999E-002     2.2128177328148295E-024
  -1.7000000000000001E-002     2.4569977517520163E-024
  -1.6950000000000000E-002     2.3224761170967038E-024
  -1.6899999999999998E-002     1.7534308450256245E-024
  -1.6850000000000000E-002     7.5794551639853950E-025
  -1.6799999999999999E-002    -5.8002607179295306E-025
  -1.6750000000000001E-002    -2.0992726844050546E-024
  -1.6700000000000000E-002    -3.5730132284324996E-024
  -1.6649999999999998E-002    -4.7344497354273712E-024
  -1.6600000000000000E-002    -5.3147564410355652E-024
  -1.6549999999999999E-002    -5.0896003109444740E-024
  -1.6500000000000001E-002    -3.9279083738740302E-024
  -1.6449999999999999E-002    -1.8348073384419922E-024
  -1.6400000000000001E-002     1.0201411482325072E-024
  -1.6350000000000000E-002     4.2976364954886856E-024
  -1.6299999999999999E-002     7.5122531967450808E-024
  -1.6250000000000001E-002     1.0087080145091406E-023
  -1.6199999999999999E-002     1.1436364669775153E-023
  -1.6150000000000001E-002     1.1067402422567000E-023
  -1.6100000000000000E-002     8.6874754056768188E-024
  -1.6049999999999998E-002     4.2976539437329973E-024
  -1.6000000000000000E-002    -1.7462496890078297E-024
  -1.5949999999999999E-002    -8.7234989467080151E-024
  -1.5900000000000001E-002    -1.5601436609493202E-023
  -1.5850000000000000E-002    -2.1155117579996386E-023
  -1.5799999999999998E-002    -2.4145579648773422E-023
  -1.5750000000000000E-002    -2.3536422082229032E-023
  -1.5699999999999999E-002    -1.8717342696533517E-023
  -1.5650000000000001E-002    -9.6958289488848041E-024
  -1.5599999999999999E-002     2.7835360564645909E-024
  -1.5550000000000001E-002     1.7227403173996462E-023
  -1.5500000000000000E-002     3.1512089167995961E-023
  -1.5449999999999998E-002     4.3135414608457511E-023
  -1.5400000000000000E-002     4.9582047864537961E-023
  -1.5349999999999999E-002     4.8758585033534026E-023
  -1.5300000000000001E-002     3.9434619657180678E-023
  -1.5250000000000000E-002     2.1613666043303083E-023
  -1.5199999999999998E-002    -3.2428890938011954E-024
  -1.5150000000000000E-002    -3.2203290501346870E-023
  -1.5099999999999999E-002    -6.1102963781468824E-023
  -1.5050000000000001E-002    -8.5034182443774376E-023
  -1.4999999999999999E-002    -9.9047125947450489E-023
  -1.4949999999999998E-002    -9.8978934142278547E-023
  -1.4900000000000000E-002    -8.2292446421450569E-023
  -1.4849999999999999E-002    -4.8785435086200101E-023
  -1.4800000000000001E-002    -1.0305302598046031E-024
  -1.4749999999999999E-002     5.5571580619890535E-023
  -1.4700000000000001E-002     1.1319824896031716E-022
  -1.4650000000000000E-002     1.6247947496389420E-022
  -1.4599999999999998E-002     1.9377485900571790E-022
  -1.4550000000000000E-002     1.9871174169219856E-022
  -1.4499999999999999E-002     1.7177781092860051E-022
  -1.4450000000000001E-002     1.1171965751789310E-022
  -1.4400000000000000E-002     2.2488791220340695E-023
  -1.4349999999999998E-002    -8.6494017738036053E-023
  -1.4300000000000000E-002    -2.0091453698472656E-022
  -1.4249999999999999E-002    -3.0303338410956488E-022
  -1.4200000000000001E-002    -3.7396495986931259E-022
  -1.4149999999999999E-002    -3.9654307162679430E-022
  -1.4099999999999998E-002    -3.5841528491240062E-022
  -1.4050000000000000E-002    -2.5490874293473076E-022
  -1.3999999999999999E-002    -9.1164063979416774E-023
  -1.3950000000000001E-002     1.1693982633046340E-022
  -1.3899999999999999E-002     3.4343870967468866E-022
  -1.3850000000000001E-002     5.5469621339664260E-022
  -1.3800000000000000E-002     7.1350666199264534E-022
  -1.3749999999999998E-002     7.8452774533684717E-022
  -1.3700000000000000E-002     7.4039792643251387E-022
  -1.3649999999999999E-002     5.6766048168973696E-022
  -1.3600000000000001E-002     2.7148270730428674E-022
  -1.3550000000000000E-002    -1.2183068642610003E-022
  -1.3499999999999998E-002    -5.6535335635051094E-022
  -1.3450000000000000E-002    -9.9554866671751226E-022
  -1.3399999999999999E-002    -1.3397535922233493E-021
  -1.3350000000000001E-002    -1.5265141391072529E-021
  -1.3299999999999999E-002    -1.4975708919352115E-021
  -1.3249999999999998E-002    -1.2197896582149436E-021
  -1.3200000000000000E-002    -6.9503555729907762E-022
  -1.3149999999999998E-002     3.4018874644394279E-023
  -1.3100000000000001E-002     8.8383475868805830E-022
  -1.3049999999999999E-002     1.7367061401097622E-021
  -1.3000000000000001E-002     2.4542626357564962E-021
  -1.2950000000000000E-002     2.8966881443667928E-021
  -1.2899999999999998E-002     2.9454218724509775E-021
  -1.2850000000000000E-002     2.5261539620768623E-021
  -1.2799999999999999E-002     1.6283545295066831E-021