  -4.0000000000000001E-002     0.0000000000000000     
  -3.9949999999999999E-002     0.0000000000000000     
  -3.9899999999999998E-002     0.0000000000000000     
  -3.9850000000000003E-002     0.0000000000000000     
  -3.9800000000000002E-002     0.0000000000000000     
  -3.9750000000000001E-002     0.0000000000000000     
  -3.9699999999999999E-002     0.0000000000000000     
  -3.9649999999999998E-002     0.0000000000000000     
  -3.9600000000000003E-002     0.0000000000000000     
  -3.9550000000000002E-002     0.0000000000000000     
  -3.9500000000000000E-002     0.0000000000000000     
  -3.9449999999999999E-002     0.0000000000000000     
  -3.9399999999999998E-002     0.0000000000000000     
  -3.9350000000000003E-002     0.0000000000000000     
  -3.9300000000000002E-002     0.0000000000000000     
  -3.9250000000000000E-002     0.0000000000000000     
  -3.9199999999999999E-002     0.0000000000000000     
  -3.9150000000000004E-002     0.0000000000000000     
  -3.9100000000000003E-002     0.0000000000000000     
  -3.9050000000000001E-002     0.0000000000000000     
  -3.9000000000000000E-002     0.0000000000000000     
  -3.8949999999999999E-002     0.0000000000000000     
  -3.8900000000000004E-002     0.0000000000000000     
  -3.8850000000000003E-002     0.0000000000000000     
  -3.8800000000000001E-002     0.0000000000000000     
  -3.8750000000000000E-002     0.0000000000000000     
  -3.8699999999999998E-002     0.0000000000000000     
  -3.8650000000000004E-002     0.0000000000000000     
  -3.8600000000000002E-002     0.0000000000000000     
  -3.8550000000000001E-002     0.0000000000000000     
  -3.8500000000000000E-002     0.0000000000000000     
  -3.8449999999999998E-002     0.0000000000000000     
  -3.8400000000000004E-002     0.0000000000000000     
  -3.8350000000000002E-002     0.0000000000000000     
  -3.8300000000000001E-002     0.0000000000000000     
  -3.8249999999999999E-002     0.0000000000000000     
  -3.8199999999999998E-002     0.0000000000000000     
  -3.8150000000000003E-002     0.0000000000000000     
  -3.8100000000000002E-002     0.0000000000000000     
  -3.8050000000000000E-002     0.0000000000000000     
  -3.7999999999999999E-002     0.0000000000000000     
  -3.7949999999999998E-002     0.0000000000000000     
  -3.7900000000000003E-002     0.0000000000000000     
  -3.7850000000000002E-002     0.0000000000000000     
  -3.7800000000000000E-002     0.0000000000000000     
  -3.7749999999999999E-002     0.0000000000000000     
  -3.7699999999999997E-002     0.0000000000000000     
  -3.7650000000000003E-002     0.0000000000000000     
  -3.7600000000000001E-002     0.0000000000000000     
  -3.7550000000000000E-002     0.0000000000000000     
  -3.7499999999999999E-002     0.0000000000000000     
  -3.7449999999999997E-002     0.0000000000000000     
  -3.7400000000000003E-002     0.0000000000000000     
  -3.7350000000000001E-002     0.0000000000000000     
  -3.7300000000000000E-002     0.0000000000000000     
  -3.7249999999999998E-002     0.0000000000000000     
  -3.7200000000000004E-002     0.0000000000000000     
  -3.7150000000000002E-002     0.0000000000000000     
  -3.7100000000000001E-002     0.0000000000000000     
  -3.7050000000000000E-002     0.0000000000000000     
  -3.6999999999999998E-002     0.0000000000000000     
  -3.6950000000000004E-002     0.0000000000000000     
  -3.6900000000000002E-002     0.0000000000000000     
  -3.6850000000000001E-002     0.0000000000000000     
  -3.6799999999999999E-002     0.0000000000000000     
  -3.6749999999999998E-002     0.0000000000000000     
  -3.6700000000000003E-002     0.0000000000000000     
  -3.6650000000000002E-002     0.0000000000000000     
  -3.6600000000000001E-002     0.0000000000000000     
  -3.6549999999999999E-002     0.0000000000000000     
  -3.6499999999999998E-002     0.0000000000000000     
  -3.6450000000000003E-002     0.0000000000000000     
  -3.6400000000000002E-002     0.0000000000000000     
  -3.6350000000000000E-002     0.0000000000000000     
  -3.6299999999999999E-002     0.0000000000000000     
  -3.6249999999999998E-002     0.0000000000000000     
  -3.6200000000000003E-002     0.0000000000000000     
  -3.6150000000000002E-002     0.0000000000000000     
  -3.6100000000000000E-002     0.0000000000000000     
  -3.6049999999999999E-002     0.0000000000000000     
  -3.6000000000000004E-002     0.0000000000000000     
  -3.5950000000000003E-002     0.0000000000000000     
  -3.5900000000000001E-002     0.0000000000000000     
  -3.5850000000000000E-002     0.0000000000000000     
  -3.5799999999999998E-002     0.0000000000000000     
  -3.5750000000000004E-002     0.0000000000000000     
  -3.5700000000000003E-002     0.0000000000000000     
  -3.5650000000000001E-002     0.0000000000000000     
  -3.5600000000000000E-002     0.0000000000000000     
  -3.5549999999999998E-002     0.0000000000000000     
  -3.5500000000000004E-002     0.0000000000000000     
  -3.5450000000000002E-002     0.0000000000000000     
  -3.5400000000000001E-002     0.0000000000000000     
  -3.5349999999999999E-002     0.0000000000000000     
  -3.5299999999999998E-002     0.0000000000000000     
  -3.5250000000000004E-002     0.0000000000000000     
  -3.5200000000000002E-002     0.0000000000000000     
  -3.5150000000000001E-002     0.0000000000000000     
  -3.5099999999999999E-002     1.0817324440949824E-039
  -3.5049999999999998E-002     1.8882521167436112E-039
  -3.5000000000000003E-002     0.0000000000000000     
  -3.4950000000000002E-002    -4.9994651603629325E-039
  -3.4900000000000000E-002    -1.1545067697842158E-038
  -3.4849999999999999E-002    -1.5784338123634368E-038
  -3.4799999999999998E-002    -1.1938368237756607E-038
  -3.4750000000000003E-002     8.8114378914341415E-039
  -3.4700000000000002E-002     4.4358275734304923E-038
  -3.4650000000000000E-002     9.4116176732534519E-038
  -3.4599999999999999E-002     1.1323742474841036E-037
  -3.4549999999999997E-002     9.0954397824479077E-038
  -3.4500000000000003E-002    -1.8441101166308788E-038
  -3.4450000000000001E-002    -1.6706945208302976E-037
  -3.4400000000000000E-002    -3.4598406182413983E-037
  -3.4349999999999999E-002    -4.9854458484747321E-037
  -3.4299999999999997E-002    -5.3666139802539321E-037
  -3.4250000000000003E-002    -3.7844831754906500E-037
  -3.4200000000000001E-002     3.9511514375838298E-038
  -3.4150000000000000E-002     7.0480633284731421E-037
  -3.4099999999999998E-002     1.4869240357918437E-036
  -3.4049999999999997E-002     2.1371132004656908E-036
  -3.4000000000000002E-002     2.3061259575812224E-036
  -3.3950000000000001E-002     1.6734503483721881E-036
  -3.3900000000000000E-002     9.4967731900731620E-038
  -3.3849999999999998E-002    -2.2576096136503065E-036
  -3.3799999999999997E-002    -4.8433224996044746E-036
  -3.3750000000000002E-002    -6.8450861386380207E-036
  -3.3700000000000001E-002    -7.3987467523288792E-036
  -3.3649999999999999E-002    -5.8790597490366409E-036
  -3.3599999999999998E-002    -2.2062625929610647E-036
  -3.3550000000000003E-002     3.0639713333122565E-036
  -3.3500000000000002E-002     8.8232400313008382E-036
  -3.3450000000000001E-002     1.3649945961625020E-035
  -3.3399999999999999E-002     1.6106094645432625E-035
  -3.3349999999999998E-002     1.5027715971429838E-035
  -3.3300000000000003E-002     9.8763843247682187E-036
  -3.3250000000000002E-002     1.3191329253548405E-036
  -3.3200000000000000E-002    -7.9109272261670847E-036
  -3.3149999999999999E-002    -1.2273258989775500E-035
  -3.3099999999999997E-002    -3.8985760099602760E-036
  -3.3050000000000003E-002     2.4156091015888021E-035
  -3.3000000000000002E-002     7.0866199592217348E-035
  -3.2950000000000000E-002     1.1759633781101039E-034
  -3.2899999999999999E-002     1.2073895252247706E-034
  -3.2850000000000004E-002     1.5193315511097671E-035
  -3.2800000000000003E-002    -2.6205618662195696E-034
  -3.2750000000000001E-002    -7.2458491200274755E-034
  -3.2700000000000000E-002    -1.2751135859008463E-033
  -3.2649999999999998E-002    -1.6581973676558473E-033
  -3.2600000000000004E-002    -1.4702211377540134E-033
  -3.2550000000000003E-002    -2.6896705004538494E-034
  -3.2500000000000001E-002     2.2032262308539323E-033
  -3.2450000000000000E-002     5.7261112474436859E-033
  -3.2399999999999998E-002     9.3529388782191171E-033
  -3.2350000000000004E-002     1.1374048331290463E-032
  -3.2300000000000002E-002     9.6511584229597271E-033
  -3.2250000000000001E-002     2.3794982265127364E-033
  -3.2199999999999999E-002    -1.0854361805656753E-032
  -3.2149999999999998E-002    -2.8071844313679608E-032
  -3.2100000000000004E-002    -4.4461571591327755E-032
  -3.2050000000000002E-002    -5.2968536641062390E-032
  -3.2000000000000001E-002    -4.6106159338884869E-032
  -3.1949999999999999E-002    -1.8705805424107174E-032
  -3.1899999999999998E-002     2.9193052758443106E-032
  -3.1850000000000003E-002     9.0408703369453553E-032
  -3.1800000000000002E-002     1.5061349829273851E-031
  -3.1750000000000000E-002     1.9064955365410969E-031
  -3.1699999999999999E-002     1.9071273668453725E-031
  -3.1649999999999998E-002     1.3526918705882982E-031
  -3.1600000000000003E-002     1.7456180572496863E-032
  -3.1550000000000002E-002    -1.5768533237544236E-031
  -3.1500000000000000E-002    -3.7084688720057007E-031
  -3.1449999999999999E-002    -5.8614139916313817E-031
  -3.1399999999999997E-002    -7.4879245610449396E-031
  -3.1350000000000003E-002    -7.8504977866779332E-031
  -3.1300000000000001E-002    -6.0941586510220091E-031
  -3.1250000000000000E-002    -1.4553385432742072E-031
  -3.1199999999999999E-002     6.3581595988941381E-031
  -3.1150000000000001E-002     1.6666249008249829E-030
  -3.1100000000000003E-002     2.7369370861130706E-030
  -3.1050000000000001E-002     3.4840838191253257E-030
  -3.1000000000000000E-002     3.4462729145745310E-030
  -3.0949999999999998E-002     2.1964043702132290E-030
  -3.0900000000000000E-002    -4.6017238971543333E-031
  -3.0850000000000002E-002    -4.2817842076895060E-030
  -3.0800000000000001E-002    -8.4711784461434882E-030
  -3.0750000000000000E-002    -1.1734050094415474E-029
  -3.0699999999999998E-002    -1.2565233305119101E-029
  -3.0650000000000000E-002    -9.7268755722810642E-030
  -3.0600000000000002E-002    -2.7827380305383031E-030
  -3.0550000000000001E-002     7.5150853943798420E-030
  -3.0499999999999999E-002     1.9179611968483023E-029
  -3.0449999999999998E-002     2.9365234078874205E-029
  -3.0400000000000000E-002     3.5070147397255172E-029
  -3.0350000000000002E-002     3.3899723857121778E-029
  -3.0300000000000001E-002     2.4570803586938936E-029
  -3.0249999999999999E-002     6.9668806756771506E-030
  -3.0200000000000001E-002    -1.8149657159852945E-029
  -3.0150000000000000E-002    -4.9337330779954099E-029
  -3.0100000000000002E-002    -8.4026200004035567E-029
  -3.0050000000000000E-002    -1.1712726252812732E-028
  -2.9999999999999999E-002    -1.3912241357969402E-028
  -2.9950000000000001E-002    -1.3498473314462698E-028
  -2.9899999999999999E-002    -8.5911853406083080E-029
  -2.9850000000000002E-002     2.4427815936396048E-029
  -2.9800000000000000E-002     1.9905098039537122E-028
  -2.9749999999999999E-002     4.1493031001931312E-028
  -2.9700000000000001E-002     6.1414203783534508E-028
  -2.9650000000000003E-002     7.0636316720301767E-028
  -2.9600000000000001E-002     5.8885767221363588E-028
  -2.9550000000000000E-002     1.8476249798943605E-028
  -2.9499999999999998E-002    -5.0816092972080699E-028
  -2.9450000000000000E-002    -1.3753973380547201E-027
  -2.9400000000000003E-002    -2.1728262560417246E-027
  -2.9350000000000001E-002    -2.5632766561810741E-027
  -2.9300000000000000E-002    -2.2095918173278110E-027
  -2.9249999999999998E-002    -9.0939277264234276E-028
  -2.9200000000000000E-002     1.2676549648238047E-027
  -2.9150000000000002E-002     3.8960233174616012E-027
  -2.9100000000000001E-002     6.2186972296217133E-027
  -2.9049999999999999E-002     7.3093407746841486E-027
  -2.8999999999999998E-002     6.3554996687253755E-027
  -2.8950000000000000E-002     2.9914862960940640E-027
  -2.8900000000000002E-002    -2.4323964768858108E-027
  -2.8850000000000001E-002    -8.7654888312831418E-027
  -2.8799999999999999E-002    -1.4239029570977346E-026
  -2.8749999999999998E-002    -1.6913800921675165E-026
  -2.8700000000000000E-002    -1.5288889482019334E-026
  -2.8650000000000002E-002    -8.8824135808423936E-027
  -2.8600000000000000E-002     1.4319387431302704E-027
  -2.8549999999999999E-002     1.3493749953460763E-026
  -2.8500000000000001E-002     2.4360622386800134E-026
  -2.8450000000000000E-002     3.1113918304946717E-026
  -2.8400000000000002E-002     3.1695642251672787E-026
  -2.8350000000000000E-002     2.5467527648508143E-026
  -2.8299999999999999E-002     1.3275706860163266E-026
  -2.8250000000000001E-002    -2.9906495917501142E-027
  -2.8200000000000003E-002    -2.1116494231436842E-026
  -2.8150000000000001E-002    -3.9157878275998841E-026
  -2.8100000000000000E-002    -5.5535193942926718E-026
  -2.8049999999999999E-002    -6.8471967283655375E-026
  -2.8000000000000001E-002    -7.5021998465208612E-026
  -2.7950000000000003E-002    -7.0324300418247627E-026
  -2.7900000000000001E-002    -4.7912756216360579E-026
  -2.7850000000000000E-002    -1.7077968592371418E-027
  -2.7799999999999998E-002     7.0318800273167548E-026
  -2.7750000000000000E-002     1.6174189694053612E-025
  -2.7700000000000002E-002     2.5436263642046721E-025
  -2.7650000000000001E-002     3.1819485883154951E-025
  -2.7600000000000000E-002     3.1654067358418951E-025
  -2.7549999999999998E-002     2.1652528914272010E-025
  -2.7500000000000000E-002     3.3231001072275790E-027
  -2.7450000000000002E-002    -3.0592107580681911E-025
  -2.7400000000000001E-002    -6.5392882746629064E-025
  -2.7349999999999999E-002    -9.4619515000239791E-025
  -2.7299999999999998E-002    -1.0680972531236232E-024
  -2.7250000000000000E-002    -9.1530066474377976E-025
  -2.7200000000000002E-002    -4.3160834507727407E-025
  -2.7150000000000001E-002     3.5599590921473999E-025
  -2.7099999999999999E-002     1.3175147281029081E-024
  -2.7049999999999998E-002     2.2263612549161166E-024
  -2.7000000000000000E-002     2.7977868917100216E-024
  -2.6950000000000002E-002     2.7565877246926802E-024
  -2.6900000000000000E-002     1.9216476502956379E-024
  -2.6849999999999999E-002     2.8659320289327833E-025
  -2.6800000000000001E-002    -1.9282212815048631E-024
  -2.6749999999999999E-002    -4.2749531051371444E-024
  -2.6700000000000002E-002    -6.1420706810803807E-024
  -2.6650000000000000E-002    -6.8810168218771170E-024
  -2.6599999999999999E-002    -5.9760312644201770E-024
  -2.6550000000000001E-002    -3.2208048662158383E-024
  -2.6500000000000003E-002     1.1449433189050756E-024
  -2.6450000000000001E-002     6.3861525212780421E-024
  -2.6400000000000000E-002     1.1345147022402741E-023
  -2.6349999999999998E-002     1.4646366076387838E-023
  -2.6300000000000000E-002     1.5009562604877569E-023
  -2.6250000000000002E-002     1.1612675174266979E-023
  -2.6200000000000001E-002     4.4178948540404433E-024
  -2.6150000000000000E-002    -5.6360112916132845E-024
  -2.6099999999999998E-002    -1.6657906074379010E-023
  -2.6050000000000000E-002    -2.6086846188652503E-023
  -2.6000000000000002E-002    -3.1212406305421294E-023
  -2.5950000000000001E-002    -2.9841457386698840E-023
  -2.5899999999999999E-002    -2.0960436353404125E-023
  -2.5849999999999998E-002    -5.2137947119536953E-024
  -2.5800000000000000E-002     1.4962059834192124E-023
  -2.5750000000000002E-002     3.5640967297304211E-023
  -2.5700000000000001E-002     5.2129342706306242E-023
  -2.5649999999999999E-002     5.9973880798325290E-023
  -2.5599999999999998E-002     5.6025218146504805E-023
  -2.5550000000000000E-002     3.9292196635322904E-023
  -2.5500000000000002E-002     1.1361526749073671E-023
  -2.5450000000000000E-002    -2.3730609995858088E-023
  -2.5399999999999999E-002    -6.0139099198782526E-023
  -2.5349999999999998E-002    -9.1189591757494990E-023
  -2.5300000000000000E-002    -1.1045124437937889E-022
  -2.5250000000000002E-002    -1.1267884394958248E-022
  -2.5200000000000000E-002    -9.4510642956797619E-023
  -2.5149999999999999E-002    -5.4956778103599518E-023
  -2.5100000000000001E-002     4.1763019322634747E-024
  -2.5049999999999999E-002     7.7784967077334310E-023
  -2.5000000000000001E-002     1.5690400300594429E-022
  -2.4950000000000000E-002     2.2836100484847942E-022
  -2.4899999999999999E-002     2.7520300248213441E-022
  -2.4850000000000001E-002     2.7856107343045676E-022
  -2.4800000000000003E-002     2.2142073805697102E-022
  -2.4750000000000001E-002     9.4191089310768255E-023
  -2.4700000000000000E-002    -9.8904365284263663E-023
  -2.4649999999999998E-002    -3.3450220164887658E-022
  -2.4600000000000000E-002    -5.6830412821839723E-022
  -2.4550000000000002E-002    -7.3913709313558474E-022
  -2.4500000000000001E-002    -7.8009389238671414E-022
  -2.4450000000000000E-002    -6.3597319941477594E-022
  -2.4399999999999998E-002    -2.8374216122835592E-022
  -2.4350000000000000E-002     2.4949354020945862E-022
  -2.4299999999999999E-002     8.7762190861459372E-022
  -2.4250000000000001E-002     1.4615612555066231E-021
  -2.4199999999999999E-002     1.8330067078688385E-021
  -2.4150000000000001E-002     1.8338711548747477E-021
  -2.4100000000000000E-002     1.3638923388283443E-021
  -2.4049999999999998E-002     4.2429687900720195E-022
  -2.4000000000000000E-002    -8.5650410681637075E-022
  -2.3949999999999999E-002    -2.2271989190433686E-021
  -2.3900000000000001E-002    -3.3536440962971559E-021
  -2.3850000000000000E-002    -3.8911750645442499E-021
  -2.3800000000000002E-002    -3.5753508489975900E-021
  -2.3750000000000000E-002    -2.3091646177436897E-021
  -2.3699999999999999E-002    -2.2155388879386703E-022
  -2.3650000000000001E-002     2.3243033762700472E-021
  -2.3599999999999999E-002     4.7838901111658973E-021
  -2.3550000000000001E-002     6.5409978411483238E-021
  -2.3500000000000000E-002     7.0532398338878983E-021
  -2.3449999999999999E-002     5.9996563613909610E-021
  -2.3400000000000001E-002     3.3916564401898841E-021
  -2.3349999999999999E-002    -3.8628229769659109E-022
  -2.3300000000000001E-002    -4.6245805277163918E-021
  -2.3250000000000000E-002    -8.4219471240582350E-021
  -2.3199999999999998E-002    -1.0878103410547964E-020
  -2.3150000000000000E-002    -1.1302286256391379E-020
  -2.3099999999999999E-002    -9.3870229526039080E-021
  -2.3050000000000001E-002    -5.3030251466633994E-021
  -2.3000000000000000E-002     3.1058623015318598E-022
  -2.2950000000000002E-002     6.4605680589227295E-021
  -2.2900000000000000E-002     1.1992032657182920E-020
  -2.2849999999999999E-002     1.5813734020099711E-020
  -2.2800000000000001E-002     1.7104405701508097E-020
  -2.2749999999999999E-002     1.5456599011591607E-020
  -2.2700000000000001E-002     1.0934417026177901E-020
  -2.2650000000000000E-002     4.0466922978053656E-021
  -2.2599999999999999E-002    -4.3410410824039678E-021
  -2.2550000000000001E-002    -1.3121536706162432E-020
  -2.2499999999999999E-002    -2.1057397623859707E-020
  -2.2450000000000001E-002    -2.6876053760559070E-020
  -2.2400000000000000E-002    -2.9358567407793564E-020
  -2.2349999999999998E-002    -2.7451357933989298E-020
  -2.2300000000000000E-002    -2.0433725230329893E-020
  -2.2249999999999999E-002    -8.1553798274247338E-021
  -2.2200000000000001E-002     8.6812518094903919E-021
  -2.2150000000000000E-002     2.8269249790036528E-020
  -2.2100000000000002E-002     4.7593658963081401E-020
  -2.2050000000000000E-002     6.2606608960039695E-020
  -2.1999999999999999E-002     6.8778286709117407E-020
  -2.1950000000000001E-002     6.2034039072039606E-020
  -2.1899999999999999E-002     3.9961021474601182E-020
  -2.1850000000000001E-002     3.0292151377768725E-021
  -2.1800000000000000E-002    -4.4532921050890647E-020
  -2.1749999999999999E-002    -9.4592993927472213E-020
  -2.1700000000000001E-002    -1.3599345162486681E-019
  -2.1649999999999999E-002    -1.5653652434002753E-019
  -2.1600000000000001E-002    -1.4585265664170317E-019
  -2.1550000000000000E-002    -9.8601933186001971E-020
  -2.1499999999999998E-002    -1.7202950495478082E-020
  -2.1450000000000000E-002     8.6801421767279894E-020
  -2.1399999999999999E-002     1.9347473479593881E-019
  -2.1350000000000001E-002     2.7763438594249910E-019
  -2.1299999999999999E-002     3.1412845695483296E-019
  -2.1250000000000002E-002     2.8428709073279635E-019
  -2.1200000000000000E-002     1.8205215013891769E-019
  -2.1149999999999999E-002     1.8057208864848094E-020
  -2.1100000000000001E-002    -1.7985304336443346E-019
  -2.1049999999999999E-002    -3.7048723138433492E-019
  -2.1000000000000001E-002    -5.0732604458851571E-019
  -2.0950000000000000E-002    -5.4928450494602007E-019
  -2.0899999999999998E-002    -4.7181977669902859E-019
  -2.0850000000000000E-002    -2.7550704604281800E-019
  -2.0799999999999999E-002     1.0547904934525739E-020
  -2.0750000000000001E-002     3.3206791096282864E-019
  -2.0700000000000000E-002     6.1973806315271024E-019
  -2.0649999999999998E-002     8.0429395952102964E-019
  -2.0600000000000000E-002     8.3320574059694230E-019
  -2.0549999999999999E-002     6.8481610864753670E-019
  -2.0500000000000001E-002     3.7606529647653707E-019
  -2.0449999999999999E-002    -3.8680259408920862E-020
  -2.0400000000000001E-002    -4.7800264739091753E-019
  -2.0350000000000000E-002    -8.5087543316651875E-019
  -2.0299999999999999E-002    -1.0770401272497924E-018
  -2.0250000000000001E-002    -1.1052200042213969E-018
  -2.0199999999999999E-002    -9.2451863731708344E-019
  -2.0150000000000001E-002    -5.6612663346556443E-019
  -2.0100000000000000E-002    -9.5123427417148914E-020
  -2.0049999999999998E-002     4.0506838190629705E-019
  -2.0000000000000000E-002     8.5100425749705534E-019
  -1.9949999999999999E-002     1.1751395481147937E-018
  -1.9900000000000001E-002     1.3352416400341500E-018
  -1.9850000000000000E-002     1.3155895016185306E-018
  -1.9799999999999998E-002     1.1213172386519293E-018
  -1.9750000000000000E-002     7.6973099703128079E-019
  -1.9699999999999999E-002     2.8358889541294575E-019
  -1.9650000000000001E-002    -3.0960803992328304E-019
  -1.9599999999999999E-002    -9.7106032807433949E-019
  -1.9550000000000001E-002    -1.6394050002196144E-018
  -1.9500000000000000E-002    -2.2208257105022498E-018
  -1.9449999999999999E-002    -2.5883008523256220E-018
  -1.9400000000000001E-002    -2.5965356055375933E-018
  -1.9349999999999999E-002    -2.1148420022974850E-018
  -1.9300000000000001E-002    -1.0735583772728303E-018
  -1.9250000000000000E-002     4.8728292477125306E-019
  -1.9199999999999998E-002     2.3833514102961680E-018
  -1.9150000000000000E-002     4.2824076156254166E-018
  -1.9099999999999999E-002     5.7436878616779806E-018
  -1.9050000000000001E-002     6.3019727217968358E-018
  -1.9000000000000000E-002     5.5845174467371561E-018
  -1.8949999999999998E-002     3.4356942591464719E-018
  -1.8900000000000000E-002     1.5455035460172878E-020
  -1.8849999999999999E-002    -4.1629174565122626E-018
  -1.8800000000000001E-002    -8.2808287156557766E-018
  -1.8749999999999999E-002    -1.1354406981881652E-017
  -1.8700000000000001E-002    -1.2448291835644022E-017
  -1.8650000000000000E-002    -1.0920786372848336E-017
  -1.8599999999999998E-002    -6.6411767362688066E-018
  -1.8550000000000001E-002    -1.1653398119717030E-019
  -1.8499999999999999E-002     7.5212784962863964E-018
  -1.8450000000000001E-002     1.4688802984582332E-017
  -1.8400000000000000E-002     1.9665419275556065E-017
  -1.8349999999999998E-002     2.0989958095456523E-017
  -1.8300000000000000E-002     1.7850166333904384E-017
  -1.8249999999999999E-002     1.0365076354694114E-017
  -1.8200000000000001E-002    -3.2520276608996777E-019
  -1.8149999999999999E-002    -1.2208492467600325E-017
  -1.8100000000000002E-002    -2.2778561234616692E-017
  -1.8050000000000000E-002    -2.9572308132644835E-017
  -1.7999999999999999E-002    -3.0748169872675031E-017
  -1.7950000000000001E-002    -2.5566018562133876E-017
  -1.7899999999999999E-002    -1.4641316377784508E-017
  -1.7850000000000001E-002     1.0563483460218437E-019
  -1.7800000000000000E-002     1.5812670605864273E-017
  -1.7749999999999998E-002     2.9278651879797532E-017
  -1.7700000000000000E-002     3.7668262878344786E-017
  -1.7649999999999999E-002     3.9148334775709006E-017
  -1.7600000000000001E-002     3.3297204813996143E-017
  -1.7550000000000000E-002     2.1183672006061953E-017
  -1.7499999999999998E-002     5.0978906071004593E-018
  -1.7450000000000000E-002    -1.1990755416385473E-017
  -1.7399999999999999E-002    -2.7100271994158314E-017
  -1.7350000000000001E-002    -3.7847375986301123E-017
  -1.7299999999999999E-002    -4.2845161041496548E-017
  -1.7250000000000001E-002    -4.1798868800527049E-017
  -1.7200000000000000E-002    -3.5309654567750608E-017
  -1.7149999999999999E-002    -2.4491323024486093E-017
  -1.7100000000000001E-002    -1.0566621840145077E-017
  -1.7049999999999999E-002     5.3889050803408237E-018
  -1.7000000000000001E-002     2.2447529696079221E-017
  -1.6950000000000000E-002     3.9574293244062566E-017
  -1.6899999999999998E-002     5.5238245879104627E-017
  -1.6850000000000000E-002     6.7102072239270690E-017
  -1.6799999999999999E-002     7.2021940825161504E-017
  -1.6750000000000001E-002     6.6522047918377282E-017
  -1.6700000000000000E-002     4.7755354809150742E-017
  -1.6649999999999998E-002     1.4767830099142794E-017
  -1.6600000000000000E-002    -3.0293970112797121E-017
  -1.6549999999999999E-002    -8.1486796199771702E-017
  -1.6500000000000001E-002    -1.2930147903295877E-016
  -1.6449999999999999E-002    -1.6204574437977499E-016
  -1.6400000000000001E-002    -1.6829589513606031E-016
  -1.6350000000000000E-002    -1.3997923139792158E-016
  -1.6299999999999999E-002    -7.5350989676497363E-017
  -1.6250000000000001E-002     1.9007887054708010E-017
  -1.6199999999999999E-002     1.2795042922519873E-016
  -1.6150000000000001E-002     2.2972060754966826E-016
  -1.6100000000000000E-002     3.0001573041187342E-016
  -1.6049999999999998E-002     3.1746625297280092E-016
  -1.6000000000000000E-002     2.6934113084550146E-016
  -1.5949999999999999E-002     1.5603351530197206E-016
  -1.5900000000000001E-002    -7.0176933213492393E-018
  -1.5850000000000000E-002    -1.9082850633985467E-016
  -1.5799999999999998E-002    -3.5787916036936535E-016
  -1.5750000000000000E-002    -4.6981725142069699E-016
  -1.5699999999999999E-002    -4.9625401644863123E-016
  -1.5650000000000001E-002    -4.2259706834000546E-016
  -1.5599999999999999E-002    -2.5490384972552803E-016
  -1.5550000000000001E-002    -2.0295650752454924E-017
  -1.5500000000000000E-002     2.3752681122954771E-016
  -1.5449999999999998E-002     4.6693714098299432E-016
  -1.5400000000000000E-002     6.1938782326586047E-016
  -1.5349999999999999E-002     6.6024737197108110E-016
  -1.5300000000000001E-002     5.7686595870502189E-016
  -1.5250000000000000E-002     3.8184501305826680E-016
  -1.5199999999999998E-002     1.1061403735731488E-016
  -1.5150000000000000E-002    -1.8617761848862675E-016
  -1.5099999999999999E-002    -4.5362743501388386E-016
  -1.5050000000000001E-002    -6.4422480161679179E-016
  -1.4999999999999999E-002    -7.2732142515456220E-016
  -1.4949999999999998E-002    -6.9418245218276484E-016
  -1.4900000000000000E-002    -5.5759760014304875E-016
  -1.4849999999999999E-002    -3.4653891111035930E-016
  -1.4800000000000001E-002    -9.7707426499630334E-017
  -1.4749999999999999E-002     1.5337230111795390E-016
  -1.4700000000000001E-002     3.7905786472212126E-016
  -1.4650000000000000E-002     5.6226788336756590E-016
  -1.4599999999999998E-002     6.9475653155361433E-016
  -1.4550000000000000E-002     7.7219077302942259E-016
  -1.4499999999999999E-002     7.8848396271866142E-016
  -1.4450000000000001E-002     7.3225937185857750E-016
  -1.4400000000000000E-002     5.8775718658058658E-016
  -1.4349999999999998E-002     3.4092107413018681E-016
  -1.4300000000000000E-002    -1.0595773076289108E-017
  -1.4249999999999999E-002    -4.4671949668081684E-016
  -1.4200000000000001E-002    -9.1783356945644754E-016
  -1.4149999999999999E-002    -1.3453608273032183E-015
  -1.4099999999999998E-002    -1.6324521163349542E-015
  -1.4050000000000000E-002    -1.6843221981539299E-015
  -1.3999999999999999E-002    -1.4344637937537687E-015
  -1.3950000000000001E-002    -8.7016416553384265E-016
  -1.3899999999999999E-002    -4.9508759176502891E-017
  -1.3850000000000001E-002     8.9708832621162493E-016
  -1.3800000000000000E-002     1.7846053696256402E-015
  -1.3749999999999998E-002     2.4093241715247477E-015
  -1.3700000000000000E-002     2.5964862776220810E-015
  -1.3649999999999999E-002     2.2488775991858987E-015
  -1.3600000000000001E-002     1.3834225434890011E-015
  -1.3550000000000000E-002     1.4421794148317306E-016
  -1.3499999999999998E-002    -1.2149380088529492E-015
  -1.3450000000000000E-002    -2.3782813897100528E-015
  -1.3399999999999999E-002    -3.0377750325115915E-015
  -1.3350000000000001E-002    -2.9697026052733731E-015
  -1.3299999999999999E-002    -2.0995943690398560E-015
  -1.3249999999999998E-002    -5.3791914004495485E-016
  -1.3200000000000000E-002     1.4252201424860658E-015
  -1.3149999999999998E-002     3.3688798680483317E-015
  -1.3100000000000001E-002     4.8252672642758266E-015
  -1.3049999999999999E-002     5.3813164291220320E-015
  -1.3000000000000001E-002     4.7747648575491214E-015
  -1.2950000000000000E-002     2.9618695256905509E-015
  -1.2899999999999998E-002     1.3998330004274971E-016
  -1.2850000000000000E-002    -3.2812384034634062E-015
  -1.2799999999999999E-002    -6.7536978708437274E-015