  -4.0000000000000001E-002     0.0000000000000000     
  -3.9949999999999999E-002     0.0000000000000000     
  -3.9899999999999998E-002     0.0000000000000000     
  -3.9850000000000003E-002     0.0000000000000000     
  -3.9800000000000002E-002     0.0000000000000000     
  -3.9750000000000001E-002     0.0000000000000000     
  -3.9699999999999999E-002     0.0000000000000000     
  -3.9649999999999998E-002     0.0000000000000000     
  -3.9600000000000003E-002     0.0000000000000000     
  -3.9550000000000002E-002     0.0000000000000000     
  -3.9500000000000000E-002     0.0000000000000000     
  -3.9449999999999999E-002     0.0000000000000000     
  -3.9399999999999998E-002     0.0000000000000000     
  -3.9350000000000003E-002     0.0000000000000000     
  -3.9300000000000002E-002     0.0000000000000000     
  -3.9250000000000000E-002     0.0000000000000000     
  -3.9199999999999999E-002     0.0000000000000000     
  -3.9150000000000004E-002     0.0000000000000000     
  -3.9100000000000003E-002     0.0000000000000000     
  -3.9050000000000001E-002     0.0000000000000000     
  -3.9000000000000000E-002     0.0000000000000000     
  -3.8949999999999999E-002     0.0000000000000000     
  -3.8900000000000004E-002     0.0000000000000000     
  -3.8850000000000003E-002     0.0000000000000000     
  -3.8800000000000001E-002     0.0000000000000000     
  -3.8750000000000000E-002     0.0000000000000000     
  -3.8699999999999998E-002     0.0000000000000000     
  -3.8650000000000004E-002     0.0000000000000000     
  -3.8600000000000002E-002     0.0000000000000000     
  -3.8550000000000001E-002     0.0000000000000000     
  -3.8500000000000000E-002     0.0000000000000000     
  -3.8449999999999998E-002     0.0000000000000000     
  -3.8400000000000004E-002     0.0000000000000000     
  -3.8350000000000002E-002     0.0000000000000000     
  -3.8300000000000001E-002     0.0000000000000000     
  -3.8249999999999999E-002     0.0000000000000000     
  -3.8199999999999998E-002     0.0000000000000000     
  -3.8150000000000003E-002     0.0000000000000000     
  -3.8100000000000002E-002     0.0000000000000000     
  -3.8050000000000000E-002     0.0000000000000000     
  -3.7999999999999999E-002     0.0000000000000000     
  -3.7949999999999998E-002     0.0000000000000000     
  -3.7900000000000003E-002     0.0000000000000000     
  -3.7850000000000002E-002     0.0000000000000000     
  -3.7800000000000000E-002     0.0000000000000000     
  -3.7749999999999999E-002     0.0000000000000000     
  -3.7699999999999997E-002     0.0000000000000000     
  -3.7650000000000003E-002     0.0000000000000000     
  -3.7600000000000001E-002     0.0000000000000000     
  -3.7550000000000000E-002     0.0000000000000000     
  -3.7499999999999999E-002     0.0000000000000000     
  -3.7449999999999997E-002     0.0000000000000000     
  -3.7400000000000003E-002     0.0000000000000000     
  -3.7350000000000001E-002     0.0000000000000000     
  -3.7300000000000000E-002     0.0000000000000000     
  -3.7249999999999998E-002     0.0000000000000000     
  -3.7200000000000004E-002     0.0000000000000000     
  -3.7150000000000002E-002     0.0000000000000000     
  -3.7100000000000001E-002     0.0000000000000000     
  -3.7050000000000000E-002     0.0000000000000000     
  -3.6999999999999998E-002     0.0000000000000000     
  -3.6950000000000004E-002     0.0000000000000000     
  -3.6900000000000002E-002     0.0000000000000000     
  -3.6850000000000001E-002     0.0000000000000000     
  -3.6799999999999999E-002     0.0000000000000000     
  -3.6749999999999998E-002     0.0000000000000000     
  -3.6700000000000003E-002     0.0000000000000000     
  -3.6650000000000002E-002     0.0000000000000000     
  -3.6600000000000001E-002     0.0000000000000000     
  -3.6549999999999999E-002     0.0000000000000000     
  -3.6499999999999998E-002     0.0000000000000000     
  -3.6450000000000003E-002     0.0000000000000000     
  -3.6400000000000002E-002     0.0000000000000000     
  -3.6350000000000000E-002     0.0000000000000000     
  -3.6299999999999999E-002     0.0000000000000000     
  -3.6249999999999998E-002     0.0000000000000000     
  -3.6200000000000003E-002     0.0000000000000000     
  -3.6150000000000002E-002     0.0000000000000000     
  -3.6100000000000000E-002     0.0000000000000000     
  -3.6049999999999999E-002     0.0000000000000000     
  -3.6000000000000004E-002     0.0000000000000000     
  -3.5950000000000003E-002     0.0000000000000000     
  -3.5900000000000001E-002     0.0000000000000000     
  -3.5850000000000000E-002     0.0000000000000000     
  -3.5799999999999998E-002     0.0000000000000000     
  -3.5750000000000004E-002     0.0000000000000000     
  -3.5700000000000003E-002     0.0000000000000000     
  -3.5650000000000001E-002     0.0000000000000000     
  -3.5600000000000000E-002     0.0000000000000000     
  -3.5549999999999998E-002     0.0000000000000000     
  -3.5500000000000004E-002     0.0000000000000000     
  -3.5450000000000002E-002     0.0000000000000000     
  -3.5400000000000001E-002     0.0000000000000000     
  -3.5349999999999999E-002     0.0000000000000000     
  -3.5299999999999998E-002     0.0000000000000000     
  -3.5250000000000004E-002     0.0000000000000000     
  -3.5200000000000002E-002     0.0000000000000000     
  -3.5150000000000001E-002     0.0000000000000000     
  -3.5099999999999999E-002     0.0000000000000000     
  -3.5049999999999998E-002     0.0000000000000000     
  -3.5000000000000003E-002     0.0000000000000000     
  -3.4950000000000002E-002     0.0000000000000000     
  -3.4900000000000000E-002     0.0000000000000000     
  -3.4849999999999999E-002     0.0000000000000000     
  -3.4799999999999998E-002     0.0000000000000000     
  -3.4750000000000003E-002     0.0000000000000000     
  -3.4700000000000002E-002     0.0000000000000000     
  -3.4650000000000000E-002     0.0000000000000000     
  -3.4599999999999999E-002     0.0000000000000000     
  -3.4549999999999997E-002     0.0000000000000000     
  -3.4500000000000003E-002     0.0000000000000000     
  -3.4450000000000001E-002     0.0000000000000000     
  -3.4400000000000000E-002     0.0000000000000000     
  -3.4349999999999999E-002     0.0000000000000000     
  -3.4299999999999997E-002     0.0000000000000000     
  -3.4250000000000003E-002     0.0000000000000000     
  -3.4200000000000001E-002     0.0000000000000000     
  -3.4150000000000000E-002     0.0000000000000000     
  -3.4099999999999998E-002     0.0000000000000000     
  -3.4049999999999997E-002     0.0000000000000000     
  -3.4000000000000002E-002     0.0000000000000000     
  -3.3950000000000001E-002     0.0000000000000000     
  -3.3900000000000000E-002     0.0000000000000000     
  -3.3849999999999998E-002     0.0000000000000000     
  -3.3799999999999997E-002     0.0000000000000000     
  -3.3750000000000002E-002     0.0000000000000000     
  -3.3700000000000001E-002     0.0000000000000000     
  -3.3649999999999999E-002     0.0000000000000000     
  -3.3599999999999998E-002     0.0000000000000000     
  -3.3550000000000003E-002     0.0000000000000000     
  -3.3500000000000002E-002     0.0000000000000000     
  -3.3450000000000001E-002     0.0000000000000000     
  -3.3399999999999999E-002     0.0000000000000000     
  -3.3349999999999998E-002     0.0000000000000000     
  -3.3300000000000003E-002     0.0000000000000000     
  -3.3250000000000002E-002     0.0000000000000000     
  -3.3200000000000000E-002     0.0000000000000000     
  -3.3149999999999999E-002     0.0000000000000000     
  -3.3099999999999997E-002     0.0000000000000000     
  -3.3050000000000003E-002     0.0000000000000000     
  -3.3000000000000002E-002     0.0000000000000000     
  -3.2950000000000000E-002     0.0000000000000000     
  -3.2899999999999999E-002     0.0000000000000000     
  -3.2850000000000004E-002     0.0000000000000000     
  -3.2800000000000003E-002     0.0000000000000000     
  -3.2750000000000001E-002     0.0000000000000000     
  -3.2700000000000000E-002     0.0000000000000000     
  -3.2649999999999998E-002     0.0000000000000000     
  -3.2600000000000004E-002     0.0000000000000000     
  -3.2550000000000003E-002     0.0000000000000000     
  -3.2500000000000001E-002     0.0000000000000000     
  -3.2450000000000000E-002     0.0000000000000000     
  -3.2399999999999998E-002     0.0000000000000000     
  -3.2350000000000004E-002     0.0000000000000000     
  -3.2300000000000002E-002     0.0000000000000000     
  -3.2250000000000001E-002     0.0000000000000000     
  -3.2199999999999999E-002     0.0000000000000000     
  -3.2149999999999998E-002     0.0000000000000000     
  -3.2100000000000004E-002     0.0000000000000000     
  -3.2050000000000002E-002     0.0000000000000000     
  -3.2000000000000001E-002     0.0000000000000000     
  -3.1949999999999999E-002     0.0000000000000000     
  -3.1899999999999998E-002     0.0000000000000000     
  -3.1850000000000003E-002     0.0000000000000000     
  -3.1800000000000002E-002     0.0000000000000000     
  -3.1750000000000000E-002     0.0000000000000000     
  -3.1699999999999999E-002     0.0000000000000000     
  -3.1649999999999998E-002     0.0000000000000000     
  -3.1600000000000003E-002     0.0000000000000000     
  -3.1550000000000002E-002     0.0000000000000000     
  -3.1500000000000000E-002     0.0000000000000000     
  -3.1449999999999999E-002     0.0000000000000000     
  -3.1399999999999997E-002     0.0000000000000000     
  -3.1350000000000003E-002     0.0000000000000000     
  -3.1300000000000001E-002     0.0000000000000000     
  -3.1250000000000000E-002     0.0000000000000000     
  -3.1199999999999999E-002     0.0000000000000000     
  -3.1150000000000001E-002     0.0000000000000000     
  -3.1100000000000003E-002     0.0000000000000000     
  -3.1050000000000001E-002     0.0000000000000000     
  -3.1000000000000000E-002     0.0000000000000000     
  -3.0949999999999998E-002     0.0000000000000000     
  -3.0900000000000000E-002     0.0000000000000000     
  -3.0850000000000002E-002     0.0000000000000000     
  -3.0800000000000001E-002     0.0000000000000000     
  -3.0750000000000000E-002     0.0000000000000000     
  -3.0699999999999998E-002     0.0000000000000000     
  -3.0650000000000000E-002     0.0000000000000000     
  -3.0600000000000002E-002     0.0000000000000000     
  -3.0550000000000001E-002     0.0000000000000000     
  -3.0499999999999999E-002     0.0000000000000000     
  -3.0449999999999998E-002     0.0000000000000000     
  -3.0400000000000000E-002     0.0000000000000000     
  -3.0350000000000002E-002     0.0000000000000000     
  -3.0300000000000001E-002     0.0000000000000000     
  -3.0249999999999999E-002     0.0000000000000000     
  -3.0200000000000001E-002     0.0000000000000000     
  -3.0150000000000000E-002     0.0000000000000000     
  -3.0100000000000002E-002     0.0000000000000000     
  -3.0050000000000000E-002     0.0000000000000000     
  -2.9999999999999999E-002     0.0000000000000000     
  -2.9950000000000001E-002     0.0000000000000000     
  -2.9899999999999999E-002     0.0000000000000000     
  -2.9850000000000002E-002     0.0000000000000000     
  -2.9800000000000000E-002     0.0000000000000000     
  -2.9749999999999999E-002     0.0000000000000000     
  -2.9700000000000001E-002     0.0000000000000000     
  -2.9650000000000003E-002     0.0000000000000000     
  -2.9600000000000001E-002     0.0000000000000000     
  -2.9550000000000000E-002     0.0000000000000000     
  -2.9499999999999998E-002     0.0000000000000000     
  -2.9450000000000000E-002     0.0000000000000000     
  -2.9400000000000003E-002     0.0000000000000000     
  -2.9350000000000001E-002     0.0000000000000000     
  -2.9300000000000000E-002     0.0000000000000000     
  -2.9249999999999998E-002     0.0000000000000000     
  -2.9200000000000000E-002     0.0000000000000000     
  -2.9150000000000002E-002     0.0000000000000000     
  -2.9100000000000001E-002     0.0000000000000000     
  -2.9049999999999999E-002     0.0000000000000000     
  -2.8999999999999998E-002     0.0000000000000000     
  -2.8950000000000000E-002     0.0000000000000000     
  -2.8900000000000002E-002     0.0000000000000000     
  -2.8850000000000001E-002     0.0000000000000000     
  -2.8799999999999999E-002     0.0000000000000000     
  -2.8749999999999998E-002     0.0000000000000000     
  -2.8700000000000000E-002     0.0000000000000000     
  -2.8650000000000002E-002     0.0000000000000000     
  -2.8600000000000000E-002     0.0000000000000000     
  -2.8549999999999999E-002     0.0000000000000000     
  -2.8500000000000001E-002     0.0000000000000000     
  -2.8450000000000000E-002     0.0000000000000000     
  -2.8400000000000002E-002     0.0000000000000000     
  -2.8350000000000000E-002     0.0000000000000000     
  -2.8299999999999999E-002     0.0000000000000000     
  -2.8250000000000001E-002     0.0000000000000000     
  -2.8200000000000003E-002     0.0000000000000000     
  -2.8150000000000001E-002     0.0000000000000000     
  -2.8100000000000000E-002     0.0000000000000000     
  -2.8049999999999999E-002     0.0000000000000000     
  -2.8000000000000001E-002     0.0000000000000000     
  -2.7950000000000003E-002     0.0000000000000000     
  -2.7900000000000001E-002     0.0000000000000000     
  -2.7850000000000000E-002     0.0000000000000000     
  -2.7799999999999998E-002     0.0000000000000000     
  -2.7750000000000000E-002     0.0000000000000000     
  -2.7700000000000002E-002     0.0000000000000000     
  -2.7650000000000001E-002     0.0000000000000000     
  -2.7600000000000000E-002     0.0000000000000000     
  -2.7549999999999998E-002     0.0000000000000000     
  -2.7500000000000000E-002     0.0000000000000000     
  -2.7450000000000002E-002     0.0000000000000000     
  -2.7400000000000001E-002     0.0000000000000000     
  -2.7349999999999999E-002     0.0000000000000000     
  -2.7299999999999998E-002     0.0000000000000000     
  -2.7250000000000000E-002     0.0000000000000000     
  -2.7200000000000002E-002     0.0000000000000000     
  -2.7150000000000001E-002     0.0000000000000000     
  -2.7099999999999999E-002     0.0000000000000000     
  -2.7049999999999998E-002     0.0000000000000000     
  -2.7000000000000000E-002     0.0000000000000000     
  -2.6950000000000002E-002     0.0000000000000000     
  -2.6900000000000000E-002     0.0000000000000000     
  -2.6849999999999999E-002     0.0000000000000000     
  -2.6800000000000001E-002     0.0000000000000000     
  -2.6749999999999999E-002     0.0000000000000000     
  -2.6700000000000002E-002     0.0000000000000000     
  -2.6650000000000000E-002     0.0000000000000000     
  -2.6599999999999999E-002     0.0000000000000000     
  -2.6550000000000001E-002     0.0000000000000000     
  -2.6500000000000003E-002     0.0000000000000000     
  -2.6450000000000001E-002     0.0000000000000000     
  -2.6400000000000000E-002     0.0000000000000000     
  -2.6349999999999998E-002     0.0000000000000000     
  -2.6300000000000000E-002     0.0000000000000000     
  -2.6250000000000002E-002     0.0000000000000000     
  -2.6200000000000001E-002     0.0000000000000000     
  -2.6150000000000000E-002     0.0000000000000000     
  -2.6099999999999998E-002     0.0000000000000000     
  -2.6050000000000000E-002     0.0000000000000000     
  -2.6000000000000002E-002     0.0000000000000000     
  -2.5950000000000001E-002     0.0000000000000000     
  -2.5899999999999999E-002     0.0000000000000000     
  -2.5849999999999998E-002     0.0000000000000000     
  -2.5800000000000000E-002     0.0000000000000000     
  -2.5750000000000002E-002     0.0000000000000000     
  -2.5700000000000001E-002     0.0000000000000000     
  -2.5649999999999999E-002     0.0000000000000000     
  -2.5599999999999998E-002     0.0000000000000000     
  -2.5550000000000000E-002     0.0000000000000000     
  -2.5500000000000002E-002     0.0000000000000000     
  -2.5450000000000000E-002     0.0000000000000000     
  -2.5399999999999999E-002     0.0000000000000000     
  -2.5349999999999998E-002     0.0000000000000000     
  -2.5300000000000000E-002     0.0000000000000000     
  -2.5250000000000002E-002     0.0000000000000000     
  -2.5200000000000000E-002     0.0000000000000000     
  -2.5149999999999999E-002     0.0000000000000000     
  -2.5100000000000001E-002     0.0000000000000000     
  -2.5049999999999999E-002     0.0000000000000000     
  -2.5000000000000001E-002     0.0000000000000000     
  -2.4950000000000000E-002     0.0000000000000000     
  -2.4899999999999999E-002     0.0000000000000000     
  -2.4850000000000001E-002     0.0000000000000000     
  -2.4800000000000003E-002     0.0000000000000000     
  -2.4750000000000001E-002     0.0000000000000000     
  -2.4700000000000000E-002     0.0000000000000000     
  -2.4649999999999998E-002     0.0000000000000000     
  -2.4600000000000000E-002     0.0000000000000000     
  -2.4550000000000002E-002     0.0000000000000000     
  -2.4500000000000001E-002     0.0000000000000000     
  -2.4450000000000000E-002     0.0000000000000000     
  -2.4399999999999998E-002     0.0000000000000000     
  -2.4350000000000000E-002     0.0000000000000000     
  -2.4299999999999999E-002     0.0000000000000000     
  -2.4250000000000001E-002     0.0000000000000000     
  -2.4199999999999999E-002     0.0000000000000000     
  -2.4150000000000001E-002     0.0000000000000000     
  -2.4100000000000000E-002     0.0000000000000000     
  -2.4049999999999998E-002     0.0000000000000000     
  -2.4000000000000000E-002     0.0000000000000000     
  -2.3949999999999999E-002     0.0000000000000000     
  -2.3900000000000001E-002     0.0000000000000000     
  -2.3850000000000000E-002     0.0000000000000000     
  -2.3800000000000002E-002     0.0000000000000000     
  -2.3750000000000000E-002     0.0000000000000000     
  -2.3699999999999999E-002     0.0000000000000000     
  -2.3650000000000001E-002     0.0000000000000000     
  -2.3599999999999999E-002     0.0000000000000000     
  -2.3550000000000001E-002     0.0000000000000000     
  -2.3500000000000000E-002     0.0000000000000000     
  -2.3449999999999999E-002     0.0000000000000000     
  -2.3400000000000001E-002     0.0000000000000000     
  -2.3349999999999999E-002     0.0000000000000000     
  -2.3300000000000001E-002     0.0000000000000000     
  -2.3250000000000000E-002     0.0000000000000000     
  -2.3199999999999998E-002     0.0000000000000000     
  -2.3150000000000000E-002     0.0000000000000000     
  -2.3099999999999999E-002     0.0000000000000000     
  -2.3050000000000001E-002     0.0000000000000000     
  -2.3000000000000000E-002     0.0000000000000000     
  -2.2950000000000002E-002     0.0000000000000000     
  -2.2900000000000000E-002     0.0000000000000000     
  -2.2849999999999999E-002     0.0000000000000000     
  -2.2800000000000001E-002     0.0000000000000000     
  -2.2749999999999999E-002     0.0000000000000000     
  -2.2700000000000001E-002     0.0000000000000000     
  -2.2650000000000000E-002     0.0000000000000000     
  -2.2599999999999999E-002     0.0000000000000000     
  -2.2550000000000001E-002     0.0000000000000000     
  -2.2499999999999999E-002     0.0000000000000000     
  -2.2450000000000001E-002     0.0000000000000000     
  -2.2400000000000000E-002     0.0000000000000000     
  -2.2349999999999998E-002     0.0000000000000000     
  -2.2300000000000000E-002     0.0000000000000000     
  -2.2249999999999999E-002     0.0000000000000000     
  -2.2200000000000001E-002     0.0000000000000000     
  -2.2150000000000000E-002     0.0000000000000000     
  -2.2100000000000002E-002     0.0000000000000000     
  -2.2050000000000000E-002     0.0000000000000000     
  -2.1999999999999999E-002     0.0000000000000000     
  -2.1950000000000001E-002     0.0000000000000000     
  -2.1899999999999999E-002     0.0000000000000000     
  -2.1850000000000001E-002     0.0000000000000000     
  -2.1800000000000000E-002     0.0000000000000000     
  -2.1749999999999999E-002     0.0000000000000000     
  -2.1700000000000001E-002     0.0000000000000000     
  -2.1649999999999999E-002     0.0000000000000000     
  -2.1600000000000001E-002     0.0000000000000000     
  -2.1550000000000000E-002     0.0000000000000000     
  -2.1499999999999998E-002     0.0000000000000000     
  -2.1450000000000000E-002     0.0000000000000000     
  -2.1399999999999999E-002     0.0000000000000000     
  -2.1350000000000001E-002     0.0000000000000000     
  -2.1299999999999999E-002     0.0000000000000000     
  -2.1250000000000002E-002     0.0000000000000000     
  -2.1200000000000000E-002     0.0000000000000000     
  -2.1149999999999999E-002     0.0000000000000000     
  -2.1100000000000001E-002     0.0000000000000000     
  -2.1049999999999999E-002     0.0000000000000000     
  -2.1000000000000001E-002     0.0000000000000000     
  -2.0950000000000000E-002     0.0000000000000000     
  -2.0899999999999998E-002     0.0000000000000000     
  -2.0850000000000000E-002     0.0000000000000000     
  -2.0799999999999999E-002     0.0000000000000000     
  -2.0750000000000001E-002     0.0000000000000000     
  -2.0700000000000000E-002     0.0000000000000000     
  -2.0649999999999998E-002     0.0000000000000000     
  -2.0600000000000000E-002     0.0000000000000000     
  -2.0549999999999999E-002     0.0000000000000000     
  -2.0500000000000001E-002     0.0000000000000000     
  -2.0449999999999999E-002     0.0000000000000000     
  -2.0400000000000001E-002     0.0000000000000000     
  -2.0350000000000000E-002     0.0000000000000000     
  -2.0299999999999999E-002     0.0000000000000000     
  -2.0250000000000001E-002     0.0000000000000000     
  -2.0199999999999999E-002     0.0000000000000000     
  -2.0150000000000001E-002     0.0000000000000000     
  -2.0100000000000000E-002     0.0000000000000000     
  -2.0049999999999998E-002     0.0000000000000000     
  -2.0000000000000000E-002     0.0000000000000000     
  -1.9949999999999999E-002     0.0000000000000000     
  -1.9900000000000001E-002     0.0000000000000000     
  -1.9850000000000000E-002     0.0000000000000000     
  -1.9799999999999998E-002     0.0000000000000000     
  -1.9750000000000000E-002     0.0000000000000000     
  -1.9699999999999999E-002     0.0000000000000000     
  -1.9650000000000001E-002     0.0000000000000000     
  -1.9599999999999999E-002     0.0000000000000000     
  -1.9550000000000001E-002     0.0000000000000000     
  -1.9500000000000000E-002     0.0000000000000000     
  -1.9449999999999999E-002     0.0000000000000000     
  -1.9400000000000001E-002     0.0000000000000000     
  -1.9349999999999999E-002     0.0000000000000000     
  -1.9300000000000001E-002     0.0000000000000000     
  -1.9250000000000000E-002     0.0000000000000000     
  -1.9199999999999998E-002     0.0000000000000000     
  -1.9150000000000000E-002     0.0000000000000000     
  -1.9099999999999999E-002     0.0000000000000000     
  -1.9050000000000001E-002     0.0000000000000000     
  -1.9000000000000000E-002     0.0000000000000000     
  -1.8949999999999998E-002     0.0000000000000000     
  -1.8900000000000000E-002     0.0000000000000000     
  -1.8849999999999999E-002     0.0000000000000000     
  -1.8800000000000001E-002     0.0000000000000000     
  -1.8749999999999999E-002     0.0000000000000000     
  -1.8700000000000001E-002     0.0000000000000000     
  -1.8650000000000000E-002     0.0000000000000000     
  -1.8599999999999998E-002     0.0000000000000000     
  -1.8550000000000001E-002     0.0000000000000000     
  -1.8499999999999999E-002     0.0000000000000000     
  -1.8450000000000001E-002     0.0000000000000000     
  -1.8400000000000000E-002     0.0000000000000000     
  -1.8349999999999998E-002     0.0000000000000000     
  -1.8300000000000000E-002     0.0000000000000000     
  -1.8249999999999999E-002     0.0000000000000000     
  -1.8200000000000001E-002     0.0000000000000000     
  -1.8149999999999999E-002     0.0000000000000000     
  -1.8100000000000002E-002     0.0000000000000000     
  -1.8050000000000000E-002     0.0000000000000000     
  -1.7999999999999999E-002     0.0000000000000000     
  -1.7950000000000001E-002     0.0000000000000000     
  -1.7899999999999999E-002     0.0000000000000000     
  -1.7850000000000001E-002     0.0000000000000000     
  -1.7800000000000000E-002     0.0000000000000000     
  -1.7749999999999998E-002     0.0000000000000000     
  -1.7700000000000000E-002     0.0000000000000000     
  -1.7649999999999999E-002     0.0000000000000000     
  -1.7600000000000001E-002     0.0000000000000000     
  -1.7550000000000000E-002     0.0000000000000000     
  -1.7499999999999998E-002     0.0000000000000000     
  -1.7450000000000000E-002     0.0000000000000000     
  -1.7399999999999999E-002     0.0000000000000000     
  -1.7350000000000001E-002     0.0000000000000000     
  -1.7299999999999999E-002     0.0000000000000000     
  -1.7250000000000001E-002     0.0000000000000000     
  -1.7200000000000000E-002     0.0000000000000000     
  -1.7149999999999999E-002     0.0000000000000000     
  -1.7100000000000001E-002     0.0000000000000000     
  -1.7049999999999999E-002     0.0000000000000000     
  -1.7000000000000001E-002     0.0000000000000000     
  -1.6950000000000000E-002     0.0000000000000000     
  -1.6899999999999998E-002     0.0000000000000000     
  -1.6850000000000000E-002     0.0000000000000000     
  -1.6799999999999999E-002     0.0000000000000000     
  -1.6750000000000001E-002     0.0000000000000000     
  -1.6700000000000000E-002     2.3810184187331878E-039
  -1.6649999999999998E-002     5.5792889375518808E-039
  -1.6600000000000000E-002     7.4207318838571960E-039
  -1.6549999999999999E-002     1.8932698084134318E-039
  -1.6500000000000001E-002    -9.4406157473744792E-039
  -1.6449999999999999E-002    -2.1711938624343738E-038
  -1.6400000000000001E-002    -2.9957828450506766E-038
  -1.6350000000000000E-002    -2.5890987859296636E-038
  -1.6299999999999999E-002    -6.2685877795539292E-039
  -1.6250000000000001E-002     4.0185695138097990E-038
  -1.6199999999999999E-002     9.1481950311782570E-038
  -1.6150000000000001E-002     1.2359483734944156E-037
  -1.6100000000000000E-002     1.0353833858253579E-037
  -1.6049999999999998E-002     2.9794347464116239E-038
  -1.6000000000000000E-002    -8.0430619595602936E-038
  -1.5949999999999999E-002    -1.8916239761518037E-037
  -1.5900000000000001E-002    -2.4281108920185322E-037
  -1.5850000000000000E-002    -2.1087817722482286E-037
  -1.5799999999999998E-002    -9.5245265289131505E-038
  -1.5750000000000000E-002     5.5302235968841657E-038
  -1.5699999999999999E-002     1.9364046761615150E-037
  -1.5650000000000001E-002     2.7515962500511070E-037
  -1.5599999999999999E-002     2.8203534764344846E-037
  -1.5550000000000001E-002     1.9656758082470968E-037
  -1.5500000000000000E-002     8.8038612230874759E-038
  -1.5449999999999998E-002    -2.7285295364207417E-038
  -1.5400000000000000E-002    -1.2913288502896107E-037
  -1.5349999999999999E-002    -2.2014720244290509E-037
  -1.5300000000000001E-002    -2.9932030676728448E-037
  -1.5250000000000000E-002    -3.6153444367639047E-037
  -1.5199999999999998E-002    -4.0017820490846775E-037
  -1.5150000000000000E-002    -3.8239531381472883E-037
  -1.5099999999999999E-002    -2.8716584896724541E-037
  -1.5050000000000001E-002    -7.5335575708078584E-038
  -1.4999999999999999E-002     2.6279203574062115E-037
  -1.4949999999999998E-002     7.2657342236390334E-037
  -1.4900000000000000E-002     1.2497225749867748E-036
  -1.4849999999999999E-002     1.6973630833321341E-036
  -1.4800000000000001E-002     1.8620533715059461E-036
  -1.4749999999999999E-002     1.5214430706343174E-036
  -1.4700000000000001E-002     5.0131455478591990E-037
  -1.4650000000000000E-002    -1.2097729416328554E-036
  -1.4599999999999998E-002    -3.3623910615808981E-036
  -1.4550000000000000E-002    -5.4012238637644639E-036
  -1.4499999999999999E-002    -6.5339837886445966E-036
  -1.4450000000000001E-002    -5.9374627335444997E-036
  -1.4400000000000000E-002    -3.0686173550186391E-036
  -1.4349999999999998E-002     2.0048656408876012E-036
  -1.4300000000000000E-002     8.3868484344339702E-036
  -1.4249999999999999E-002     1.4372707686726185E-035
  -1.4200000000000001E-002     1.7781865362015301E-035
  -1.4149999999999999E-002     1.6578326560298475E-035
  -1.4099999999999998E-002     9.6288241044253982E-036
  -1.4050000000000000E-002    -2.6137758998964252E-036
  -1.3999999999999999E-002    -1.7805152324277129E-035
  -1.3950000000000001E-002    -3.1963103782956370E-035
  -1.3899999999999999E-002    -4.0347096261862926E-035
  -1.3850000000000001E-002    -3.8811739622494526E-035
  -1.3800000000000000E-002    -2.5283860994766444E-035
  -1.3749999999999998E-002    -8.9451421310413199E-037
  -1.3700000000000000E-002     2.9678955953956765E-035
  -1.3649999999999999E-002     5.8925323817805704E-035
  -1.3600000000000001E-002     7.8223440037694950E-035
  -1.3550000000000000E-002     8.0193207234315834E-035
  -1.3499999999999998E-002     6.1026819831133980E-035
  -1.3450000000000000E-002     2.2075488566678881E-035
  -1.3399999999999999E-002    -2.9873158166264966E-035
  -1.3350000000000001E-002    -8.3820185965603647E-035
  -1.3299999999999999E-002    -1.2700798468628524E-034
  -1.3249999999999998E-002    -1.4792002255463093E-034
  -1.3200000000000000E-002    -1.3896888406243009E-034
  -1.3149999999999998E-002    -9.8148075458927293E-035
  -1.3100000000000001E-002    -2.9335220795842506E-035
  -1.3049999999999999E-002     5.8538922819688176E-035
  -1.3000000000000001E-002     1.5284038061744986E-034
  -1.2950000000000000E-002     2.3842820830880322E-034
  -1.2899999999999998E-002     2.9839215192559115E-034
  -1.2850000000000000E-002     3.1469327780492144E-034
  -1.2799999999999999E-002     2.6969916632217088E-034