  -4.0000000000000001E-002     0.0000000000000000     
  -3.9949999999999999E-002     0.0000000000000000     
  -3.9899999999999998E-002     0.0000000000000000     
  -3.9850000000000003E-002     0.0000000000000000     
  -3.9800000000000002E-002     0.0000000000000000     
  -3.9750000000000001E-002     0.0000000000000000     
  -3.9699999999999999E-002     0.0000000000000000     
  -3.9649999999999998E-002     0.0000000000000000     
  -3.9600000000000003E-002     0.0000000000000000     
  -3.9550000000000002E-002     0.0000000000000000     
  -3.9500000000000000E-002     0.0000000000000000     
  -3.9449999999999999E-002     0.0000000000000000     
  -3.9399999999999998E-002     0.0000000000000000     
  -3.9350000000000003E-002     0.0000000000000000     
  -3.9300000000000002E-002     0.0000000000000000     
  -3.9250000000000000E-002     0.0000000000000000     
  -3.9199999999999999E-002     0.0000000000000000     
  -3.9150000000000004E-002     0.0000000000000000     
  -3.9100000000000003E-002     0.0000000000000000     
  -3.9050000000000001E-002     0.0000000000000000     
  -3.9000000000000000E-002     0.0000000000000000     
  -3.8949999999999999E-002     0.0000000000000000     
  -3.8900000000000004E-002     0.0000000000000000     
  -3.8850000000000003E-002     0.0000000000000000     
  -3.8800000000000001E-002     0.0000000000000000     
  -3.8750000000000000E-002     0.0000000000000000     
  -3.8699999999999998E-002     0.0000000000000000     
  -3.8650000000000004E-002     0.0000000000000000     
  -3.8600000000000002E-002     0.0000000000000000     
  -3.8550000000000001E-002     1.0400297518212587E-039
  -3.8500000000000000E-002     5.7965084186118049E-039
  -3.8449999999999998E-002     1.5055482751999705E-038
  -3.8400000000000004E-002     2.4665648885637742E-038
  -3.8350000000000002E-002     1.1099115972450587E-038
  -3.8300000000000001E-002    -9.2558680378597773E-038
  -3.8249999999999999E-002    -4.4128631195596062E-037
  -3.8199999999999998E-002    -1.2966892425140965E-036
  -3.8150000000000003E-002    -2.8733678949266539E-036
  -3.8100000000000002E-002    -4.7533768522703097E-036
  -3.8050000000000000E-002    -4.4819946961651711E-036
  -3.7999999999999999E-002     4.6448350027628839E-036
  -3.7949999999999998E-002     3.5500117444407604E-035
  -3.7900000000000003E-002     1.0489624266900019E-034
  -3.7850000000000002E-002     2.1971141465710977E-034
  -3.7800000000000000E-002     3.4174560516066395E-034
  -3.7749999999999999E-002     3.2756094567514082E-034
  -3.7699999999999997E-002    -1.3702042917936912E-034
  -3.7650000000000003E-002    -1.5400389107309762E-033
  -3.7600000000000001E-002    -4.3521757281589130E-033
  -3.7550000000000000E-002    -8.4712031861072203E-033
  -3.7499999999999999E-002    -1.2208676071997334E-032
  -3.7449999999999997E-002    -1.1032843588691649E-032
  -3.7400000000000003E-002     3.1109476898323490E-033
  -3.7350000000000001E-002     4.0293405596838782E-032
  -3.7300000000000000E-002     1.0680026215144581E-031
  -3.7249999999999998E-002     1.9359392396716411E-031
  -3.7200000000000004E-002     2.6046184622645900E-031
  -3.7150000000000002E-002     2.2285548598074855E-031
  -3.7100000000000001E-002    -4.4392249679112708E-032
  -3.7050000000000000E-002    -6.6723476016995656E-031
  -3.6999999999999998E-002    -1.6807468255961392E-030
  -3.6950000000000004E-002    -2.8890876772429351E-030
  -3.6900000000000002E-002    -3.7186357750932922E-030
  -3.6850000000000001E-002    -3.1559971736168193E-030
  -3.6799999999999999E-002     9.6874766047900746E-032
  -3.6749999999999998E-002     7.1228299666477231E-030
  -3.6700000000000003E-002     1.7905614961627755E-029
  -3.6650000000000002E-002     3.0214532603959106E-029
  -3.6600000000000001E-002     3.8681636583121167E-029
  -3.6549999999999999E-002     3.4758517229376672E-029
  -3.6499999999999998E-002     8.3479315497420354E-030
  -3.6450000000000003E-002    -4.8312593712662634E-029
  -3.6400000000000002E-002    -1.3461172961328859E-028
  -3.6350000000000000E-002    -2.3460149152397033E-028
  -3.6299999999999999E-002    -3.1174821951250524E-028
  -3.6249999999999998E-002    -3.0928085538871885E-028
  -3.6200000000000003E-002    -1.6044073609221794E-028
  -3.6150000000000002E-002     1.8828451616622268E-028
  -3.6100000000000000E-002     7.4149610095293718E-028
  -3.6049999999999999E-002     1.4137091940543630E-027
  -3.6000000000000004E-002     1.9979475891092074E-027
  -3.5950000000000003E-002     2.1671903744064091E-027
  -3.5900000000000001E-002     1.5342698495033655E-027
  -3.5850000000000000E-002    -2.1320901136926117E-028
  -3.5799999999999998E-002    -3.1122135449079672E-027
  -3.5750000000000004E-002    -6.7096203226770256E-027
  -3.5700000000000003E-002    -9.9334298896106894E-027
  -3.5650000000000001E-002    -1.1179383823577653E-026
  -3.5600000000000000E-002    -8.7204007559537583E-027
  -3.5549999999999998E-002    -1.4447392399408580E-027
  -3.5500000000000004E-002     1.0251269337518155E-026
  -3.5450000000000002E-002     2.3796515074730565E-026
  -3.5400000000000001E-002     3.4509051617475280E-026
  -3.5349999999999999E-002     3.6800937835008433E-026
  -3.5299999999999998E-002     2.6527756045625821E-026
  -3.5250000000000004E-002     3.8096080412608012E-027
  -3.5200000000000002E-002    -2.5051376756283812E-026
  -3.5150000000000001E-002    -4.8230646877653876E-026
  -3.5099999999999999E-002    -5.2731735324339446E-026
  -3.5049999999999998E-002    -3.1922640672958463E-026
  -3.5000000000000003E-002     6.5734139144781730E-027
  -3.4950000000000002E-002     3.7467221307264304E-026
  -3.4900000000000000E-002     2.3909050734082994E-026
  -3.4849999999999999E-002    -6.4702524894831165E-026
  -3.4799999999999998E-002    -2.2700765301009415E-025
  -3.4750000000000003E-002    -4.0715611544578344E-025
  -3.4700000000000002E-002    -4.9140635782217806E-025
  -3.4650000000000000E-002    -3.3782137599440060E-025
  -3.4599999999999999E-002     1.5848370145414842E-025
  -3.4549999999999997E-002     9.8154897051581068E-025
  -3.4500000000000003E-002     1.9293778985599174E-024
  -3.4450000000000001E-002     2.6137861521978200E-024
  -3.4400000000000000E-002     2.5591245894008830E-024
  -3.4349999999999999E-002     1.3955428684990685E-024
  -3.4299999999999997E-002    -9.1168325532079092E-025
  -3.4250000000000003E-002    -3.9017135667197868E-024
  -3.4200000000000001E-002    -6.6400433785302194E-024
  -3.4150000000000000E-002    -7.9845612323133031E-024
  -3.4099999999999998E-002    -7.0488088041654496E-024
  -3.4049999999999997E-002    -3.6874851817355210E-024
  -3.4000000000000002E-002     1.2518482954160156E-024
  -3.3950000000000001E-002     6.1332918340170635E-024
  -3.3900000000000000E-002     9.2376883611437258E-024
  -3.3849999999999998E-002     9.7328446772424316E-024
  -3.3799999999999997E-002     8.4145527361394294E-024
  -3.3750000000000002E-002     7.6503817759510940E-024
  -3.3700000000000001E-002     1.0197331391044020E-023
  -3.3649999999999999E-002     1.7115237813625474E-023
  -3.3599999999999998E-002     2.5674065512811338E-023
  -3.3550000000000003E-002     2.8611002021368253E-023
  -3.3500000000000002E-002     1.5962131653932755E-023
  -3.3450000000000001E-002    -2.0222307394042709E-023
  -3.3399999999999999E-002    -7.9503693437935220E-023
  -3.3349999999999998E-002    -1.4780925193167881E-022
  -3.3300000000000003E-002    -1.9683626254742962E-022
  -3.3250000000000002E-002    -1.9076921942719858E-022
  -3.3200000000000000E-002    -1.0030833080326254E-022
  -3.3149999999999999E-002     7.9794375419365229E-023
  -3.3099999999999997E-002     3.1690093218356000E-022
  -3.3050000000000003E-002     5.3865988268925099E-022
  -3.3000000000000002E-002     6.4884756274416245E-022
  -3.2950000000000000E-002     5.6012931161605433E-022
  -3.2899999999999999E-002     2.3467877445231351E-022
  -3.2850000000000004E-002    -2.8316643678423517E-022
  -3.2800000000000003E-002    -8.5943699211561690E-022
  -3.2750000000000001E-002    -1.2991576883848752E-021
  -3.2700000000000000E-002    -1.4086559494482420E-021
  -3.2649999999999998E-002    -1.0731710599318088E-021
  -3.2600000000000004E-002    -3.1967623164915817E-022
  -3.2550000000000003E-002     6.6589679243662261E-022
  -3.2500000000000001E-002     1.5843355785379782E-021
  -3.2450000000000000E-002     2.1241743329044750E-021
  -3.2399999999999998E-002     2.0834487718821194E-021
  -3.2350000000000004E-002     1.4608228589964635E-021
  -3.2300000000000002E-002     4.6897664601086045E-022
  -3.2250000000000001E-002    -5.4871215986601991E-022
  -3.2199999999999999E-002    -1.2732916091040802E-021
  -3.2149999999999998E-002    -1.5707926319682185E-021
  -3.2100000000000004E-002    -1.5742215284904201E-021
  -3.2050000000000002E-002    -1.6242590660636344E-021
  -3.2000000000000001E-002    -2.0654430222919530E-021
  -3.1949999999999999E-002    -2.9722275247296348E-021
  -3.1899999999999998E-002    -3.9404351793736829E-021
  -3.1850000000000003E-002    -4.0883429632945721E-021
  -3.1800000000000002E-002    -2.3483758533100369E-021
  -3.1750000000000000E-002     1.9942601283580350E-021
  -3.1699999999999999E-002     8.7019911343806606E-021
  -3.1649999999999998E-002     1.6205694328691611E-020
  -3.1600000000000003E-002     2.1716081364482047E-020
  -3.1550000000000002E-002     2.1952570569445504E-020
  -3.1500000000000000E-002     1.4371256987692990E-020
  -3.1449999999999999E-002    -1.4885710472589414E-021
  -3.1399999999999997E-002    -2.3084099134651208E-020
  -3.1350000000000003E-002    -4.4887078355530756E-020
  -3.1300000000000001E-002    -5.9588676131233458E-020
  -3.1250000000000000E-002    -6.0305718222482593E-020
  -3.1199999999999999E-002    -4.3148500524841089E-020
  -3.1150000000000001E-002    -9.2274441318241184E-021
  -3.1100000000000003E-002     3.4779494715503267E-020
  -3.1050000000000001E-002     7.7958983105024998E-020
  -3.1000000000000000E-002     1.0817273751617867E-019
  -3.0949999999999998E-002     1.1582412076307537E-019
  -3.0900000000000000E-002     9.7037333691947155E-020
  -3.0850000000000002E-002     5.4991658254631315E-020
  -3.0800000000000001E-002    -1.2101037154391459E-021
  -3.0750000000000000E-002    -5.9768326739420173E-020
  -3.0699999999999998E-002    -1.1018553244074045E-019
  -3.0650000000000000E-002    -1.4624580196295427E-019
  -3.0600000000000002E-002    -1.6650357724649462E-019
  -3.0550000000000001E-002    -1.7191272489469292E-019
  -3.0499999999999999E-002    -1.6172841604014201E-019
  -3.0449999999999998E-002    -1.3005803548199697E-019
  -3.0400000000000000E-002    -6.5739211188926374E-020
  -3.0350000000000002E-002     4.2817910528439165E-020
  -3.0300000000000001E-002     1.9841674246731854E-019
  -3.0249999999999999E-002     3.8474748755049907E-019
  -3.0200000000000001E-002     5.6013652391862829E-019
  -3.0150000000000000E-002     6.6060737322590944E-019
  -3.0100000000000002E-002     6.1505874055453583E-019
  -3.0050000000000000E-002     3.7081799649606943E-019
  -2.9999999999999999E-002    -7.7425279509534318E-020
  -2.9950000000000001E-002    -6.6616691189307719E-019
  -2.9899999999999999E-002    -1.2604093046718374E-018
  -2.9850000000000002E-002    -1.6769313184245589E-018
  -2.9800000000000000E-002    -1.7325182293466891E-018
  -2.9749999999999999E-002    -1.3062515516684899E-018
  -2.9700000000000001E-002    -3.9682362241901381E-019
  -2.9650000000000003E-002     8.4691101693120963E-019
  -2.9600000000000001E-002     2.1390654304387896E-018
  -2.9550000000000000E-002     3.1182725924671246E-018
  -2.9499999999999998E-002     3.4460671920432320E-018
  -2.9450000000000000E-002     2.9154110624306569E-018
  -2.9400000000000003E-002     1.5346553103357820E-018
  -2.9350000000000001E-002    -4.4460855579946409E-019
  -2.9300000000000000E-002    -2.5724533403920822E-018
  -2.9249999999999998E-002    -4.3120886476788635E-018
  -2.9200000000000000E-002    -5.1882796089192473E-018
  -2.9150000000000002E-002    -4.9275113749306710E-018
  -2.9100000000000001E-002    -3.5437195335499119E-018
  -2.9049999999999999E-002    -1.3387247970641229E-018
  -2.8999999999999998E-002     1.1856498844613437E-018
  -2.8950000000000000E-002     3.4759755858608330E-018
  -2.8900000000000002E-002     5.0856449953568831E-018
  -2.8850000000000001E-002     5.7877617803270002E-018
  -2.8799999999999999E-002     5.6027794222619139E-018
  -2.8749999999999998E-002     4.7335225488454407E-018
  -2.8700000000000000E-002     3.4374469416716864E-018
  -2.8650000000000002E-002     1.8935698386378513E-018
  -2.8600000000000000E-002     1.2713451177695606E-019
  -2.8549999999999999E-002    -1.9658912624267391E-018
  -2.8500000000000001E-002    -4.4941028356701276E-018
  -2.8450000000000000E-002    -7.3928150325474704E-018
  -2.8400000000000002E-002    -1.0274264621214817E-017
  -2.8350000000000000E-002    -1.2390964004508137E-017
  -2.8299999999999999E-002    -1.2765774226493118E-017
  -2.8250000000000001E-002    -1.0481906306908698E-017
  -2.8200000000000003E-002    -5.0578722428442781E-018
  -2.8150000000000001E-002     3.2182532750181714E-018
  -2.8100000000000000E-002     1.3130886637851468E-017
  -2.8049999999999999E-002     2.2651341965968519E-017
  -2.8000000000000001E-002     2.9339649039107428E-017
  -2.7950000000000003E-002     3.0951740662105524E-017
  -2.7900000000000001E-002     2.6090682295538861E-017
  -2.7850000000000000E-002     1.4709226577766911E-017
  -2.7799999999999998E-002    -1.6982929071215677E-018
  -2.7750000000000000E-002    -2.0290606525125959E-017
  -2.7700000000000002E-002    -3.7424134562265688E-017
  -2.7650000000000001E-002    -4.9409662362018968E-017
  -2.7600000000000000E-002    -5.3289339385294383E-017
  -2.7549999999999998E-002    -4.7451079500336700E-017
  -2.7500000000000000E-002    -3.1962841097181384E-017
  -2.7450000000000002E-002    -8.5999468316231928E-018
  -2.7400000000000001E-002     1.9383337626688815E-017
  -2.7349999999999999E-002     4.7653364108467991E-017
  -2.7299999999999998E-002     7.1301148824587376E-017
  -2.7250000000000000E-002     8.5434493297998152E-017
  -2.7200000000000002E-002     8.5883439765074954E-017
  -2.7150000000000001E-002     7.0035511976484559E-017
  -2.7099999999999999E-002     3.7739497002131926E-017
  -2.7049999999999998E-002    -7.9124712167691487E-018
  -2.7000000000000000E-002    -6.0237309795239378E-017
  -2.6950000000000002E-002    -1.0939817291615262E-016
  -2.6900000000000000E-002    -1.4386750472342947E-016
  -2.6849999999999999E-002    -1.5288300701117029E-016
  -2.6800000000000001E-002    -1.2948053866944901E-016
  -2.6749999999999999E-002    -7.3324074545415977E-017
  -2.6700000000000002E-002     7.6427329672969063E-018
  -2.6650000000000000E-002     9.7587234779991998E-017
  -2.6599999999999999E-002     1.7562539921275162E-016
  -2.6550000000000001E-002     2.2078079628763820E-016
  -2.6500000000000003E-002     2.1794446920664311E-016
  -2.6450000000000001E-002     1.6312971300256790E-016
  -2.6400000000000000E-002     6.6204593361549441E-017
  -2.6349999999999998E-002    -5.0221189149877772E-017
  -2.6300000000000000E-002    -1.5602997223548616E-016
  -2.6250000000000002E-002    -2.2189222474904336E-016
  -2.6200000000000001E-002    -2.2837435079555065E-016
  -2.6150000000000000E-002    -1.7298255544588098E-016
  -2.6099999999999998E-002    -7.2540883455863972E-017
  -2.6050000000000000E-002     4.0505677058181816E-017
  -2.6000000000000002E-002     1.2741441817848884E-016
  -2.5950000000000001E-002     1.5568889644084830E-016
  -2.5899999999999999E-002     1.1102863763908131E-016
  -2.5849999999999998E-002     4.5687784899760789E-018
  -2.5800000000000000E-002    -1.2764699181274020E-016
  -2.5750000000000002E-002    -2.3380374063892299E-016
  -2.5700000000000001E-002    -2.6212802153637815E-016
  -2.5649999999999999E-002    -1.7898211460872619E-016
  -2.5599999999999998E-002     1.6441081437966946E-017
  -2.5550000000000000E-002     2.8607474870600253E-016
  -2.5500000000000002E-002     5.5864156928256853E-016
  -2.5450000000000000E-002     7.4669070813313324E-016
  -2.5399999999999999E-002     7.7103521538419742E-016
  -2.5349999999999998E-002     5.8593226776984212E-016
  -2.5300000000000000E-002     1.9749210834058099E-016
  -2.5250000000000002E-002    -3.3081055560395215E-016
  -2.5200000000000000E-002    -8.8828316018542307E-016
  -2.5149999999999999E-002    -1.3412146216628647E-015
  -2.5100000000000001E-002    -1.5653755103036620E-015
  -2.5049999999999999E-002    -1.4784330038074799E-015
  -2.5000000000000001E-002    -1.0636127244526041E-015
  -2.4950000000000000E-002    -3.7803444013624056E-016
  -2.4899999999999999E-002     4.5681543226045670E-016
  -2.4850000000000001E-002     1.2803410837472822E-015
  -2.4800000000000003E-002     1.9276393662310356E-015
  -2.4750000000000001E-002     2.2653147467920992E-015
  -2.4700000000000000E-002     2.2197908056976098E-015
  -2.4649999999999998E-002     1.7917346191148267E-015
  -2.4600000000000000E-002     1.0539096947546862E-015
  -2.4550000000000002E-002     1.3375356607400928E-016
  -2.4500000000000001E-002    -8.1448894257527246E-016
  -2.4450000000000000E-002    -1.6412899995239456E-015
  -2.4399999999999998E-002    -2.2298438991654862E-015
  -2.4350000000000000E-002    -2.5146722900604676E-015
  -2.4299999999999999E-002    -2.4873729201875062E-015
  -2.4250000000000001E-002    -2.1890256753669505E-015
  -2.4199999999999999E-002    -1.6918249092176818E-015
  -2.4150000000000001E-002    -1.0750053574219491E-015
  -2.4100000000000000E-002    -4.0175452748833141E-016
  -2.4049999999999998E-002     2.9595789468986305E-016
  -2.4000000000000000E-002     1.0191089565494730E-015
  -2.3949999999999999E-002     1.7875129627857053E-015
  -2.3900000000000001E-002     2.6121366228778006E-015
  -2.3850000000000000E-002     3.4612490654987433E-015
  -2.3800000000000002E-002     4.2321981886655960E-015
  -2.3750000000000000E-002     4.7422537789596331E-015
  -2.3699999999999999E-002     4.7495786700416838E-015
  -2.3650000000000001E-002     4.0082167916858282E-015
  -2.3599999999999999E-002     2.3501896492450409E-015
  -2.3550000000000001E-002    -2.2427105888264065E-016
  -2.3500000000000000E-002    -3.4764985887968568E-015
  -2.3449999999999999E-002    -6.9097537216102789E-015
  -2.3400000000000001E-002    -9.8233314891726119E-015
  -2.3349999999999999E-002    -1.1446104799030230E-014
  -2.3300000000000001E-002    -1.1131232032294146E-014
  -2.3250000000000000E-002    -8.5686719828491992E-015
  -2.3199999999999998E-002    -3.9554269030802583E-015
  -2.3150000000000000E-002     1.9389400345675101E-015
  -2.3099999999999999E-002     7.8564905231732008E-015
  -2.3050000000000001E-002     1.2294794823861160E-014
  -2.3000000000000000E-002     1.3874679226667738E-014
  -2.2950000000000002E-002     1.1751696422199793E-014
  -2.2900000000000000E-002     5.9623640268626428E-015
  -2.2849999999999999E-002    -2.4057702035924824E-015
  -2.2800000000000001E-002    -1.1301022492922140E-014
  -2.2749999999999999E-002    -1.8073953805606372E-014
  -2.2700000000000001E-002    -2.0072242044451943E-014
  -2.2650000000000000E-002    -1.5343123308465326E-014
  -2.2599999999999999E-002    -3.2770326639689933E-015
  -2.2550000000000001E-002     1.4980093401603993E-014
  -2.2499999999999999E-002     3.6479077019196048E-014
  -2.2450000000000001E-002     5.6839679662783794E-014
  -2.2400000000000000E-002     7.0999572704969374E-014
  -2.2349999999999998E-002     7.4202888855237163E-014
  -2.2300000000000000E-002     6.3026289557828931E-014
  -2.2249999999999999E-002     3.6223089470673583E-014
  -2.2200000000000001E-002    -4.7985309680421799E-015
  -2.2150000000000000E-002    -5.5968401482002764E-014
  -2.2100000000000002E-002    -1.1101997656408858E-013
  -2.2050000000000000E-002    -1.6233167896236369E-013
  -2.1999999999999999E-002    -2.0197566218104739E-013
  -2.1950000000000001E-002    -2.2278004786645524E-013
  -2.1899999999999999E-002    -2.1923286608446733E-013
  -2.1850000000000001E-002    -1.8811533033353491E-013
  -2.1800000000000000E-002    -1.2882979314824716E-013
  -2.1749999999999999E-002    -4.3457362741426769E-014
  -2.1700000000000001E-002     6.3375371410967764E-014
  -2.1649999999999999E-002     1.8473459171074027E-013
  -2.1600000000000001E-002     3.1166367617488648E-013
  -2.1550000000000000E-002     4.3350433079476349E-013
  -2.1499999999999998E-002     5.3829554963072979E-013
  -2.1450000000000000E-002     6.1332387996926519E-013
  -2.1399999999999999E-002     6.4589953404879735E-013
  -2.1350000000000001E-002     6.2439757153473752E-013
  -2.1299999999999999E-002     5.3954020102354721E-013
  -2.1250000000000002E-002     3.8581879685526588E-013
  -2.1200000000000000E-002     1.6288620767644142E-013
  -2.1149999999999999E-002    -1.2329608042529088E-013
  -2.1100000000000001E-002    -4.5977418869729725E-013
  -2.1049999999999999E-002    -8.2656274936416633E-013
  -2.1000000000000001E-002    -1.1973543467100725E-012
  -2.0950000000000000E-002    -1.5409801852474235E-012
  -2.0899999999999998E-002    -1.8235158238558423E-012
  -2.0850000000000000E-002    -2.0108328418819051E-012
  -2.0799999999999999E-002    -2.0713399490345529E-012
  -2.0750000000000001E-002    -1.9786438566713877E-012
  -2.0700000000000000E-002    -1.7139043431572743E-012
  -2.0649999999999998E-002    -1.2677423381687579E-012
  -2.0600000000000000E-002    -6.4167397760275763E-013
  -2.0549999999999999E-002     1.5085035133623163E-013
  -2.0500000000000001E-002     1.0836559954296413E-012
  -2.0449999999999999E-002     2.1171623925014349E-012
  -2.0400000000000001E-002     3.1977559881654361E-012
  -2.0350000000000000E-002     4.2573466682759675E-012
  -2.0299999999999999E-002     5.2134497937079118E-012
  -2.0250000000000001E-002     5.9703500505004151E-012
  -2.0199999999999999E-002     6.4220331803576024E-012
  -2.0150000000000001E-002     6.4575443041765000E-012
  -2.0100000000000000E-002     5.9692132359306914E-012
  -2.0049999999999998E-002     4.8637764755984132E-012
  -2.0000000000000000E-002     3.0758813675363578E-012
  -1.9949999999999999E-002     5.8285026816767983E-013
  -1.9900000000000001E-002    -2.5808835720552849E-012
  -1.9850000000000000E-002    -6.3115640202378656E-012
  -1.9799999999999998E-002    -1.0427966066848664E-011
  -1.9750000000000000E-002    -1.4668775099629972E-011
  -1.9699999999999999E-002    -1.8696336718597417E-011
  -1.9650000000000001E-002    -2.2106756667729093E-011
  -1.9599999999999999E-002    -2.4445523185973457E-011
  -1.9550000000000001E-002    -2.5227169304472094E-011
  -1.9500000000000000E-002    -2.3957114280695781E-011
  -1.9449999999999999E-002    -2.0153785807391037E-011
  -1.9400000000000001E-002    -1.3369362408796441E-011
  -1.9349999999999999E-002    -3.2079818328886487E-012
  -1.9300000000000001E-002     1.0659222867033575E-011
  -1.9250000000000000E-002     2.8482576316955580E-011
  -1.9199999999999998E-002     5.0425663118572578E-011
  -1.9150000000000000E-002     7.6560529328893610E-011
  -1.9099999999999999E-002     1.0686629796002105E-010
  -1.9050000000000001E-002     1.4123131416847824E-010
  -1.9000000000000000E-002     1.7945902626029793E-010
  -1.8949999999999998E-002     2.2127786281400001E-010
  -1.8900000000000000E-002     2.6635478459539068E-010
  -1.8849999999999999E-002     3.1431219206691379E-010
  -1.8800000000000001E-002     3.6474677212550954E-010
  -1.8749999999999999E-002     4.1724939503818067E-010
  -1.8700000000000001E-002     4.7142419250527020E-010
  -1.8650000000000000E-002     5.2690547803496578E-010
  -1.8599999999999998E-002     5.8337157934022361E-010
  -1.8550000000000001E-002     6.4055469898419912E-010
  -1.8499999999999999E-002     6.9824726267271149E-010
  -1.8450000000000001E-002     7.5630435015501996E-010
  -1.8400000000000000E-002     8.1464286630725332E-010
  -1.8349999999999998E-002     8.7323874753396262E-010
  -1.8300000000000000E-002     9.3212134330299800E-010
  -1.8249999999999999E-002     9.9136626512513037E-010
  -1.8200000000000001E-002     1.0510861458118960E-009
  -1.8149999999999999E-002     1.1114200704030450E-009
  -1.8100000000000002E-002     1.1725213484260064E-009
  -1.8050000000000000E-002     1.2345447242197387E-009
  -1.7999999999999999E-002     1.2976344113453615E-009
  -1.7950000000000001E-002     1.3619127774455702E-009
  -1.7899999999999999E-002     1.4274725692008334E-009
  -1.7850000000000001E-002     1.4943728889819854E-009
  -1.7800000000000000E-002     1.5626398012988173E-009
  -1.7749999999999998E-002     1.6322718332676325E-009
  -1.7700000000000000E-002     1.7032504585805248E-009
  -1.7649999999999999E-002     1.7755550231147343E-009
  -1.7600000000000001E-002     1.8491783413402945E-009
  -1.7550000000000000E-002     1.9241440787473039E-009
  -1.7499999999999998E-002     2.0005209526072099E-009
  -1.7450000000000000E-002     2.0784338106063379E-009
  -1.7399999999999999E-002     2.1580669011156433E-009
  -1.7350000000000001E-002     2.2396598216011000E-009
  -1.7299999999999999E-002     2.3234947070801872E-009
  -1.7250000000000001E-002     2.4098744405340001E-009
  -1.7200000000000000E-002     2.4990968216733952E-009
  -1.7149999999999999E-002     2.5914235414904506E-009
  -1.7100000000000001E-002     2.6870517454255410E-009
  -1.7049999999999999E-002     2.7860910442931149E-009
  -1.7000000000000001E-002     2.8885507540690025E-009
  -1.6950000000000000E-002     2.9943398633676955E-009
  -1.6899999999999998E-002     3.1032802767982221E-009
  -1.6850000000000000E-002     3.2151329121312592E-009
  -1.6799999999999999E-002     3.3296339027332312E-009
  -1.6750000000000001E-002     3.4465331405037551E-009
  -1.6700000000000000E-002     3.5656361310907498E-009
  -1.6649999999999998E-002     3.6868357205459926E-009
  -1.6600000000000000E-002     3.8101368807868655E-009
  -1.6549999999999999E-002     3.9356670259896337E-009
  -1.6500000000000001E-002     4.0636748481447850E-009
  -1.6449999999999999E-002     4.1945151498722492E-009
  -1.6400000000000001E-002     4.3286256974514533E-009
  -1.6350000000000000E-002     4.4664953368397285E-009
  -1.6299999999999999E-002     4.6086284529800769E-009
  -1.6250000000000001E-002     4.7555082462188409E-009
  -1.6199999999999999E-002     4.9075630385179858E-009
  -1.6150000000000001E-002     5.0651373426115923E-009
  -1.6100000000000000E-002     5.2284692594043558E-009
  -1.6049999999999998E-002     5.3976787174677665E-009
  -1.6000000000000000E-002     5.5727679682083308E-009
  -1.5949999999999999E-002     5.7536317047976308E-009
  -1.5900000000000001E-002     5.9400810947608596E-009
  -1.5850000000000000E-002     6.1318734304040368E-009
  -1.5799999999999998E-002     6.3287505614819244E-009
  -1.5750000000000000E-002     6.5304749436563631E-009
  -1.5699999999999999E-002     6.7368639950437578E-009
  -1.5650000000000001E-002     6.9478182369452035E-009
  -1.5599999999999999E-002     7.1633383171151904E-009
  -1.5550000000000001E-002     7.3835325658115020E-009
  -1.5500000000000000E-002     7.6086162303604258E-009
  -1.5449999999999998E-002     7.8389037819642075E-009
  -1.5400000000000000E-002     8.0747949884784415E-009
  -1.5349999999999999E-002     8.3167621203146290E-009
  -1.5300000000000001E-002     8.5653310900501047E-009
  -1.5250000000000000E-002     8.8210623143417121E-009
  -1.5199999999999998E-002     9.0845290487135832E-009
  -1.5150000000000000E-002     9.3562963888333162E-009
  -1.5099999999999999E-002     9.6368908915811564E-009
  -1.5050000000000001E-002     9.9267769481740031E-009
  -1.4999999999999999E-002     1.0226333411602471E-008
  -1.4949999999999998E-002     1.0535834429147948E-008
  -1.4900000000000000E-002     1.0855436329779619E-008
  -1.4849999999999999E-002     1.1185179849908457E-008
  -1.4800000000000001E-002     1.1524996296380088E-008
  -1.4749999999999999E-002     1.1874727475694730E-008
  -1.4700000000000001E-002     1.2234149868831989E-008
  -1.4650000000000000E-002     1.2603012014431616E-008
  -1.4599999999999998E-002     1.2981068096555957E-008
  -1.4550000000000000E-002     1.3368119217817447E-008
  -1.4499999999999999E-002     1.3764050039082457E-008
  -1.4450000000000001E-002     1.4168873366822999E-008
  -1.4400000000000000E-002     1.4582755016554521E-008
  -1.4349999999999998E-002     1.5006039859215840E-008
  -1.4300000000000000E-002     1.5439262052164558E-008
  -1.4249999999999999E-002     1.5883139534970431E-008
  -1.4200000000000001E-002     1.6338544336125370E-008
  -1.4149999999999999E-002     1.6806457868040173E-008
  -1.4099999999999998E-002     1.7287907598864624E-008
  -1.4050000000000000E-002     1.7783886224518106E-008
  -1.3999999999999999E-002     1.8295284162948377E-008
  -1.3950000000000001E-002     1.8822823013892190E-008
  -1.3899999999999999E-002     1.9367005489066801E-008
  -1.3850000000000001E-002     1.9928105249175946E-008
  -1.3800000000000000E-002     2.0506172856502485E-008
  -1.3749999999999998E-002     2.1101078086084716E-008
  -1.3700000000000000E-002     2.1712561980424913E-008
  -1.3649999999999999E-002     2.2340312173574912E-008
  -1.3600000000000001E-002     2.2984026331621000E-008
  -1.3550000000000000E-002     2.3643490813446052E-008
  -1.3499999999999998E-002     2.4318630851307051E-008
  -1.3450000000000000E-002     2.5009560534572633E-008
  -1.3399999999999999E-002     2.5716608626742282E-008
  -1.3350000000000001E-002     2.6440336271528394E-008
  -1.3299999999999999E-002     2.7181520765004626E-008
  -1.3249999999999998E-002     2.7941134017436658E-008
  -1.3200000000000000E-002     2.8720292277837059E-008
  -1.3149999999999998E-002     2.9520191200240091E-008
  -1.3100000000000001E-002     3.0342016865831335E-008
  -1.3049999999999999E-002     3.1186879903908468E-008
  -1.3000000000000001E-002     3.2055731922557829E-008
  -1.2950000000000000E-002     3.2949324467658534E-008
  -1.2899999999999998E-002     3.3868178899377260E-008
  -1.2850000000000000E-002     3.4812608574728626E-008
  -1.2799999999999999E-002     3.5782747880370846E-008