  -4.0000000000000001E-002     0.0000000000000000     
  -3.9949999999999999E-002     0.0000000000000000     
  -3.9899999999999998E-002     0.0000000000000000     
  -3.9850000000000003E-002     0.0000000000000000     
  -3.9800000000000002E-002     0.0000000000000000     
  -3.9750000000000001E-002     0.0000000000000000     
  -3.9699999999999999E-002     0.0000000000000000     
  -3.9649999999999998E-002     0.0000000000000000     
  -3.9600000000000003E-002     0.0000000000000000     
  -3.9550000000000002E-002     0.0000000000000000     
  -3.9500000000000000E-002     0.0000000000000000     
  -3.9449999999999999E-002     0.0000000000000000     
  -3.9399999999999998E-002     0.0000000000000000     
  -3.9350000000000003E-002     0.0000000000000000     
  -3.9300000000000002E-002     0.0000000000000000     
  -3.9250000000000000E-002     0.0000000000000000     
  -3.9199999999999999E-002     0.0000000000000000     
  -3.9150000000000004E-002     0.0000000000000000     
  -3.9100000000000003E-002     0.0000000000000000     
  -3.9050000000000001E-002     0.0000000000000000     
  -3.9000000000000000E-002     0.0000000000000000     
  -3.8949999999999999E-002     0.0000000000000000     
  -3.8900000000000004E-002     0.0000000000000000     
  -3.8850000000000003E-002     0.0000000000000000     
  -3.8800000000000001E-002     0.0000000000000000     
  -3.8750000000000000E-002     0.0000000000000000     
  -3.8699999999999998E-002     0.0000000000000000     
  -3.8650000000000004E-002     0.0000000000000000     
  -3.8600000000000002E-002     0.0000000000000000     
  -3.8550000000000001E-002     0.0000000000000000     
  -3.8500000000000000E-002     0.0000000000000000     
  -3.8449999999999998E-002     0.0000000000000000     
  -3.8400000000000004E-002     0.0000000000000000     
  -3.8350000000000002E-002     0.0000000000000000     
  -3.8300000000000001E-002     0.0000000000000000     
  -3.8249999999999999E-002     0.0000000000000000     
  -3.8199999999999998E-002     0.0000000000000000     
  -3.8150000000000003E-002     0.0000000000000000     
  -3.8100000000000002E-002     0.0000000000000000     
  -3.8050000000000000E-002     0.0000000000000000     
  -3.7999999999999999E-002     0.0000000000000000     
  -3.7949999999999998E-002     0.0000000000000000     
  -3.7900000000000003E-002     0.0000000000000000     
  -3.7850000000000002E-002     0.0000000000000000     
  -3.7800000000000000E-002     0.0000000000000000     
  -3.7749999999999999E-002     0.0000000000000000     
  -3.7699999999999997E-002     0.0000000000000000     
  -3.7650000000000003E-002     0.0000000000000000     
  -3.7600000000000001E-002    -4.8460294053219712E-039
  -3.7550000000000000E-002    -1.4735426631531171E-038
  -3.7499999999999999E-002    -2.5596494489900420E-038
  -3.7449999999999997E-002    -1.3475885451090154E-038
  -3.7400000000000003E-002     5.2482302475248704E-038
  -3.7350000000000001E-002     2.1197675798352006E-037
  -3.7300000000000000E-002     4.8587577008097542E-037
  -3.7249999999999998E-002     7.5488624626295434E-037
  -3.7200000000000004E-002     7.6667392763694402E-037
  -3.7150000000000002E-002    -9.5663675959931843E-039
  -3.7100000000000001E-002    -2.3559201989382242E-036
  -3.7050000000000000E-002    -6.9764106150112350E-036
  -3.6999999999999998E-002    -1.3656113549998710E-035
  -3.6950000000000004E-002    -1.9808586830477997E-035
  -3.6900000000000002E-002    -1.8783606436826223E-035
  -3.6850000000000001E-002     9.0545302076498545E-037
  -3.6799999999999999E-002     5.3311074728179432E-035
  -3.6749999999999998E-002     1.4710200120036884E-034
  -3.6700000000000003E-002     2.7026063620409695E-034
  -3.6650000000000002E-002     3.6938631190053180E-034
  -3.6600000000000001E-002     3.3242117236877383E-034
  -3.6549999999999999E-002    -7.5283764500284995E-036
  -3.6499999999999998E-002    -8.2292941310460965E-034
  -3.6450000000000003E-002    -2.1756824886190048E-033
  -3.6400000000000002E-002    -3.8340443927062413E-033
  -3.6350000000000000E-002    -5.0683134403717136E-033
  -3.6299999999999999E-002    -4.5370369428968626E-033
  -3.6249999999999998E-002    -4.4035029171013840E-034
  -3.6200000000000003E-002     8.8619274320344222E-033
  -3.6150000000000002E-002     2.3650763220528589E-032
  -3.6100000000000000E-002     4.1186775961403084E-032
  -3.6049999999999999E-002     5.4111668958185622E-032
  -3.6000000000000004E-002     4.9932607816049242E-032
  -3.5950000000000003E-002     1.2992222451509218E-032
  -3.5900000000000001E-002    -6.9745222466514319E-032
  -3.5850000000000000E-002    -1.9869166225259048E-031
  -3.5799999999999998E-002    -3.4909156606759527E-031
  -3.5750000000000004E-002    -4.6069909700183433E-031
  -3.5700000000000003E-002    -4.3765815407797426E-031
  -3.5650000000000001E-002    -1.6809573181814594E-031
  -3.5600000000000000E-002     4.2976150344602256E-031
  -3.5549999999999998E-002     1.3373629199391439E-030
  -3.5500000000000004E-002     2.3600049739408110E-030
  -3.5450000000000002E-002     3.0831524895643068E-030
  -3.5400000000000001E-002     2.9120045430068652E-030
  -3.5349999999999999E-002     1.2395221929732375E-030
  -3.5299999999999998E-002    -2.2495609237881400E-030
  -3.5250000000000004E-002    -7.2036253224189691E-030
  -3.5200000000000002E-002    -1.2313066512768963E-029
  -3.5150000000000001E-002    -1.5324564907934203E-029
  -3.5099999999999999E-002    -1.3564949466034039E-029
  -3.5049999999999998E-002    -5.0267404960581606E-030
  -3.5000000000000003E-002     1.0223382360893620E-029
  -3.4950000000000002E-002     2.8899211490385889E-029
  -3.4900000000000000E-002     4.4423999815669785E-029
  -3.4849999999999999E-002     4.8622612436817462E-029
  -3.4799999999999998E-002     3.5237096012312402E-029
  -3.4750000000000003E-002     4.2529014268122440E-030
  -3.4700000000000002E-002    -3.5102591879032609E-029
  -3.4650000000000000E-002    -6.5316033979263017E-029
  -3.4599999999999999E-002    -6.7247030175801310E-029
  -3.4549999999999997E-002    -3.1678296674411259E-029
  -3.4500000000000003E-002     2.8716663168823506E-029
  -3.4450000000000001E-002     7.4552792763195090E-029
  -3.4400000000000000E-002     4.9780665613691625E-029
  -3.4349999999999999E-002    -9.0396114469446887E-029
  -3.4299999999999997E-002    -3.4030920345704607E-028
  -3.4250000000000003E-002    -6.1117559288961722E-028
  -3.4200000000000001E-002    -7.2969609235906774E-028
  -3.4150000000000000E-002    -4.8801822663605612E-028
  -3.4099999999999998E-002     2.5452939139235417E-028
  -3.4049999999999997E-002     1.4486602087735551E-027
  -3.4000000000000002E-002     2.7715809230505399E-027
  -3.3950000000000001E-002     3.6517084743176446E-027
  -3.3900000000000000E-002     3.4421724284770477E-027
  -3.3849999999999998E-002     1.7159883343429500E-027
  -3.3799999999999997E-002    -1.4291013522292486E-027
  -3.3750000000000002E-002    -5.2260226315104220E-027
  -3.3700000000000001E-002    -8.4048692901022447E-027
  -3.3649999999999999E-002    -9.6986167074462761E-027
  -3.3599999999999998E-002    -8.5158768845789885E-027
  -3.3550000000000003E-002    -5.4203630663092781E-027
  -3.3500000000000002E-002    -2.0098958754764657E-027
  -3.3450000000000001E-002     1.2225773911722567E-029
  -3.3399999999999999E-002     3.3276199160850826E-028
  -3.3349999999999998E-002     1.3140779854270181E-027
  -3.3300000000000003E-002     7.9725061678702572E-027
  -3.3250000000000002E-002     2.5779262208021226E-026
  -3.3200000000000000E-002     5.6351160446978412E-026
  -3.3149999999999999E-002     9.2549814582174982E-026
  -3.3099999999999997E-002     1.1584949662505279E-025
  -3.3050000000000003E-002     9.9175656796628014E-026
  -3.3000000000000002E-002     1.7003954976855959E-026
  -3.2950000000000000E-002    -1.3875242391635025E-025
  -3.2899999999999999E-002    -3.4271269934063246E-025
  -3.2850000000000004E-002    -5.2865207148138841E-025
  -3.2800000000000003E-002    -5.9942603454700795E-025
  -3.2750000000000001E-002    -4.5790272769594380E-025
  -3.2700000000000000E-002    -5.3368210537405086E-026
  -3.2649999999999998E-002     5.7261389059301709E-025
  -3.2600000000000004E-002     1.2635994066882051E-024
  -3.2550000000000003E-002     1.7694564516401219E-024
  -3.2500000000000001E-002     1.8184750122211080E-024
  -3.2450000000000000E-002     1.2254735508449544E-024
  -3.2399999999999998E-002    -1.5537483634867693E-027
  -3.2350000000000004E-002    -1.6054626229037902E-024
  -3.2300000000000002E-002    -3.1152464837815290E-024
  -3.2250000000000001E-002    -3.9819497369345708E-024
  -3.2199999999999999E-002    -3.7795049777903926E-024
  -3.2149999999999998E-002    -2.3946729150690393E-024
  -3.2100000000000004E-002    -1.1704496378948044E-025
  -3.2050000000000002E-002     2.4317264921463570E-024
  -3.2000000000000001E-002     4.5237872214776378E-024
  -3.1949999999999999E-002     5.6199864923407198E-024
  -3.1899999999999998E-002     5.5928657186151599E-024
  -3.1850000000000003E-002     4.7445507945360448E-024
  -3.1800000000000002E-002     3.5709194497075972E-024
  -3.1750000000000000E-002     2.3607397118850871E-024
  -3.1699999999999999E-002     8.4712013529417503E-025
  -3.1649999999999998E-002    -1.8279495444250098E-024
  -3.1600000000000003E-002    -6.6716396213747672E-024
  -3.1550000000000002E-002    -1.3987604417168018E-023
  -3.1500000000000000E-002    -2.2462589103716343E-023
  -3.1449999999999999E-002    -2.8737597652295791E-023
  -3.1399999999999997E-002    -2.7973884504859020E-023
  -3.1350000000000003E-002    -1.5591951260506609E-023
  -3.1300000000000001E-002     1.0199011777070287E-023
  -3.1250000000000000E-002     4.6039546903761467E-023
  -3.1199999999999999E-002     8.2481622595963428E-023
  -3.1150000000000001E-002     1.0549937817775915E-022
  -3.1100000000000003E-002     1.0065857161792810E-022
  -3.1050000000000001E-002     5.8968301133090862E-023
  -3.1000000000000000E-002    -1.7651109793704367E-023
  -3.0949999999999998E-002    -1.1378734111294006E-022
  -3.0900000000000000E-002    -2.0273685542333136E-022
  -3.0850000000000002E-002    -2.5373558676345925E-022
  -3.0800000000000001E-002    -2.4230295425758506E-022
  -3.0750000000000000E-002    -1.5999937478033183E-022
  -3.0699999999999998E-002    -1.9442226577588172E-023
  -3.0650000000000000E-002     1.4818268036124716E-022
  -3.0600000000000002E-002     3.0289850668149656E-022
  -3.0550000000000001E-002     4.0934484857948761E-022
  -3.0499999999999999E-002     4.4787612078637283E-022
  -3.0449999999999998E-002     4.1773369219357926E-022
  -3.0400000000000000E-002     3.3006045051061740E-022
  -3.0350000000000002E-002     1.9395367113995392E-022
  -3.0300000000000001E-002     3.8330747067391616E-024
  -3.0249999999999999E-002    -2.6177898275137575E-022
  -3.0200000000000001E-002    -6.2347549198781729E-022
  -3.0150000000000000E-002    -1.0683191288580663E-021
  -3.0100000000000002E-002    -1.5145071596234734E-021
  -3.0050000000000000E-002    -1.7947346344032961E-021
  -2.9999999999999999E-002    -1.6795862851372579E-021
  -2.9950000000000001E-002    -9.5081420032947948E-022
  -2.9899999999999999E-002     4.8704428572735425E-022
  -2.9850000000000002E-002     2.4927251204165351E-021
  -2.9800000000000000E-002     4.6247824155370982E-021
  -2.9749999999999999E-002     6.1798682225035061E-021
  -2.9700000000000001E-002     6.3584011240638977E-021
  -2.9650000000000003E-002     4.5370953911979922E-021
  -2.9600000000000001E-002     5.7488339124016862E-022
  -2.9550000000000000E-002    -4.9600080008842945E-021
  -2.9499999999999998E-002    -1.0757833363622320E-020
  -2.9450000000000000E-002    -1.5002932886702519E-020
  -2.9400000000000003E-002    -1.5865360638791875E-020
  -2.9350000000000001E-002    -1.2133823601426722E-020
  -2.9300000000000000E-002    -3.7914267449711507E-021
  -2.9249999999999998E-002     7.6906798006671018E-021
  -2.9200000000000000E-002     1.9511998408831899E-020
  -2.9150000000000002E-002     2.8191995967090909E-020
  -2.9100000000000001E-002     3.0574821843452583E-020
  -2.9049999999999999E-002     2.4898685105206619E-020
  -2.8999999999999998E-002     1.1565541498385591E-020
  -2.8950000000000000E-002    -6.7017593046596997E-021
  -2.8900000000000002E-002    -2.5450179562232764E-020
  -2.8850000000000001E-002    -3.9715756358873185E-020
  -2.8799999999999999E-002    -4.5507847002640224E-020
  -2.8749999999999998E-002    -4.1058541836263401E-020
  -2.8700000000000000E-002    -2.7377510018077161E-020
  -2.8650000000000002E-002    -7.8766521176557982E-021
  -2.8600000000000000E-002     1.2829480409637708E-020
  -2.8549999999999999E-002     3.0506538511311157E-020
  -2.8500000000000001E-002     4.2636761380711956E-020
  -2.8450000000000000E-002     4.8935130030661306E-020
  -2.8400000000000002E-002     5.0782058198855642E-020
  -2.8350000000000000E-002     4.9778340676095001E-020
  -2.8299999999999999E-002     4.6074523039986343E-020
  -2.8250000000000001E-002     3.7351711099543046E-020
  -2.8200000000000003E-002     1.9194808888088333E-020
  -2.8150000000000001E-002    -1.2906133555439969E-020
  -2.8100000000000000E-002    -6.0416871882319245E-020
  -2.8049999999999999E-002    -1.1864901889738832E-019
  -2.8000000000000001E-002    -1.7517428077663717E-019
  -2.7950000000000003E-002    -2.1102542940826767E-019
  -2.7900000000000001E-002    -2.0513289460619417E-019
  -2.7850000000000000E-002    -1.4126174295110898E-019
  -2.7799999999999998E-002    -1.5551189228457832E-020
  -2.7750000000000000E-002     1.5793048632155489E-019
  -2.7700000000000002E-002     3.4607448962333671E-019
  -2.7650000000000001E-002     5.0149559456403346E-019
  -2.7600000000000000E-002     5.7290335953737960E-019
  -2.7549999999999998E-002     5.1894828538397383E-019
  -2.7500000000000000E-002     3.2199377946554406E-019
  -2.7450000000000002E-002    -2.1942643505665189E-021
  -2.7400000000000001E-002    -4.0212629378520113E-019
  -2.7349999999999999E-002    -7.9718494941785250E-019
  -2.7299999999999998E-002    -1.0924295891754106E-018
  -2.7250000000000000E-002    -1.1987895536929967E-018
  -2.7200000000000002E-002    -1.0544329878053411E-018
  -2.7150000000000001E-002    -6.4274974106912113E-019
  -2.7099999999999999E-002    -3.0256796897982336E-021
  -2.7049999999999998E-002     7.6880613625656363E-019
  -2.7000000000000000E-002     1.5304001553955014E-018
  -2.6950000000000002E-002     2.1137744892372887E-018
  -2.6900000000000000E-002     2.3547882633416497E-018
  -2.6849999999999999E-002     2.1280146286113861E-018
  -2.6800000000000001E-002     1.3820036324968938E-018
  -2.6749999999999999E-002     1.6811323496314247E-019
  -2.6700000000000002E-002    -1.3453016789998557E-018
  -2.6650000000000000E-002    -2.8815122559971404E-018
  -2.6599999999999999E-002    -4.0924859436082877E-018
  -2.6550000000000001E-002    -4.6243882486627627E-018
  -2.6500000000000003E-002    -4.2032836569780564E-018
  -2.6450000000000001E-002    -2.7237977705307880E-018
  -2.6400000000000000E-002    -3.1673066737377782E-019
  -2.6349999999999998E-002     2.6295755086314286E-018
  -2.6300000000000000E-002     5.5126211096848612E-018
  -2.6250000000000002E-002     7.6275690952174794E-018
  -2.6200000000000001E-002     8.3311146557056075E-018
  -2.6150000000000000E-002     7.2211445245117694E-018
  -2.6099999999999998E-002     4.2832055651304711E-018
  -2.6050000000000000E-002    -4.4896715852725999E-020
  -2.6000000000000002E-002    -4.9228714098540443E-018
  -2.5950000000000001E-002    -9.2750526783945506E-018
  -2.5899999999999999E-002    -1.2042288309685269E-017
  -2.5849999999999998E-002    -1.2455669876581694E-017
  -2.5800000000000000E-002    -1.0254737103449309E-017
  -2.5750000000000002E-002    -5.7817786361511476E-018
  -2.5700000000000001E-002     8.3916935455786859E-020
  -2.5649999999999999E-002     6.1406320421197236E-018
  -2.5599999999999998E-002     1.1168409534176635E-017
  -2.5550000000000000E-002     1.4231767476037729E-017
  -2.5500000000000002E-002     1.4886868189104437E-017
  -2.5450000000000000E-002     1.3228845909196083E-017
  -2.5399999999999999E-002     9.7697459179166504E-018
  -2.5349999999999998E-002     5.1992996405876805E-018
  -2.5300000000000000E-002     1.2712442509956628E-019
  -2.5250000000000002E-002    -5.0837623989605918E-018
  -2.5200000000000000E-002    -1.0314252895336755E-017
  -2.5149999999999999E-002    -1.5507382491662204E-017
  -2.5100000000000001E-002    -2.0379540302038084E-017
  -2.5049999999999999E-002    -2.4160898901356171E-017
  -2.5000000000000001E-002    -2.5520301989537489E-017
  -2.4950000000000000E-002    -2.2786097453871614E-017
  -2.4899999999999999E-002    -1.4475239227753199E-017
  -2.4850000000000001E-002    -1.5397027446952118E-020
  -2.4800000000000003E-002     1.9567607341560839E-017
  -2.4750000000000001E-002     4.1276656012740136E-017
  -2.4700000000000000E-002     6.0324875330278506E-017
  -2.4649999999999998E-002     7.0977470915706567E-017
  -2.4600000000000000E-002     6.7959842621718812E-017
  -2.4550000000000002E-002     4.8127602578367900E-017
  -2.4500000000000001E-002     1.1942847459553975E-017
  -2.4450000000000000E-002    -3.5734155452597636E-017
  -2.4399999999999998E-002    -8.5916840086588381E-017
  -2.4350000000000000E-002    -1.2696312632531223E-016
  -2.4299999999999999E-002    -1.4705893384819964E-016
  -2.4250000000000001E-002    -1.3721311892678836E-016
  -2.4199999999999999E-002    -9.4047526192461789E-017
  -2.4150000000000001E-002    -2.1618470565507338E-017
  -2.4100000000000000E-002     6.8340665118692575E-017
  -2.4049999999999998E-002     1.5803783175404474E-016
  -2.4000000000000000E-002     2.2694742329879645E-016
  -2.3949999999999999E-002     2.5624910201154397E-016
  -2.3900000000000001E-002     2.3345315456530905E-016
  -2.3850000000000000E-002     1.5614047474394608E-016
  -2.3800000000000002E-002     3.3842618477638527E-017
  -2.3750000000000000E-002    -1.1258541967998842E-016
  -2.3699999999999999E-002    -2.5424143140317845E-016
  -2.3650000000000001E-002    -3.5965849931603332E-016
  -2.3599999999999999E-002    -4.0150927414002518E-016
  -2.3550000000000001E-002    -3.6316185179538700E-016
  -2.3500000000000000E-002    -2.4359730769271216E-016
  -2.3449999999999999E-002    -5.9389651009600682E-017
  -2.3400000000000001E-002     1.5703988778451349E-016
  -2.3349999999999999E-002     3.6292718503409287E-016
  -2.3300000000000001E-002     5.1359478112301948E-016
  -2.3250000000000000E-002     5.7218964215909554E-016
  -2.3199999999999998E-002     5.1859511207870891E-016
  -2.3150000000000000E-002     3.5533398985187309E-016
  -2.3099999999999999E-002     1.0875562054294024E-016
  -2.3050000000000001E-002    -1.7521850497942019E-016
  -2.3000000000000000E-002    -4.4022327581455379E-016
  -2.2950000000000002E-002    -6.3158809027249506E-016
  -2.2900000000000000E-002    -7.0866853609991468E-016
  -2.2849999999999999E-002    -6.5428012387331654E-016
  -2.2800000000000001E-002    -4.7869520503852298E-016
  -2.2749999999999999E-002    -2.1698674556403416E-016
  -2.2700000000000001E-002     7.9702250622502449E-017
  -2.2650000000000000E-002     3.5664003438903690E-016
  -2.2599999999999999E-002     5.6823136304206470E-016
  -2.2550000000000001E-002     6.8732242018991891E-016
  -2.2499999999999999E-002     7.0841098196484172E-016
  -2.2450000000000001E-002     6.4402939624806201E-016
  -2.2400000000000000E-002     5.1588988549600873E-016
  -2.2349999999999998E-002     3.4430147307471813E-016
  -2.2300000000000000E-002     1.4022313820963675E-016
  -2.2249999999999999E-002    -9.6411715650557032E-017
  -2.2200000000000001E-002    -3.7063710490230487E-016
  -2.2150000000000000E-002    -6.8026208061694460E-016
  -2.2100000000000002E-002    -1.0020947594028674E-015
  -2.2050000000000000E-002    -1.2828487281670582E-015
  -2.1999999999999999E-002    -1.4406148098163811E-015
  -2.1950000000000001E-002    -1.3801236342348792E-015
  -2.1899999999999999E-002    -1.0205226506830255E-015
  -2.1850000000000001E-002    -3.2939158618221626E-016
  -2.1800000000000000E-002     6.4718484767001916E-016
  -2.1749999999999999E-002     1.7699113708964759E-015
  -2.1700000000000001E-002     2.8160395624610243E-015
  -2.1649999999999999E-002     3.5169217526061953E-015
  -2.1600000000000001E-002     3.6187048506807342E-015
  -2.1550000000000000E-002     2.9535215504075331E-015
  -2.1499999999999998E-002     1.5029320034166029E-015
  -2.1450000000000000E-002    -5.6571728951368830E-016
  -2.1399999999999999E-002    -2.9049437701673083E-015
  -2.1350000000000001E-002    -5.0404173680178060E-015
  -2.1299999999999999E-002    -6.4653018903030062E-015
  -2.1250000000000002E-002    -6.7570873227960560E-015
  -2.1200000000000000E-002    -5.6900009076568121E-015
  -2.1149999999999999E-002    -3.3139841880027078E-015
  -2.1100000000000001E-002     2.3385179430845388E-017
  -2.1049999999999999E-002     3.7235718251233955E-015
  -2.1000000000000001E-002     7.0477952789415237E-015
  -2.0950000000000000E-002     9.2709183484575165E-015
  -2.0899999999999998E-002     9.8453330521656816E-015
  -2.0850000000000000E-002     8.5368092595278045E-015
  -2.0799999999999999E-002     5.4983691816420822E-015
  -2.0750000000000001E-002     1.2608753582728105E-015
  -2.0700000000000000E-002    -3.3624391612026094E-015
  -2.0649999999999998E-002    -7.4403006783264889E-015
  -2.0600000000000000E-002    -1.0122353461354273E-014
  -2.0549999999999999E-002    -1.0828993646147386E-014
  -2.0500000000000001E-002    -9.3884124030253449E-015
  -2.0449999999999999E-002    -6.0877590572384681E-015
  -2.0400000000000001E-002    -1.6236541359681685E-015
  -2.0350000000000000E-002     3.0400078757160789E-015
  -2.0299999999999999E-002     6.8775790473117358E-015
  -2.0250000000000001E-002     9.0256638859805424E-015
  -2.0199999999999999E-002     8.9754831397694561E-015
  -2.0150000000000001E-002     6.6896301037175115E-015
  -2.0100000000000000E-002     2.6162426953953530E-015
  -2.0049999999999998E-002    -2.4027190509955952E-015
  -2.0000000000000000E-002    -7.3072433176970123E-015
  -1.9949999999999999E-002    -1.1037329783420520E-014
  -1.9900000000000001E-002    -1.2741861920936817E-014
  -1.9850000000000000E-002    -1.1930513323947834E-014
  -1.9799999999999998E-002    -8.5376186788293812E-015
  -1.9750000000000000E-002    -2.8920468825033001E-015
  -1.9699999999999999E-002     4.3857211425420423E-015
  -1.9650000000000001E-002     1.2517726866018645E-014
  -1.9599999999999999E-002     2.0685025594630240E-014
  -1.9550000000000001E-002     2.8087166807605202E-014
  -1.9500000000000000E-002     3.3930007329397964E-014
  -1.9449999999999999E-002     3.7359973878073264E-014
  -1.9400000000000001E-002     3.7393509887822797E-014
  -1.9349999999999999E-002     3.2907207569828298E-014
  -1.9300000000000001E-002     2.2748583763346355E-014
  -1.9250000000000000E-002     5.9970916060521214E-015
  -1.9199999999999998E-002    -1.7645205187049477E-014
  -1.9150000000000000E-002    -4.7410265474990373E-014
  -1.9099999999999999E-002    -8.1091202271673191E-014
  -1.9050000000000001E-002    -1.1488085599533298E-013
  -1.9000000000000000E-002    -1.4354180835708657E-013
  -1.8949999999999998E-002    -1.6096569755624143E-013
  -1.8900000000000000E-002    -1.6108859552587435E-013
  -1.8849999999999999E-002    -1.3903003543035512E-013
  -1.8800000000000001E-002    -9.2241956002864027E-014
  -1.8749999999999999E-002    -2.1418140630284041E-014
  -1.8700000000000001E-002     6.9063243715117053E-014
  -1.8650000000000000E-002     1.7130807997532624E-013
  -1.8599999999999998E-002     2.7470324910235958E-013
  -1.8550000000000001E-002     3.6721955311745250E-013
  -1.8499999999999999E-002     4.3697966596168748E-013
  -1.8450000000000001E-002     4.7378785630383209E-013
  -1.8400000000000000E-002     4.7032852188942672E-013
  -1.8349999999999998E-002     4.2282765632377295E-013
  -1.8300000000000000E-002     3.3110937830658112E-013
  -1.8249999999999999E-002     1.9813679422156706E-013
  -1.8200000000000001E-002     2.9258311224648225E-014
  -1.8149999999999999E-002    -1.6855243163066965E-013
  -1.8100000000000002E-002    -3.8718914246226477E-013
  -1.8050000000000000E-002    -6.1746189112994434E-013
  -1.7999999999999999E-002    -8.4868625992044519E-013
  -1.7950000000000001E-002    -1.0679648299318945E-012
  -1.7899999999999999E-002    -1.2594632444198903E-012
  -1.7850000000000001E-002    -1.4040522298342110E-012
  -1.7800000000000000E-002    -1.4796684004464435E-012
  -1.7749999999999998E-002    -1.4626302156158320E-012
  -1.7700000000000000E-002    -1.3299600174751547E-012
  -1.7649999999999999E-002    -1.0625483948691926E-012
  -1.7600000000000001E-002    -6.4879840104838631E-013
  -1.7550000000000000E-002    -8.8252159421359563E-014
  -1.7499999999999998E-002     6.0534307475649324E-013
  -1.7450000000000000E-002     1.4020264465087806E-012
  -1.7399999999999999E-002     2.2550341760953878E-012
  -1.7350000000000001E-002     3.1018175664522439E-012
  -1.7299999999999999E-002     3.8666655265176078E-012
  -1.7250000000000001E-002     4.4647761181992135E-012
  -1.7200000000000000E-002     4.8075079485975177E-012
  -1.7149999999999999E-002     4.8085183597774364E-012
  -1.7100000000000001E-002     4.3905040095860336E-012
  -1.7049999999999999E-002     3.4923048344024610E-012
  -1.7000000000000001E-002     2.0761851276073491E-012
  -1.6950000000000000E-002     1.3510839029744213E-013
  -1.6899999999999998E-002    -2.3002230089665504E-012
  -1.6850000000000000E-002    -5.1548963199138365E-012
  -1.6799999999999999E-002    -8.3043603232146168E-012
  -1.6750000000000001E-002    -1.1570672312387802E-011
  -1.6700000000000000E-002    -1.4721123545532061E-011
  -1.6649999999999998E-002    -1.7469949807430669E-011
  -1.6600000000000000E-002    -1.9483694600879067E-011
  -1.6549999999999999E-002    -2.0390453504385902E-011
  -1.6500000000000001E-002    -1.9792845790680646E-011
  -1.6449999999999999E-002    -1.7284023853293318E-011
  -1.6400000000000001E-002    -1.2465609490396920E-011
  -1.6350000000000000E-002    -4.9660631718486323E-012
  -1.6299999999999999E-002     5.5421293540720057E-012
  -1.6250000000000001E-002     1.9327965273319303E-011
  -1.6199999999999999E-002     3.6591302137082971E-011
  -1.6150000000000001E-002     5.7456709557388193E-011
  -1.6100000000000000E-002     8.1971888308081293E-011
  -1.6049999999999998E-002     1.1011010369668418E-010
  -1.6000000000000000E-002     1.4177575057216555E-010
  -1.5949999999999999E-002     1.7681206081379720E-010
  -1.5900000000000001E-002     2.1500991483978152E-010
  -1.5850000000000000E-002     2.5611734146490815E-010
  -1.5799999999999998E-002     2.9984919624901572E-010
  -1.5750000000000000E-002     3.4589730981151571E-010
  -1.5699999999999999E-002     3.9394133056531784E-010
  -1.5650000000000001E-002     4.4366035289333019E-010
  -1.5599999999999999E-002     4.9474534564783702E-010
  -1.5550000000000001E-002     5.4691180579961906E-010
  -1.5500000000000000E-002     5.9991195899108067E-010
  -1.5449999999999998E-002     6.5354461730524957E-010
  -1.5400000000000000E-002     7.0766231811787171E-010
  -1.5349999999999999E-002     7.6217416999332706E-010
  -1.5300000000000001E-002     8.1704426290523901E-010
  -1.5250000000000000E-002     8.7228557538647773E-010
  -1.5199999999999998E-002     9.2795078646270841E-010
  -1.5150000000000000E-002     9.8412031653582869E-010
  -1.5099999999999999E-002     1.0408913670222036E-009
  -1.5050000000000001E-002     1.0983668524325165E-009
  -1.4999999999999999E-002     1.1566480642803608E-009
  -1.4949999999999998E-002     1.2158297452111502E-009
  -1.4900000000000000E-002     1.2759987858720353E-009
  -1.4849999999999999E-002     1.3372354675350230E-009
  -1.4800000000000001E-002     1.3996164843367742E-009
  -1.4749999999999999E-002     1.4632183833241949E-009
  -1.4700000000000001E-002     1.5281214850221746E-009
  -1.4650000000000000E-002     1.5944122517263695E-009
  -1.4599999999999998E-002     1.6621853051987553E-009
  -1.4550000000000000E-002     1.7315439526867494E-009
  -1.4499999999999999E-002     1.8025996821419238E-009
  -1.4450000000000001E-002     1.8754713027487790E-009
  -1.4400000000000000E-002     1.9502832673571669E-009
  -1.4349999999999998E-002     2.0271646123772248E-009
  -1.4300000000000000E-002     2.1062461772202713E-009
  -1.4249999999999999E-002     2.1876589827094672E-009
  -1.4200000000000001E-002     2.2715300983625426E-009
  -1.4149999999999999E-002     2.3579793015205887E-009
  -1.4099999999999998E-002     2.4471129372240217E-009
  -1.4050000000000000E-002     2.5390177377972487E-009
  -1.3999999999999999E-002     2.6337543356629161E-009
  -1.3950000000000001E-002     2.7313516183745089E-009
  -1.3899999999999999E-002     2.8318020985637712E-009
  -1.3850000000000001E-002     2.9350612282593364E-009
  -1.3800000000000000E-002     3.0410514550477043E-009
  -1.3749999999999998E-002     3.1496714228466607E-009
  -1.3700000000000000E-002     3.2608118865781800E-009
  -1.3649999999999999E-002     3.3743745832851701E-009
  -1.3600000000000001E-002     3.4902958250912994E-009
  -1.3550000000000000E-002     3.6085703484445015E-009
  -1.3499999999999998E-002     3.7292663677367024E-009
  -1.3450000000000000E-002     3.8525413855918968E-009
  -1.3399999999999999E-002     3.9786405457162864E-009
  -1.3350000000000001E-002     4.1078905090736371E-009
  -1.3299999999999999E-002     4.2406775774218309E-009
  -1.3249999999999998E-002     4.3774215254585021E-009
  -1.3200000000000000E-002     4.5185439665767706E-009
  -1.3149999999999998E-002     4.6644348786238234E-009
  -1.3100000000000001E-002     4.8154257286959018E-009
  -1.3049999999999999E-002     4.9717679141646212E-009
  -1.3000000000000001E-002     5.1336208732258028E-009
  -1.2950000000000000E-002     5.3010503530648275E-009
  -1.2899999999999998E-002     5.4740351431005580E-009
  -1.2850000000000000E-002     5.6524786592136913E-009
  -1.2799999999999999E-002     5.8362284761159690E-009