  -4.0000000000000001E-002     0.0000000000000000     
  -3.9949999999999999E-002     0.0000000000000000     
  -3.9899999999999998E-002     0.0000000000000000     
  -3.9850000000000003E-002     0.0000000000000000     
  -3.9800000000000002E-002     0.0000000000000000     
  -3.9750000000000001E-002     0.0000000000000000     
  -3.9699999999999999E-002     0.0000000000000000     
  -3.9649999999999998E-002     0.0000000000000000     
  -3.9600000000000003E-002     0.0000000000000000     
  -3.9550000000000002E-002     0.0000000000000000     
  -3.9500000000000000E-002     0.0000000000000000     
  -3.9449999999999999E-002     0.0000000000000000     
  -3.9399999999999998E-002     0.0000000000000000     
  -3.9350000000000003E-002     0.0000000000000000     
  -3.9300000000000002E-002     0.0000000000000000     
  -3.9250000000000000E-002     0.0000000000000000     
  -3.9199999999999999E-002     0.0000000000000000     
  -3.9150000000000004E-002     0.0000000000000000     
  -3.9100000000000003E-002     0.0000000000000000     
  -3.9050000000000001E-002     0.0000000000000000     
  -3.9000000000000000E-002     0.0000000000000000     
  -3.8949999999999999E-002     0.0000000000000000     
  -3.8900000000000004E-002     0.0000000000000000     
  -3.8850000000000003E-002     0.0000000000000000     
  -3.8800000000000001E-002     0.0000000000000000     
  -3.8750000000000000E-002     0.0000000000000000     
  -3.8699999999999998E-002     0.0000000000000000     
  -3.8650000000000004E-002     0.0000000000000000     
  -3.8600000000000002E-002     0.0000000000000000     
  -3.8550000000000001E-002     0.0000000000000000     
  -3.8500000000000000E-002     0.0000000000000000     
  -3.8449999999999998E-002     0.0000000000000000     
  -3.8400000000000004E-002     0.0000000000000000     
  -3.8350000000000002E-002     0.0000000000000000     
  -3.8300000000000001E-002     0.0000000000000000     
  -3.8249999999999999E-002     0.0000000000000000     
  -3.8199999999999998E-002     0.0000000000000000     
  -3.8150000000000003E-002     0.0000000000000000     
  -3.8100000000000002E-002     0.0000000000000000     
  -3.8050000000000000E-002     0.0000000000000000     
  -3.7999999999999999E-002     0.0000000000000000     
  -3.7949999999999998E-002     0.0000000000000000     
  -3.7900000000000003E-002     0.0000000000000000     
  -3.7850000000000002E-002     0.0000000000000000     
  -3.7800000000000000E-002     0.0000000000000000     
  -3.7749999999999999E-002     0.0000000000000000     
  -3.7699999999999997E-002     0.0000000000000000     
  -3.7650000000000003E-002     0.0000000000000000     
  -3.7600000000000001E-002     0.0000000000000000     
  -3.7550000000000000E-002     0.0000000000000000     
  -3.7499999999999999E-002     0.0000000000000000     
  -3.7449999999999997E-002     0.0000000000000000     
  -3.7400000000000003E-002     0.0000000000000000     
  -3.7350000000000001E-002     0.0000000000000000     
  -3.7300000000000000E-002     0.0000000000000000     
  -3.7249999999999998E-002     0.0000000000000000     
  -3.7200000000000004E-002     0.0000000000000000     
  -3.7150000000000002E-002     0.0000000000000000     
  -3.7100000000000001E-002     0.0000000000000000     
  -3.7050000000000000E-002     0.0000000000000000     
  -3.6999999999999998E-002     0.0000000000000000     
  -3.6950000000000004E-002     0.0000000000000000     
  -3.6900000000000002E-002     0.0000000000000000     
  -3.6850000000000001E-002     0.0000000000000000     
  -3.6799999999999999E-002     0.0000000000000000     
  -3.6749999999999998E-002     0.0000000000000000     
  -3.6700000000000003E-002     0.0000000000000000     
  -3.6650000000000002E-002     0.0000000000000000     
  -3.6600000000000001E-002     0.0000000000000000     
  -3.6549999999999999E-002     0.0000000000000000     
  -3.6499999999999998E-002     0.0000000000000000     
  -3.6450000000000003E-002     0.0000000000000000     
  -3.6400000000000002E-002     0.0000000000000000     
  -3.6350000000000000E-002     0.0000000000000000     
  -3.6299999999999999E-002     0.0000000000000000     
  -3.6249999999999998E-002     0.0000000000000000     
  -3.6200000000000003E-002     0.0000000000000000     
  -3.6150000000000002E-002     0.0000000000000000     
  -3.6100000000000000E-002     0.0000000000000000     
  -3.6049999999999999E-002     0.0000000000000000     
  -3.6000000000000004E-002     0.0000000000000000     
  -3.5950000000000003E-002     0.0000000000000000     
  -3.5900000000000001E-002     0.0000000000000000     
  -3.5850000000000000E-002     0.0000000000000000     
  -3.5799999999999998E-002     0.0000000000000000     
  -3.5750000000000004E-002     0.0000000000000000     
  -3.5700000000000003E-002     0.0000000000000000     
  -3.5650000000000001E-002     0.0000000000000000     
  -3.5600000000000000E-002     0.0000000000000000     
  -3.5549999999999998E-002     0.0000000000000000     
  -3.5500000000000004E-002     0.0000000000000000     
  -3.5450000000000002E-002     0.0000000000000000     
  -3.5400000000000001E-002     0.0000000000000000     
  -3.5349999999999999E-002     0.0000000000000000     
  -3.5299999999999998E-002     0.0000000000000000     
  -3.5250000000000004E-002     0.0000000000000000     
  -3.5200000000000002E-002     0.0000000000000000     
  -3.5150000000000001E-002     0.0000000000000000     
  -3.5099999999999999E-002     0.0000000000000000     
  -3.5049999999999998E-002     0.0000000000000000     
  -3.5000000000000003E-002     0.0000000000000000     
  -3.4950000000000002E-002     0.0000000000000000     
  -3.4900000000000000E-002     0.0000000000000000     
  -3.4849999999999999E-002     0.0000000000000000     
  -3.4799999999999998E-002     0.0000000000000000     
  -3.4750000000000003E-002     0.0000000000000000     
  -3.4700000000000002E-002     0.0000000000000000     
  -3.4650000000000000E-002     0.0000000000000000     
  -3.4599999999999999E-002     0.0000000000000000     
  -3.4549999999999997E-002    -4.0766314595158758E-040
  -3.4500000000000003E-002    -7.6923748275450761E-040
  -3.4450000000000001E-002    -7.6923748275450761E-040
  -3.4400000000000000E-002     4.0205455952263942E-040
  -3.4349999999999999E-002     1.8202004440767173E-039
  -3.4299999999999997E-002     3.7217266459382807E-039
  -3.4250000000000003E-002     5.8256906627435036E-039
  -3.4200000000000001E-002     6.4771486385150779E-039
  -3.4150000000000000E-002     2.5177585970922884E-039
  -3.4099999999999998E-002    -6.9564521710141496E-039
  -3.4049999999999997E-002    -2.2350439128290524E-038
  -3.4000000000000002E-002    -3.3196988367571389E-038
  -3.3950000000000001E-002    -3.5996083527679931E-038
  -3.3900000000000000E-002    -2.1181350514735468E-038
  -3.3849999999999998E-002     1.5563273733600043E-038
  -3.3799999999999997E-002     5.8798166246352213E-038
  -3.3750000000000002E-002     9.0171790970403113E-038
  -3.3700000000000001E-002     8.8751732617444814E-038
  -3.3649999999999999E-002     5.2936255543904655E-038
  -3.3599999999999998E-002    -7.3312113647766451E-039
  -3.3550000000000003E-002    -7.4380292798218574E-038
  -3.3500000000000002E-002    -7.8532503332693860E-038
  -3.3450000000000001E-002     1.0745668777786604E-038
  -3.3399999999999999E-002     1.9515088006347881E-037
  -3.3349999999999998E-002     3.6613018167269933E-037
  -3.3300000000000003E-002     3.6985952240886848E-037
  -3.3250000000000002E-002     2.8771531697291415E-038
  -3.3200000000000000E-002    -7.5665366923582371E-037
  -3.3149999999999999E-002    -1.8411616785858897E-036
  -3.3099999999999997E-002    -2.7847847274065130E-036
  -3.3050000000000003E-002    -2.8919644123346557E-036
  -3.3000000000000002E-002    -1.5210674331600621E-036
  -3.2950000000000000E-002     1.4828049300773639E-036
  -3.2899999999999999E-002     5.3974160402399394E-036
  -3.2850000000000004E-002     8.5954287405370719E-036
  -3.2800000000000003E-002     9.1393443044503809E-036
  -3.2750000000000001E-002     5.9718953347674817E-036
  -3.2700000000000000E-002     2.0203110981674024E-037
  -3.2649999999999998E-002    -4.4147249643013662E-036
  -3.2600000000000004E-002    -2.7750323071054910E-036
  -3.2550000000000003E-002     8.1482468920944639E-036
  -3.2500000000000001E-002     2.4712812677781215E-035
  -3.2450000000000000E-002     3.3389528163481494E-035
  -3.2399999999999998E-002     1.2407353855560436E-035
  -3.2350000000000004E-002    -5.9007987350529279E-035
  -3.2300000000000002E-002    -1.8418050678262866E-034
  -3.2250000000000001E-002    -3.3071760112457444E-034
  -3.2199999999999999E-002    -4.2083352286270923E-034
  -3.2149999999999998E-002    -3.4254107096989077E-034
  -3.2100000000000004E-002     1.0309584311419097E-035
  -3.2050000000000002E-002     6.7278008067498806E-034
  -3.2000000000000001E-002     1.5384526746462642E-033
  -3.1949999999999999E-002     2.3186573889601107E-033
  -3.1899999999999998E-002     2.5700387715429768E-033
  -3.1850000000000003E-002     1.8149466272431338E-033
  -3.1800000000000002E-002    -2.5450522858444631E-034
  -3.1750000000000000E-002    -3.5424682529527806E-033
  -3.1699999999999999E-002    -7.3772810568675156E-033
  -3.1649999999999998E-002    -1.0503731759535580E-032
  -3.1600000000000003E-002    -1.1310793701837588E-032
  -3.1550000000000002E-002    -8.2937463776492938E-033
  -3.1500000000000000E-002    -6.5705620419363388E-034
  -3.1449999999999999E-002     1.1113966865039681E-032
  -3.1399999999999997E-002     2.4914669384191098E-032
  -3.1350000000000003E-002     3.7082736168837951E-032
  -3.1300000000000001E-002     4.2938468526245615E-032
  -3.1250000000000000E-002     3.7773963049305835E-032
  -3.1199999999999999E-002     1.8170545221898675E-032
  -3.1150000000000001E-002    -1.6537015350280647E-032
  -3.1100000000000003E-002    -6.2884974185412262E-032
  -3.1050000000000001E-002    -1.1232065120869267E-031
  -3.1000000000000000E-002    -1.5113214596585411E-031
  -3.0949999999999998E-002    -1.6188313794420174E-031
  -3.0900000000000000E-002    -1.2694001628945497E-031
  -3.0850000000000002E-002    -3.4269207332295910E-032
  -3.0800000000000001E-002     1.1523357929569573E-031
  -3.0750000000000000E-002     3.0091487390145114E-031
  -3.0699999999999998E-002     4.7924934501299491E-031
  -3.0650000000000000E-002     5.8795089029486534E-031
  -3.0600000000000002E-002     5.5948795644439642E-031
  -3.0550000000000001E-002     3.4300171377796949E-031
  -3.0499999999999999E-002    -7.0691503655103220E-032
  -3.0449999999999998E-002    -6.3003587448279717E-031
  -3.0400000000000000E-002    -1.2194782269243714E-030
  -3.0350000000000002E-002    -1.6781967285027051E-030
  -3.0300000000000001E-002    -1.8389482663622330E-030
  -3.0249999999999999E-002    -1.5755281076948873E-030
  -3.0200000000000001E-002    -8.4096787574607367E-031
  -3.0150000000000000E-002     3.1953135428272438E-031
  -3.0100000000000002E-002     1.7848803359818235E-030
  -3.0050000000000000E-002     3.3889918527989518E-030
  -2.9999999999999999E-002     4.9364303207635793E-030
  -2.9950000000000001E-002     6.1736944837947325E-030
  -2.9899999999999999E-002     6.7125627762685049E-030
  -2.9850000000000002E-002     5.9493452844214842E-030
  -2.9800000000000000E-002     3.0736574803787548E-030
  -2.9749999999999999E-002    -2.7207578938759244E-030
  -2.9700000000000001E-002    -1.1756908207948487E-029
  -2.9650000000000003E-002    -2.3187172337463265E-029
  -2.9600000000000001E-002    -3.4339665134505725E-029
  -2.9550000000000000E-002    -4.0506063666732275E-029
  -2.9499999999999998E-002    -3.5623254076005148E-029
  -2.9450000000000000E-002    -1.4126786019964058E-029
  -2.9400000000000003E-002     2.6173872973621428E-029
  -2.9350000000000001E-002     8.0950287530529091E-029
  -2.9300000000000000E-002     1.3725859852953383E-028
  -2.9249999999999998E-002     1.7404503855237957E-028
  -2.9200000000000000E-002     1.6643173820039924E-028
  -2.9150000000000002E-002     9.3860857678418431E-029
  -2.9100000000000001E-002    -4.9479058891534951E-029
  -2.9049999999999999E-002    -2.4522938101493247E-028
  -2.8999999999999998E-002    -4.4675586423234273E-028
  -2.8950000000000000E-002    -5.8430717250165826E-028
  -2.8900000000000002E-002    -5.8122159224710830E-028
  -2.8850000000000001E-002    -3.7925364158850954E-028
  -2.8799999999999999E-002     3.3195252616282631E-029
  -2.8749999999999998E-002     5.9946732621682236E-028
  -2.8700000000000000E-002     1.1898704926097734E-027
  -2.8650000000000002E-002     1.6209233412722679E-027
  -2.8600000000000000E-002     1.6991823910165694E-027
  -2.8549999999999999E-002     1.2815298433093507E-027
  -2.8500000000000001E-002     3.3584729569790978E-028
  -2.8450000000000000E-002    -1.0180620726951684E-027
  -2.8400000000000002E-002    -2.5052282121448248E-027
  -2.8350000000000000E-002    -3.7389458688895530E-027
  -2.8299999999999999E-002    -4.3062714925500136E-027
  -2.8250000000000001E-002    -3.8768710683225503E-027
  -2.8200000000000003E-002    -2.3069582547802185E-027
  -2.8150000000000001E-002     2.9103961003664823E-028
  -2.8100000000000000E-002     3.5339543710670063E-027
  -2.8049999999999999E-002     6.8140433820311367E-027
  -2.8000000000000001E-002     9.3948456793093451E-027
  -2.7950000000000003E-002     1.0534662505980882E-026
  -2.7900000000000001E-002     9.6145073080583703E-027
  -2.7850000000000000E-002     6.2559713465828453E-027
  -2.7799999999999998E-002     4.2727777839353602E-028
  -2.7750000000000000E-002    -7.4566724187785577E-027
  -2.7700000000000002E-002    -1.6440798602501168E-026
  -2.7650000000000001E-002    -2.4966718975618029E-026
  -2.7600000000000000E-002    -3.0897170678136484E-026
  -2.7549999999999998E-002    -3.1711244702610967E-026
  -2.7500000000000000E-002    -2.4950437451465534E-026
  -2.7450000000000002E-002    -8.9433570423650285E-027
  -2.7400000000000001E-002     1.6267742222753708E-026
  -2.7349999999999999E-002     4.8013756129139337E-026
  -2.7299999999999998E-002     8.0442086883678522E-026
  -2.7250000000000000E-002     1.0471685067757450E-025
  -2.7200000000000002E-002     1.1030484619377597E-025
  -2.7150000000000001E-002     8.7444372334370314E-026
  -2.7099999999999999E-002     3.0519850066901781E-026
  -2.7049999999999998E-002    -5.8374024755484491E-026
  -2.7000000000000000E-002    -1.6676809375145808E-025
  -2.6950000000000002E-002    -2.7129449501182377E-025
  -2.6900000000000000E-002    -3.4033644034446074E-025
  -2.6849999999999999E-002    -3.4026237707875627E-025
  -2.6800000000000001E-002    -2.4467096238654371E-025
  -2.6749999999999999E-002    -4.4919956122746850E-026
  -2.6700000000000002E-002     2.4079821917956412E-025
  -2.6650000000000000E-002     5.6308096691556030E-025
  -2.6599999999999999E-002     8.4457060373980398E-025
  -2.6550000000000001E-002     9.9246880544915764E-025
  -2.6500000000000003E-002     9.1972975583247088E-025
  -2.6450000000000001E-002     5.7161596705750944E-025
  -2.6400000000000000E-002    -4.8308359996757731E-026
  -2.6349999999999998E-002    -8.6035179554755987E-025
  -2.6300000000000000E-002    -1.7066270624667206E-024
  -2.6250000000000002E-002    -2.3701190919345822E-024
  -2.6200000000000001E-002    -2.6158791009196898E-024
  -2.6150000000000000E-002    -2.2494022614137723E-024
  -2.6099999999999998E-002    -1.1810416744046422E-024
  -2.6050000000000000E-002     5.1947163950132546E-025
  -2.6000000000000002E-002     2.5959484036329149E-024
  -2.5950000000000001E-002     4.6208328830070650E-024
  -2.5899999999999999E-002     6.0595936987380624E-024
  -2.5849999999999998E-002     6.3801163833593479E-024
  -2.5800000000000000E-002     5.1897621435266276E-024
  -2.5750000000000002E-002     2.3713703485427447E-024
  -2.5700000000000001E-002    -1.8168932525311101E-024
  -2.5649999999999999E-002    -6.7114399844300506E-024
  -2.5599999999999998E-002    -1.1306152790678695E-023
  -2.5550000000000000E-002    -1.4413162349444462E-023
  -2.5500000000000002E-002    -1.4903566640018405E-023
  -2.5450000000000000E-002    -1.1987636603527590E-023
  -2.5399999999999999E-002    -5.4775395338370580E-024
  -2.5349999999999998E-002     4.0304174814419667E-024
  -2.5300000000000000E-002     1.5109947143523683E-023
  -2.5250000000000002E-002     2.5631381888094250E-023
  -2.5200000000000000E-002     3.3067175780901741E-023
  -2.5149999999999999E-002     3.4948307650211957E-023
  -2.5100000000000001E-002     2.9410052979457992E-023
  -2.5049999999999999E-002     1.5738215287217534E-023
  -2.5000000000000001E-002    -5.1904350711685033E-024
  -2.4950000000000000E-002    -3.0683544595103161E-023
  -2.4899999999999999E-002    -5.6322720999198412E-023
  -2.4850000000000001E-002    -7.6434973848588688E-023
  -2.4800000000000003E-002    -8.4962431073204696E-023
  -2.4750000000000001E-002    -7.6673763345218536E-023
  -2.4700000000000000E-002    -4.8569868858282652E-023
  -2.4649999999999998E-002    -1.2398872881450581E-024
  -2.4600000000000000E-002     6.0157732802551202E-023
  -2.4550000000000002E-002     1.2565009636978342E-022
  -2.4500000000000001E-002     1.8125986701340014E-022
  -2.4450000000000000E-002     2.1104559299913779E-022
  -2.4399999999999998E-002     2.0029611483641607E-022
  -2.4350000000000000E-002     1.3947383696131548E-022
  -2.4299999999999999E-002     2.8157281474335524E-023
  -2.4250000000000001E-002    -1.2203045040135091E-022
  -2.4199999999999999E-002    -2.8659494121559190E-022
  -2.4150000000000001E-002    -4.3033361143958852E-022
  -2.4100000000000000E-002    -5.1286163550472713E-022
  -2.4049999999999998E-002    -4.9709257531184635E-022
  -2.4000000000000000E-002    -3.5935678985989168E-022
  -2.3949999999999999E-002    -9.9019049329458620E-023
  -2.3900000000000001E-002     2.5501724230026085E-022
  -2.3850000000000000E-002     6.4343406810031366E-022
  -2.3800000000000002E-002     9.8297172268778005E-022
  -2.3750000000000000E-002     1.1805136313399283E-021
  -2.3699999999999999E-002     1.1531622534430392E-021
  -2.3650000000000001E-002     8.5076649317213626E-022
  -2.3599999999999999E-002     2.7591430009960066E-022
  -2.3550000000000001E-002    -5.0409913082910249E-022
  -2.3500000000000000E-002    -1.3580474475834170E-021
  -2.3449999999999999E-002    -2.1069072845912932E-021
  -2.3400000000000001E-002    -2.5547935254060294E-021
  -2.3349999999999999E-002    -2.5304913663355948E-021
  -2.3300000000000001E-002    -1.9320535198035402E-021
  -2.3250000000000000E-002    -7.6477551647269629E-022
  -2.3199999999999998E-002     8.3740961614807315E-022
  -2.3150000000000000E-002     2.6151144865507795E-021
  -2.3099999999999999E-002     4.2151704091892872E-021
  -2.3050000000000001E-002     5.2490802717586892E-021
  -2.3000000000000000E-002     5.3704193672797296E-021
  -2.2950000000000002E-002     4.3579743657915862E-021
  -2.2900000000000000E-002     2.1879792041587421E-021
  -2.2849999999999999E-002    -9.2166159280054374E-022
  -2.2800000000000001E-002    -4.5093424704350509E-021
  -2.2749999999999999E-002    -7.9179107180362525E-021
  -2.2700000000000001E-002    -1.0392283533583028E-020
  -2.2650000000000000E-002    -1.1215880204863682E-020
  -2.2599999999999999E-002    -9.8657775417095730E-021
  -2.2550000000000001E-002    -6.1592676151337823E-021
  -2.2499999999999999E-002    -3.6114764258767623E-022
  -2.2450000000000001E-002     6.7772129881618886E-021
  -2.2400000000000000E-002     1.4068478516573515E-020
  -2.2349999999999998E-002     2.0038225732697987E-020
  -2.2300000000000000E-002     2.3163421150979529E-020
  -2.2249999999999999E-002     2.2172565432225873E-020
  -2.2200000000000001E-002     1.6361146137286142E-020
  -2.2150000000000000E-002     5.8624132744003385E-021
  -2.2100000000000002E-002    -8.1917702477520792E-021
  -2.2050000000000000E-002    -2.3678513781666820E-020
  -2.1999999999999999E-002    -3.7698230691196585E-020
  -2.1950000000000001E-002    -4.7000564089903640E-020
  -2.1899999999999999E-002    -4.8583531954434203E-020
  -2.1850000000000001E-002    -4.0381177745976074E-020
  -2.1800000000000000E-002    -2.1914819886727304E-020
  -2.1749999999999999E-002     5.2403980850575994E-021
  -2.1700000000000001E-002     3.7318648852383558E-020
  -2.1649999999999999E-002     6.8664781842730818E-020
  -2.1600000000000001E-002     9.2512601639287417E-020
  -2.1550000000000000E-002     1.0218201625725215E-019
  -2.1499999999999998E-002     9.2530394236531993E-020
  -2.1450000000000000E-002     6.1397468091360318E-020
  -2.1399999999999999E-002     1.0724266276650233E-020
  -2.1350000000000001E-002    -5.2973409050961105E-020
  -2.1299999999999999E-002    -1.1902332363201257E-019
  -2.1250000000000002E-002    -1.7400764775271520E-019
  -2.1200000000000000E-002    -2.0406639310651788E-019
  -2.1149999999999999E-002    -1.9777328327062341E-019
  -2.1100000000000001E-002    -1.4907026674412191E-019
  -2.1049999999999999E-002    -5.9631336265880258E-020
  -2.1000000000000001E-002     5.9971617797524727E-020
  -2.0950000000000000E-002     1.9078305650254309E-019
  -2.0899999999999998E-002     3.0786249569514052E-019
  -2.0850000000000000E-002     3.8439756480024385E-019
  -2.0799999999999999E-002     3.9696148417006727E-019
  -2.0750000000000001E-002     3.3099966875636105E-019
  -2.0700000000000000E-002     1.8542913543754000E-019
  -2.0649999999999998E-002    -2.4759860557719241E-020
  -2.0600000000000000E-002    -2.6876899014640005E-019
  -2.0549999999999999E-002    -5.0353059963464591E-019
  -2.0500000000000001E-002    -6.8031729347978577E-019
  -2.0449999999999999E-002    -7.5356459337217904E-019
  -2.0400000000000001E-002    -6.9048010338601256E-019
  -2.0350000000000000E-002    -4.7965273311280394E-019
  -2.0299999999999999E-002    -1.3682124764287663E-019
  -2.0250000000000001E-002     2.9374469114953100E-019
  -2.0199999999999999E-002     7.4317319997043791E-019
  -2.0150000000000001E-002     1.1272714233122408E-018
  -2.0100000000000000E-002     1.3602050031269450E-018
  -2.0049999999999998E-002     1.3706719860937467E-018
  -2.0000000000000000E-002     1.1179297403053927E-018
  -1.9949999999999999E-002     6.0467131731950236E-019
  -1.9900000000000001E-002    -1.1613900762076529E-019
  -1.9850000000000000E-002    -9.4272054041622422E-019
  -1.9799999999999998E-002    -1.7353327543603571E-018
  -1.9750000000000000E-002    -2.3361327416434670E-018
  -1.9699999999999999E-002    -2.5959153125240561E-018
  -1.9650000000000001E-002    -2.4039849978877680E-018
  -1.9599999999999999E-002    -1.7161347147822132E-018
  -1.9550000000000001E-002    -5.7511775536404262E-019
  -1.9500000000000000E-002     8.8167742938778763E-019
  -1.9449999999999999E-002     2.4312413286227821E-018
  -1.9400000000000001E-002     3.7921124314554238E-018
  -1.9349999999999999E-002     4.6679497560987372E-018
  -1.9300000000000001E-002     4.8021950799307102E-018
  -1.9250000000000000E-002     4.0352705229668919E-018
  -1.9199999999999998E-002     2.3535274697908647E-018
  -1.9150000000000000E-002    -8.1313304512297474E-020
  -1.9099999999999999E-002    -2.9318135913940938E-018
  -1.9050000000000001E-002    -5.7191212675400956E-018
  -1.9000000000000000E-002    -7.8915572247631765E-018
  -1.8949999999999998E-002    -8.9200825477520949E-018
  -1.8900000000000000E-002    -8.4063710012003325E-018
  -1.8849999999999999E-002    -6.1840526625469159E-018
  -1.8800000000000001E-002    -2.3915567260625100E-018
  -1.8749999999999999E-002     2.5029961675370204E-018
  -1.8700000000000001E-002     7.7380873367221519E-018
  -1.8650000000000000E-002     1.2359266662691154E-017
  -1.8599999999999998E-002     1.5374321174785209E-017
  -1.8550000000000001E-002     1.5941017543167765E-017
  -1.8499999999999999E-002     1.3555288046135583E-017
  -1.8450000000000001E-002     8.2026116714890235E-018
  -1.8400000000000000E-002     4.3706585961341987E-019
  -1.8349999999999998E-002    -8.6383290348674989E-018
  -1.8300000000000000E-002    -1.7500734181481873E-017
  -1.8249999999999999E-002    -2.4436686374664541E-017
  -1.8200000000000001E-002    -2.7841262180629632E-017
  -1.8149999999999999E-002    -2.6539261324746980E-017
  -1.8100000000000002E-002    -2.0069970518534658E-017
  -1.8050000000000000E-002    -8.8763294898124960E-018
  -1.7999999999999999E-002     5.6500718049040041E-018
  -1.7950000000000001E-002     2.1295620604381988E-017
  -1.7899999999999999E-002     3.5321734207467054E-017
  -1.7850000000000001E-002     4.4899298867982656E-017
  -1.7800000000000000E-002     4.7618023457706755E-017
  -1.7749999999999998E-002     4.1987069562031429E-017
  -1.7700000000000000E-002     2.7834631209764352E-017
  -1.7649999999999999E-002     6.5211578710581745E-018
  -1.7600000000000001E-002    -1.9096179102479424E-017
  -1.7550000000000000E-002    -4.4973819048445158E-017
  -1.7499999999999998E-002    -6.6447474795652175E-017
  -1.7450000000000000E-002    -7.8986452267745422E-017
  -1.7399999999999999E-002    -7.9028073627393637E-017
  -1.7350000000000001E-002    -6.4755361854379115E-017
  -1.7299999999999999E-002    -3.6672425891800814E-017
  -1.7250000000000001E-002     2.1528706381434298E-018
  -1.7200000000000000E-002     4.6269697146350985E-017
  -1.7149999999999999E-002     8.8477751847187151E-017
  -1.7100000000000001E-002     1.2086783248414925E-016
  -1.7049999999999999E-002     1.3614405206243418E-016
  -1.7000000000000001E-002     1.2903306138075709E-016
  -1.6950000000000000E-002     9.7539524247179034E-017
  -1.6899999999999998E-002     4.3796500930028729E-017
  -1.6850000000000000E-002    -2.5706620255169381E-017
  -1.6799999999999999E-002    -1.0065741095851157E-016
  -1.6750000000000001E-002    -1.6823476082369208E-016
  -1.6700000000000000E-002    -2.1508331729614230E-016
  -1.6649999999999998E-002    -2.2968387252789324E-016
  -1.6600000000000000E-002    -2.0473964762166948E-016
  -1.6549999999999999E-002    -1.3913567033287980E-016
  -1.6500000000000001E-002    -3.9040398401420575E-017
  -1.6449999999999999E-002     8.2184611896177705E-017
  -1.6400000000000001E-002     2.0542566109864092E-016
  -1.6350000000000000E-002     3.0853291929101597E-016
  -1.6299999999999999E-002     3.6998264956134962E-016
  -1.6250000000000001E-002     3.7293004540399196E-016
  -1.6199999999999999E-002     3.0894502947179691E-016
  -1.6150000000000001E-002     1.8068764593082512E-016
  -1.6100000000000000E-002     2.8819511546519633E-018
  -1.6049999999999998E-002    -1.9881358673937234E-016
  -1.6000000000000000E-002    -3.9109658402084603E-016
  -1.5949999999999999E-002    -5.3812878367912041E-016
  -1.5900000000000001E-002    -6.0773952620792233E-016
  -1.5850000000000000E-002    -5.7771110132885974E-016
  -1.5799999999999998E-002    -4.4100338193609032E-016
  -1.5750000000000000E-002    -2.0884159448751944E-016
  -1.5699999999999999E-002     8.9135427826599202E-017
  -1.5650000000000001E-002     4.0802020535267785E-016
  -1.5599999999999999E-002     6.9386857847611344E-016
  -1.5550000000000001E-002     8.9224013746719291E-016
  -1.5500000000000000E-002     9.5777412666635963E-016
  -1.5449999999999998E-002     8.6321700748070890E-016
  -1.5400000000000000E-002     6.0625708926007317E-016
  -1.5349999999999999E-002     2.1273885773298158E-016
  -1.5300000000000001E-002    -2.6468169604565513E-016
  -1.5250000000000000E-002    -7.5268730355330493E-016
  -1.5199999999999998E-002    -1.1676989046568335E-015
  -1.5150000000000000E-002    -1.4291899029777179E-015
  -1.5099999999999999E-002    -1.4739442830664448E-015
  -1.5050000000000001E-002    -1.2689238800942143E-015
  -1.4999999999999999E-002    -8.2039852978188464E-016
  -1.4949999999999998E-002    -1.7736917423557812E-016
  -1.4900000000000000E-002     5.7194001247518873E-016
  -1.4849999999999999E-002     1.3107128941621700E-015
  -1.4800000000000001E-002     1.9103060942731293E-015
  -1.4749999999999999E-002     2.2510042190278194E-015
  -1.4700000000000001E-002     2.2436875116867247E-015
  -1.4650000000000000E-002     1.8488067849576760E-015
  -1.4599999999999998E-002     1.0890775881316385E-015
  -1.4550000000000000E-002     5.2937778116719262E-017
  -1.4499999999999999E-002    -1.1129604856826831E-015
  -1.4450000000000001E-002    -2.2222689217543130E-015
  -1.4400000000000000E-002    -3.0766056102288424E-015
  -1.4349999999999998E-002    -3.4986434895803739E-015
  -1.4300000000000000E-002    -3.3654921299181429E-015
  -1.4249999999999999E-002    -2.6365268879432736E-015
  -1.4200000000000001E-002    -1.3700785671843391E-015
  -1.4149999999999999E-002     2.7531894916455380E-016
  -1.4099999999999998E-002     2.0571798107963220E-015
  -1.4050000000000000E-002     3.6820040383910002E-015
  -1.3999999999999999E-002     4.8509826262206567E-015
  -1.3950000000000001E-002     5.3117836072096229E-015
  -1.3899999999999999E-002     4.9078819818777461E-015
  -1.3850000000000001E-002     3.6163598496071302E-015
  -1.3800000000000000E-002     1.5661901941779425E-015
  -1.3749999999999998E-002    -9.6834170460095862E-016
  -1.3700000000000000E-002    -3.6004874884905485E-015
  -1.3649999999999999E-002    -5.8870300067136218E-015
  -1.3600000000000001E-002    -7.3997889408426412E-015
  -1.3550000000000000E-002    -7.8015240550528031E-015
  -1.3499999999999998E-002    -6.9132740607023715E-015
  -1.3450000000000000E-002    -4.7605006618922610E-015
  -1.3399999999999999E-002    -1.5880147211255344E-015
  -1.3350000000000001E-002     2.1616988064259827E-015
  -1.3299999999999999E-002     5.9062075548480818E-015
  -1.3249999999999998E-002     9.0100301695713395E-015
  -1.3200000000000000E-002     1.0888207399973317E-014
  -1.3149999999999998E-002     1.1110198941252201E-014
  -1.3100000000000001E-002     9.4864225273455820E-015
  -1.3049999999999999E-002     6.1213491012446365E-015
  -1.3000000000000001E-002     1.4214906045723120E-015
  -1.2950000000000000E-002    -3.9466842376485276E-015
  -1.2899999999999998E-002    -9.1458812342300639E-015
  -1.2850000000000000E-002    -1.3293093116557251E-014
  -1.2799999999999999E-002    -1.5602847710368162E-014