  -4.0000000000000001E-002     0.0000000000000000     
  -3.9949999999999999E-002     0.0000000000000000     
  -3.9899999999999998E-002     0.0000000000000000     
  -3.9850000000000003E-002     0.0000000000000000     
  -3.9800000000000002E-002     0.0000000000000000     
  -3.9750000000000001E-002     0.0000000000000000     
  -3.9699999999999999E-002     0.0000000000000000     
  -3.9649999999999998E-002     0.0000000000000000     
  -3.9600000000000003E-002     0.0000000000000000     
  -3.9550000000000002E-002     0.0000000000000000     
  -3.9500000000000000E-002     0.0000000000000000     
  -3.9449999999999999E-002     0.0000000000000000     
  -3.9399999999999998E-002     0.0000000000000000     
  -3.9350000000000003E-002     0.0000000000000000     
  -3.9300000000000002E-002     0.0000000000000000     
  -3.9250000000000000E-002     0.0000000000000000     
  -3.9199999999999999E-002     0.0000000000000000     
  -3.9150000000000004E-002     0.0000000000000000     
  -3.9100000000000003E-002     0.0000000000000000     
  -3.9050000000000001E-002     0.0000000000000000     
  -3.9000000000000000E-002     0.0000000000000000     
  -3.8949999999999999E-002     0.0000000000000000     
  -3.8900000000000004E-002     0.0000000000000000     
  -3.8850000000000003E-002     0.0000000000000000     
  -3.8800000000000001E-002     0.0000000000000000     
  -3.8750000000000000E-002     0.0000000000000000     
  -3.8699999999999998E-002     0.0000000000000000     
  -3.8650000000000004E-002     0.0000000000000000     
  -3.8600000000000002E-002     0.0000000000000000     
  -3.8550000000000001E-002     0.0000000000000000     
  -3.8500000000000000E-002     0.0000000000000000     
  -3.8449999999999998E-002     0.0000000000000000     
  -3.8400000000000004E-002     0.0000000000000000     
  -3.8350000000000002E-002     0.0000000000000000     
  -3.8300000000000001E-002     0.0000000000000000     
  -3.8249999999999999E-002     0.0000000000000000     
  -3.8199999999999998E-002     0.0000000000000000     
  -3.8150000000000003E-002     0.0000000000000000     
  -3.8100000000000002E-002     0.0000000000000000     
  -3.8050000000000000E-002     0.0000000000000000     
  -3.7999999999999999E-002     0.0000000000000000     
  -3.7949999999999998E-002     0.0000000000000000     
  -3.7900000000000003E-002     0.0000000000000000     
  -3.7850000000000002E-002     0.0000000000000000     
  -3.7800000000000000E-002     0.0000000000000000     
  -3.7749999999999999E-002     0.0000000000000000     
  -3.7699999999999997E-002     0.0000000000000000     
  -3.7650000000000003E-002     0.0000000000000000     
  -3.7600000000000001E-002     0.0000000000000000     
  -3.7550000000000000E-002     0.0000000000000000     
  -3.7499999999999999E-002     0.0000000000000000     
  -3.7449999999999997E-002     0.0000000000000000     
  -3.7400000000000003E-002     0.0000000000000000     
  -3.7350000000000001E-002     0.0000000000000000     
  -3.7300000000000000E-002     0.0000000000000000     
  -3.7249999999999998E-002     0.0000000000000000     
  -3.7200000000000004E-002     0.0000000000000000     
  -3.7150000000000002E-002     0.0000000000000000     
  -3.7100000000000001E-002     0.0000000000000000     
  -3.7050000000000000E-002     0.0000000000000000     
  -3.6999999999999998E-002     0.0000000000000000     
  -3.6950000000000004E-002     0.0000000000000000     
  -3.6900000000000002E-002     0.0000000000000000     
  -3.6850000000000001E-002     0.0000000000000000     
  -3.6799999999999999E-002     0.0000000000000000     
  -3.6749999999999998E-002     0.0000000000000000     
  -3.6700000000000003E-002     0.0000000000000000     
  -3.6650000000000002E-002     0.0000000000000000     
  -3.6600000000000001E-002     0.0000000000000000     
  -3.6549999999999999E-002     0.0000000000000000     
  -3.6499999999999998E-002     0.0000000000000000     
  -3.6450000000000003E-002     0.0000000000000000     
  -3.6400000000000002E-002     0.0000000000000000     
  -3.6350000000000000E-002     0.0000000000000000     
  -3.6299999999999999E-002     0.0000000000000000     
  -3.6249999999999998E-002     0.0000000000000000     
  -3.6200000000000003E-002     0.0000000000000000     
  -3.6150000000000002E-002     0.0000000000000000     
  -3.6100000000000000E-002     3.3174241533831957E-039
  -3.6049999999999999E-002     6.9144575931324461E-039
  -3.6000000000000004E-002     3.7141807339291077E-039
  -3.5950000000000003E-002    -1.1770362854050458E-038
  -3.5900000000000001E-002    -3.9461402909221154E-038
  -3.5850000000000000E-002    -6.8314616882168001E-038
  -3.5799999999999998E-002    -7.8062815693158680E-038
  -3.5750000000000004E-002    -6.9836085242058380E-038
  -3.5700000000000003E-002     6.7393638460837674E-039
  -3.5650000000000001E-002     1.5636357521072437E-037
  -3.5600000000000000E-002     3.9928815106342959E-037
  -3.5549999999999998E-002     6.9535181939365169E-037
  -3.5500000000000004E-002     9.2571697717227580E-037
  -3.5450000000000002E-002     8.6141577642243137E-037
  -3.5400000000000001E-002     1.9864701983668342E-037
  -3.5349999999999999E-002    -1.3322735063426082E-036
  -3.5299999999999998E-002    -3.7495662053788645E-036
  -3.5250000000000004E-002    -6.5762731741679506E-036
  -3.5200000000000002E-002    -8.6081819183527616E-036
  -3.5150000000000001E-002    -7.9275431264215734E-036
  -3.5099999999999999E-002    -2.3179870789010793E-036
  -3.5049999999999998E-002     9.7642401552301458E-036
  -3.5000000000000003E-002     2.7742073560788423E-035
  -3.4950000000000002E-002     4.7417476847639400E-035
  -3.4900000000000000E-002     6.0194970661225662E-035
  -3.4849999999999999E-002     5.4060515233418437E-035
  -3.4799999999999998E-002     1.7139736591462577E-035
  -3.4750000000000003E-002    -5.6142311578828522E-035
  -3.4700000000000002E-002    -1.5770336089376471E-034
  -3.4650000000000000E-002    -2.6030668216010088E-034
  -3.4599999999999999E-002    -3.1807384159625881E-034
  -3.4549999999999997E-002    -2.7666121238297174E-034
  -3.4500000000000003E-002    -9.3898299875677177E-035
  -3.4450000000000001E-002     2.3341614932208059E-034
  -3.4400000000000000E-002     6.4670397683586961E-034
  -3.4349999999999999E-002     1.0206023461402267E-033
  -3.4299999999999997E-002     1.1877218461560607E-033
  -3.4250000000000003E-002     9.9558798306986418E-034
  -3.4200000000000001E-002     3.8216293926884897E-034
  -3.4150000000000000E-002    -5.6049126552767483E-034
  -3.4099999999999998E-002    -1.5732041488412946E-033
  -3.4049999999999997E-002    -2.2967507550320202E-033
  -3.4000000000000002E-002    -2.4176558753083659E-033
  -3.3950000000000001E-002    -1.8466020786055124E-033
  -3.3900000000000000E-002    -8.4359866370391687E-034
  -3.3849999999999998E-002     5.0527686156804997E-036
  -3.3799999999999997E-002     1.2236093529830351E-035
  -3.3750000000000002E-002    -1.2167993197529785E-033
  -3.3700000000000001E-002    -3.3647737937647582E-033
  -3.3649999999999999E-002    -5.1679999426533046E-033
  -3.3599999999999998E-002    -4.5615308719977576E-033
  -3.3550000000000003E-002     7.2486911250751909E-034
  -3.3500000000000002E-002     1.2235286619263908E-032
  -3.3450000000000001E-002     2.9791991784011594E-032
  -3.3399999999999999E-002     5.0733035341816159E-032
  -3.3349999999999998E-002     6.9547772283158484E-032
  -3.3300000000000003E-002     7.7882217698994084E-032
  -3.3250000000000002E-002     6.4842878567932693E-032
  -3.3200000000000000E-002     1.7833835596106866E-032
  -3.3149999999999999E-002    -7.5196815011213765E-032
  -3.3099999999999997E-002    -2.2064680211808053E-031
  -3.3050000000000003E-002    -4.1007781709767446E-031
  -3.3000000000000002E-002    -6.0761698323626885E-031
  -3.2950000000000000E-002    -7.3827388552279632E-031
  -3.2899999999999999E-002    -6.8594356997991075E-031
  -3.2850000000000004E-002    -3.1252619867131648E-031
  -3.2800000000000003E-002     4.9290600934255111E-031
  -3.2750000000000001E-002     1.7362119782589692E-030
  -3.2700000000000000E-002     3.2303940193873317E-030
  -3.2649999999999998E-002     4.5363223257385477E-030
  -3.2600000000000004E-002     4.9821590120324228E-030
  -3.2550000000000003E-002     3.8042558894164440E-030
  -3.2500000000000001E-002     4.1844914175175082E-031
  -3.2450000000000000E-002    -5.2265424735288622E-030
  -3.2399999999999998E-002    -1.2325551952554879E-029
  -3.2350000000000004E-002    -1.9076918708113510E-029
  -3.2300000000000002E-002    -2.2870067233118787E-029
  -3.2250000000000001E-002    -2.0867588567402101E-029
  -3.2199999999999999E-002    -1.0914863704748518E-029
  -3.2149999999999998E-002     7.4389497888514728E-030
  -3.2100000000000004E-002     3.2128737759493059E-029
  -3.2050000000000002E-002     5.8294774629637432E-029
  -3.2000000000000001E-002     7.8749177595660793E-029
  -3.1949999999999999E-002     8.5203357569485171E-029
  -3.1899999999999998E-002     7.0073343639527062E-029
  -3.1850000000000003E-002     2.8560968428142754E-029
  -3.1800000000000002E-002    -3.9293739562986994E-029
  -3.1750000000000000E-002    -1.2683231595937543E-028
  -3.1699999999999999E-002    -2.1951316038201358E-028
  -3.1649999999999998E-002    -2.9458862443470704E-028
  -3.1600000000000003E-002    -3.2252022129271863E-028
  -3.1550000000000002E-002    -2.7127397668997616E-028
  -3.1500000000000000E-002    -1.1454369926498207E-028
  -3.1449999999999999E-002     1.5603350862904400E-028
  -3.1399999999999997E-002     5.1666239568118341E-028
  -3.1350000000000003E-002     8.9989304402124634E-028
  -3.1300000000000001E-002     1.1928326945283635E-027
  -3.1250000000000000E-002     1.2522669961401044E-027
  -3.1199999999999999E-002     9.4059956043824164E-028
  -3.1150000000000001E-002     1.7936816357722003E-028
  -3.1100000000000003E-002    -9.9244660378366666E-028
  -3.1050000000000001E-002    -2.3766035644182767E-027
  -3.1000000000000000E-002    -3.6144928161521338E-027
  -3.0949999999999998E-002    -4.2445781246112607E-027
  -3.0900000000000000E-002    -3.8196593372385683E-027
  -3.0850000000000002E-002    -2.0621066281575069E-027
  -3.0800000000000001E-002     9.8655548378623284E-028
  -3.0750000000000000E-002     4.8759669553474276E-027
  -3.0699999999999998E-002     8.7632655714988034E-027
  -3.0650000000000000E-002     1.1553693781751104E-026
  -3.0600000000000002E-002     1.2143833871350888E-026
  -3.0550000000000001E-002     9.7089927830041321E-027
  -3.0499999999999999E-002     3.9587862697532373E-027
  -3.0449999999999998E-002    -4.7034217181953096E-027
  -3.0400000000000000E-002    -1.5144962271143234E-026
  -3.0350000000000002E-002    -2.5576943670417472E-026
  -3.0300000000000001E-002    -3.3697686722175542E-026
  -3.0249999999999999E-002    -3.6885135875808736E-026
  -3.0200000000000001E-002    -3.2471988211790550E-026
  -3.0150000000000000E-002    -1.8198997281565485E-026
  -3.0100000000000002E-002     7.0441402177945042E-027
  -3.0050000000000000E-002     4.2168407992017392E-026
  -2.9999999999999999E-002     8.2709971369682160E-026
  -2.9950000000000001E-002     1.1999057280295396E-025
  -2.9899999999999999E-002     1.4130079890772840E-025
  -2.9850000000000002E-002     1.3180320502763546E-025
  -2.9800000000000000E-002     7.8508095565868563E-026
  -2.9749999999999999E-002    -2.4054902953713379E-026
  -2.9700000000000001E-002    -1.6781435909594261E-025
  -2.9650000000000003E-002    -3.2700519149897117E-025
  -2.9600000000000001E-002    -4.5845560956346022E-025
  -2.9550000000000000E-002    -5.0831337273572340E-025
  -2.9499999999999998E-002    -4.2558196456878425E-025
  -2.9450000000000000E-002    -1.8040221786010693E-025
  -2.9400000000000003E-002     2.1755753241391429E-025
  -2.9350000000000001E-002     7.0698048258057806E-025
  -2.9300000000000000E-002     1.1754090053206343E-024
  -2.9249999999999998E-002     1.4764329698989920E-024
  -2.9200000000000000E-002     1.4631940595374907E-024
  -2.9150000000000002E-002     1.0323675556761445E-024
  -2.9100000000000001E-002     1.6786624023009782E-025
  -2.9049999999999999E-002    -1.0290043719740483E-024
  -2.8999999999999998E-002    -2.3350727788427109E-024
  -2.8950000000000000E-002    -3.4335463009633480E-024
  -2.8900000000000002E-002    -3.9740464388478076E-024
  -2.8850000000000001E-002    -3.6547150192487461E-024
  -2.8799999999999999E-002    -2.3096111864540932E-024
  -2.8749999999999998E-002     1.8693703930582716E-026
  -2.8700000000000000E-002     3.0400707728505197E-024
  -2.8650000000000002E-002     6.2246626977275431E-024
  -2.8600000000000000E-002     8.8630780183653156E-024
  -2.8549999999999999E-002     1.0176114331532275E-023
  -2.8500000000000001E-002     9.4637362511277099E-024
  -2.8450000000000000E-002     6.2764279078098235E-024
  -2.8400000000000002E-002     5.8551468260935209E-025
  -2.8350000000000000E-002    -7.0783604186494875E-024
  -2.8299999999999999E-002    -1.5557009161600645E-023
  -2.8250000000000001E-002    -2.3109699786607240E-023
  -2.8200000000000003E-002    -2.7610283483528447E-023
  -2.8150000000000001E-002    -2.6916204728960800E-023
  -2.8100000000000000E-002    -1.9391324629046785E-023
  -2.8049999999999999E-002    -4.5102848752724779E-024
  -2.8000000000000001E-002     1.6587251593934397E-023
  -2.7950000000000003E-002     4.0769681319692218E-023
  -2.7900000000000001E-002     6.2999549016169413E-023
  -2.7850000000000000E-002     7.6970747755346517E-023
  -2.7799999999999998E-002     7.6324389359081341E-023
  -2.7750000000000000E-002     5.6310087967992376E-023
  -2.7700000000000002E-002     1.5582766038191237E-023
  -2.7650000000000001E-002    -4.2317528936544569E-023
  -2.7600000000000000E-002    -1.0830990539847165E-022
  -2.7549999999999998E-002    -1.6837336446910541E-022
  -2.7500000000000000E-002    -2.0561949147088868E-022
  -2.7450000000000002E-002    -2.0371975899897200E-022
  -2.7400000000000001E-002    -1.5118381277592912E-022
  -2.7349999999999999E-002    -4.5636944190616539E-023
  -2.7299999999999998E-002     1.0296994439290937E-022
  -2.7250000000000000E-002     2.7128563807144592E-022
  -2.7200000000000002E-002     4.2443420354357670E-022
  -2.7150000000000001E-002     5.2115977019039738E-022
  -2.7099999999999999E-002     5.2188028726366249E-022
  -2.7049999999999998E-002     3.9854005360574078E-022
  -2.7000000000000000E-002     1.4446597051043555E-022
  -2.6950000000000002E-002    -2.1803346028975682E-022
  -2.6900000000000000E-002    -6.3468554127798670E-022
  -2.6849999999999999E-002    -1.0228660226972817E-021
  -2.6800000000000001E-002    -1.2828585033564029E-021
  -2.6749999999999999E-002    -1.3163728893087198E-021
  -2.6700000000000002E-002    -1.0501347105475634E-021
  -2.6650000000000000E-002    -4.6048996581568226E-022
  -2.6599999999999999E-002     4.0653987049798300E-022
  -2.6550000000000001E-002     1.4259522219194800E-021
  -2.6500000000000003E-002     2.4007155814112445E-021
  -2.6450000000000001E-002     3.0881620137882332E-021
  -2.6400000000000000E-002     3.2451227806543121E-021
  -2.6349999999999998E-002     2.6861786668622441E-021
  -2.6300000000000000E-002     1.3444137510104941E-021
  -2.6250000000000002E-002    -6.7965510793497651E-022
  -2.6200000000000001E-002    -3.0963766795330637E-021
  -2.6150000000000000E-002    -5.4452744836530144E-021
  -2.6099999999999998E-002    -7.1595270689193012E-021
  -2.6050000000000000E-002    -7.6728508675481316E-021
  -2.6000000000000002E-002    -6.5535524517156537E-021
  -2.5950000000000001E-002    -3.6401011551209917E-021
  -2.5899999999999999E-002     8.5389026318923525E-022
  -2.5849999999999998E-002     6.2974192427829777E-021
  -2.5800000000000000E-002     1.1686972270314167E-020
  -2.5750000000000002E-002     1.5787756851276698E-020
  -2.5700000000000001E-002     1.7360112180584060E-020
  -2.5649999999999999E-002     1.5438126266141557E-020
  -2.5599999999999998E-002     9.6090186242229609E-021
  -2.5550000000000000E-002     2.3134026812376635E-022
  -2.5500000000000002E-002    -1.1468853274237429E-020
  -2.5450000000000000E-002    -2.3470349144829685E-020
  -2.5399999999999999E-002    -3.3217476970749563E-020
  -2.5349999999999998E-002    -3.8053169741032828E-020
  -2.5300000000000000E-002    -3.5769248358325180E-020
  -2.5250000000000002E-002    -2.5183099280027903E-020
  -2.5200000000000000E-002    -6.6253661328290298E-021
  -2.5149999999999999E-002     1.7783216953571227E-020
  -2.5100000000000001E-002     4.4171321270756387E-020
  -2.5049999999999999E-002     6.7336782977231052E-020
  -2.5000000000000001E-002     8.1546489302279110E-020
  -2.4950000000000000E-002     8.1636804894943038E-020
  -2.4899999999999999E-002     6.4252304397186569E-020
  -2.4850000000000001E-002     2.8991833873088032E-020
  -2.4800000000000003E-002    -2.0806396246635168E-020
  -2.4750000000000001E-002    -7.7897108247081548E-020
  -2.4700000000000000E-002    -1.3176353173989421E-019
  -2.4649999999999998E-002    -1.7011212905200678E-019
  -2.4600000000000000E-002    -1.8110722637949948E-019
  -2.4550000000000002E-002    -1.5603382078545297E-019
  -2.4500000000000001E-002    -9.1906569936125285E-020
  -2.4450000000000000E-002     6.5594174801282793E-021
  -2.4399999999999998E-002     1.2619684673314300E-019
  -2.4350000000000000E-002     2.4629884097512223E-019
  -2.4299999999999999E-002     3.4137465421786231E-019
  -2.4250000000000001E-002     3.8556093813987799E-019
  -2.4199999999999999E-002     3.5809534528223920E-019
  -2.4150000000000001E-002     2.4889573150213250E-019
  -2.4100000000000000E-002     6.3059521077231706E-020
  -2.4049999999999998E-002    -1.7692197559872091E-019
  -2.4000000000000000E-002    -4.3219851993852997E-019
  -2.3949999999999999E-002    -6.5231099147156092E-019
  -2.3900000000000001E-002    -7.8342054538976420E-019
  -2.3850000000000000E-002    -7.7898771257691895E-019
  -2.3800000000000002E-002    -6.1113693156450197E-019
  -2.3750000000000000E-002    -2.8043653583279108E-019
  -2.3699999999999999E-002     1.7830446911472012E-019
  -2.3650000000000001E-002     6.9626378569756169E-019
  -2.3599999999999999E-002     1.1780377868059157E-018
  -2.3550000000000001E-002     1.5161728715559837E-018
  -2.3500000000000000E-002     1.6111705907486568E-018
  -2.3449999999999999E-002     1.3938558693955091E-018
  -2.3400000000000001E-002     8.4587676743271479E-019
  -2.3349999999999999E-002     1.3654476914244299E-020
  -2.3300000000000001E-002    -9.8843729370058899E-019
  -2.3250000000000000E-002    -1.9884385818955377E-018
  -2.3199999999999998E-002    -2.7811683088315222E-018
  -2.3150000000000000E-002    -3.1641765409863680E-018
  -2.3099999999999999E-002    -2.9799736238949071E-018
  -2.3050000000000001E-002    -2.1569111999213764E-018
  -2.3000000000000000E-002    -7.3996844423181330E-019
  -2.2950000000000002E-002     1.0967784508011330E-018
  -2.2900000000000000E-002     3.0618717644016875E-018
  -2.2849999999999999E-002     4.7842532534302763E-018
  -2.2800000000000001E-002     5.8739294815360675E-018
  -2.2749999999999999E-002     5.9971085410129577E-018
  -2.2700000000000001E-002     4.9530427601272515E-018
  -2.2650000000000000E-002     2.7373963832748738E-018
  -2.2599999999999999E-002    -4.2277364640536294E-019
  -2.2550000000000001E-002    -4.0740198420405226E-018
  -2.2499999999999999E-002    -7.5869754412676895E-018
  -2.2450000000000001E-002    -1.0249705341242373E-017
  -2.2400000000000000E-002    -1.1392591397606754E-017
  -2.2349999999999998E-002    -1.0525613119452361E-017
  -2.2300000000000000E-002    -7.4635626354692759E-018
  -2.2249999999999999E-002    -2.4133358112252232E-018
  -2.2200000000000001E-002     3.9994207801750536E-018
  -2.2150000000000000E-002     1.0779127664070773E-017
  -2.2100000000000002E-002     1.6687631903948786E-017
  -2.2050000000000000E-002     2.0439034587844355E-017
  -2.1999999999999999E-002     2.0936585517900329E-017
  -2.1950000000000001E-002     1.7514193903769106E-017
  -2.1899999999999999E-002     1.0137918690976523E-017
  -2.1850000000000001E-002    -4.7742016813429632E-019
  -2.1800000000000000E-002    -1.2873386720063466E-017
  -2.1749999999999999E-002    -2.4995409423238324E-017
  -2.1700000000000001E-002    -3.4479991454089542E-017
  -2.1649999999999999E-002    -3.9052033920858464E-017
  -2.1600000000000001E-002    -3.6976169334698198E-017
  -2.1550000000000000E-002    -2.7485116013287687E-017
  -2.1499999999999998E-002    -1.1098257762215728E-017
  -2.1450000000000000E-002     1.0251249380568494E-017
  -2.1399999999999999E-002     3.3340291734989047E-017
  -2.1350000000000001E-002     5.4051718678246392E-017
  -2.1299999999999999E-002     6.8013772067342475E-017
  -2.1250000000000002E-002     7.1401150980360022E-017
  -2.1200000000000000E-002     6.1768956803347980E-017
  -2.1149999999999999E-002     3.8761333714100574E-017
  -2.1100000000000001E-002     4.5337292588681886E-018
  -2.1049999999999999E-002    -3.6243128115218065E-017
  -2.1000000000000001E-002    -7.6868940991770350E-017
  -2.0950000000000000E-002    -1.0957499037722950E-016
  -2.0899999999999998E-002    -1.2684985836773162E-016
  -2.0850000000000000E-002    -1.2292835064710005E-016
  -2.0799999999999999E-002    -9.5178101932996952E-017
  -2.0750000000000001E-002    -4.5096645550801366E-017
  -2.0700000000000000E-002     2.1335383774247012E-017
  -2.0649999999999998E-002     9.4111423039733743E-017
  -2.0600000000000000E-002     1.6049878254713973E-016
  -2.0549999999999999E-002     2.0705358567148548E-016
  -2.0500000000000001E-002     2.2206615612921068E-016
  -2.0449999999999999E-002     1.9802842357666751E-016
  -2.0400000000000001E-002     1.3365476343983825E-016
  -2.0350000000000000E-002     3.5009605673194617E-017
  -2.0299999999999999E-002    -8.4593094069260570E-017
  -2.0250000000000001E-002    -2.0606398244240429E-016
  -2.0199999999999999E-002    -3.0728964796930634E-016
  -2.0150000000000001E-002    -3.6681286749971992E-016
  -2.0100000000000000E-002    -3.6787612210078484E-016
  -2.0049999999999998E-002    -3.0212607660429208E-016
  -2.0000000000000000E-002    -1.7225575821659389E-016
  -1.9949999999999999E-002     7.0302429903961889E-018
  -1.9900000000000001E-002     2.1010771774662121E-016
  -1.9850000000000000E-002     4.0363407645687519E-016
  -1.9799999999999998E-002     5.5153813958622759E-016
  -1.9750000000000000E-002     6.2112272966788367E-016
  -1.9699999999999999E-002     5.8933048214647087E-016
  -1.9650000000000001E-002     4.4808686160850693E-016
  -1.9599999999999999E-002     2.0767230035198659E-016
  -1.9550000000000001E-002    -1.0270484685181423E-016
  -1.9500000000000000E-002    -4.3757637729848476E-016
  -1.9449999999999999E-002    -7.4106355532304476E-016
  -1.9400000000000001E-002    -9.5529772488259065E-016
  -1.9349999999999999E-002    -1.0302903594370335E-015
  -1.9300000000000001E-002    -9.3374242949170302E-016
  -1.9250000000000000E-002    -6.5909683403635866E-016
  -1.9199999999999998E-002    -2.3020814620949868E-016
  -1.9150000000000000E-002     2.9864257720842842E-016
  -1.9099999999999999E-002     8.4804500854974535E-016
  -1.9050000000000001E-002     1.3239058013793237E-015
  -1.9000000000000000E-002     1.6319648871631569E-015
  -1.8949999999999998E-002     1.6944289637848562E-015
  -1.8900000000000000E-002     1.4660981533963588E-015
  -1.8849999999999999E-002     9.4704227903225294E-016
  -1.8800000000000001E-002     1.8904105951060097E-016
  -1.8749999999999999E-002    -7.0630736198021049E-016
  -1.8700000000000001E-002    -1.5987233978659737E-015
  -1.8650000000000000E-002    -2.3289850625512133E-015
  -1.8599999999999998E-002    -2.7449450430036919E-015
  -1.8550000000000001E-002    -2.7299737785078607E-015
  -1.8499999999999999E-002    -2.2289459459497313E-015
  -1.8450000000000001E-002    -1.2666133707120563E-015
  -1.8400000000000000E-002     4.6110865672956645E-017
  -1.8349999999999998E-002     1.5208033066199846E-015
  -1.8300000000000000E-002     2.9155371857686765E-015
  -1.8249999999999999E-002     3.9718294518301098E-015
  -1.8200000000000001E-002     4.4593451345104064E-015
  -1.8149999999999999E-002     4.2210522425242877E-015
  -1.8100000000000002E-002     3.2105126020819306E-015
  -1.8050000000000000E-002     1.5134786947362770E-015
  -1.7999999999999999E-002    -6.5201854484854014E-016
  -1.7950000000000001E-002    -2.9595396582311100E-015
  -1.7899999999999999E-002    -5.0203327504210328E-015
  -1.7850000000000001E-002    -6.4456290007569309E-015
  -1.7800000000000000E-002    -6.9155290108020593E-015
  -1.7749999999999998E-002    -6.2427220519682058E-015
  -1.7700000000000000E-002    -4.4191300171241875E-015
  -1.7649999999999999E-002    -1.6355648732790782E-015
  -1.7600000000000001E-002     1.7315491292376047E-015
  -1.7550000000000000E-002     5.1670000285498147E-015
  -1.7499999999999998E-002     8.0919283526519453E-015
  -1.7450000000000000E-002     9.9567243730874665E-015
  -1.7399999999999999E-002     1.0337258719649990E-014
  -1.7350000000000001E-002     9.0183906398537169E-015
  -1.7299999999999999E-002     6.0496682784488958E-015
  -1.7250000000000001E-002     1.7616743051353789E-015
  -1.7200000000000000E-002    -3.2628512192731167E-015
  -1.7149999999999999E-002    -8.2620483468859334E-015
  -1.7100000000000001E-002    -1.2403868123991209E-014
  -1.7049999999999999E-002    -1.4916264098245341E-014
  -1.7000000000000001E-002    -1.5219532623068930E-014
  -1.6950000000000000E-002    -1.3039816326251037E-014
  -1.6899999999999998E-002    -8.4839594262596010E-015
  -1.6850000000000000E-002    -2.0601803187499487E-015
  -1.6799999999999999E-002     5.3640288634150261E-015
  -1.6750000000000001E-002     1.2666442221245494E-014
  -1.6700000000000000E-002     1.8626987781782814E-014
  -1.6649999999999998E-002     2.2117588940365984E-014
  -1.6600000000000000E-002     2.2298094154651696E-014
  -1.6549999999999999E-002     1.8787270695466066E-014
  -1.6500000000000001E-002     1.1777888609928912E-014
  -1.6449999999999999E-002     2.0700622111838593E-015
  -1.6400000000000001E-002    -8.9929745718230345E-015
  -1.6350000000000000E-002    -1.9688338325706959E-014
  -1.6299999999999999E-002    -2.8161345462976647E-014
  -1.6250000000000001E-002    -3.2726385840130702E-014
  -1.6199999999999999E-002    -3.2175891256133956E-014
  -1.6150000000000001E-002    -2.6044815059880058E-014
  -1.6100000000000000E-002    -1.4778632336083253E-014
  -1.6049999999999998E-002     2.3708985075878726E-016
  -1.6000000000000000E-002     1.6808353940431144E-014
  -1.5949999999999999E-002     3.2222331837419374E-014
  -1.5900000000000001E-002     4.3662639420163447E-014
  -1.5850000000000000E-002     4.8691062059030679E-014
  -1.5799999999999998E-002     4.5717262892780790E-014
  -1.5750000000000000E-002     3.4370920364791643E-014
  -1.5699999999999999E-002     1.5698914847704825E-014
  -1.5650000000000001E-002    -7.8663304693872776E-015
  -1.5599999999999999E-002    -3.2785092105762662E-014
  -1.5550000000000001E-002    -5.4909907154588875E-014
  -1.5500000000000000E-002    -7.0138748061519705E-014
  -1.5449999999999998E-002    -7.5120407572362342E-014
  -1.5400000000000000E-002    -6.7893054048520216E-014
  -1.5349999999999999E-002    -4.8339599129896697E-014
  -1.5300000000000001E-002    -1.8367686334525622E-014
  -1.5250000000000000E-002     1.8235620072375725E-014
  -1.5199999999999998E-002     5.6270798580602628E-014
  -1.5150000000000000E-002     8.9855314504683855E-014
  -1.5099999999999999E-002     1.1330894765290229E-013
  -1.5050000000000001E-002     1.2205781219375873E-013
  -1.4999999999999999E-002     1.1341176583069840E-013
  -1.4949999999999998E-002     8.7086595544013095E-014
  -1.4900000000000000E-002     4.5380079282066850E-014
  -1.4849999999999999E-002    -7.0356396426391501E-015
  -1.4800000000000001E-002    -6.3683586754591233E-014
  -1.4749999999999999E-002    -1.1713576315527694E-013
  -1.4700000000000001E-002    -1.6002989240303315E-013
  -1.4650000000000000E-002    -1.8610290047231815E-013
  -1.4599999999999998E-002    -1.9109110026544013E-013
  -1.4550000000000000E-002    -1.7336540920863400E-013
  -1.4499999999999999E-002    -1.3420585970200569E-013
  -1.4450000000000001E-002    -7.7668904081955612E-014
  -1.4400000000000000E-002    -1.0057093063084853E-014
  -1.4349999999999998E-002     6.0943276081021828E-014
  -1.4300000000000000E-002     1.2734150701529656E-013
  -1.4249999999999999E-002     1.8198641078322588E-013
  -1.4200000000000001E-002     2.1960305195324912E-013
  -1.4149999999999999E-002     2.3755287388377770E-013
  -1.4099999999999998E-002     2.3617507243685955E-013
  -1.4050000000000000E-002     2.1861870504248558E-013
  -1.3999999999999999E-002     1.9014881582230901E-013
  -1.3950000000000001E-002     1.5699747970707786E-013
  -1.3899999999999999E-002     1.2492123773202047E-013
  -1.3850000000000001E-002     9.7704125424492186E-014
  -1.3800000000000000E-002     7.5894311203106407E-014
  -1.3749999999999998E-002     5.6067215785594211E-014
  -1.3700000000000000E-002     3.0858393981105007E-014
  -1.3649999999999999E-002    -1.0094154435072713E-014
  -1.3600000000000001E-002    -7.8308809860214084E-014
  -1.3550000000000000E-002    -1.8390444757282342E-013
  -1.3499999999999998E-002    -3.3268461697319938E-013
  -1.3450000000000000E-002    -5.2334689911699562E-013
  -1.3399999999999999E-002    -7.4536518556288652E-013
  -1.3350000000000001E-002    -9.7806178531395470E-013
  -1.3299999999999999E-002    -1.1912568064731246E-012
  -1.3249999999999998E-002    -1.3476671133915660E-012
  -1.3200000000000000E-002    -1.4069514500783229E-012
  -1.3149999999999998E-002    -1.3310130779342513E-012
  -1.3100000000000001E-002    -1.0899231542772153E-012
  -1.3049999999999999E-002    -6.6766495245938531E-013
  -1.3000000000000001E-002    -6.6856857555035196E-014
  -1.2950000000000000E-002     6.8829479911253429E-013
  -1.2899999999999998E-002     1.5513469810518354E-012
  -1.2850000000000000E-002     2.4555070535145925E-012
  -1.2799999999999999E-002     3.3179464993712470E-012