  -4.0000000000000001E-002     0.0000000000000000     
  -3.9949999999999999E-002     0.0000000000000000     
  -3.9899999999999998E-002     0.0000000000000000     
  -3.9850000000000003E-002     0.0000000000000000     
  -3.9800000000000002E-002     0.0000000000000000     
  -3.9750000000000001E-002     0.0000000000000000     
  -3.9699999999999999E-002     0.0000000000000000     
  -3.9649999999999998E-002     0.0000000000000000     
  -3.9600000000000003E-002     0.0000000000000000     
  -3.9550000000000002E-002     0.0000000000000000     
  -3.9500000000000000E-002     0.0000000000000000     
  -3.9449999999999999E-002     0.0000000000000000     
  -3.9399999999999998E-002     0.0000000000000000     
  -3.9350000000000003E-002     1.6582043553304503E-037
  -3.9300000000000002E-002     2.9751457175462555E-036
  -3.9250000000000000E-002     2.4979578858671073E-035
  -3.9199999999999999E-002     1.2028823328822430E-034
  -3.9150000000000004E-002     2.6422904961685849E-034
  -3.9100000000000003E-002    -8.7564053436006483E-034
  -3.9050000000000001E-002    -1.1854574212110860E-032
  -3.9000000000000000E-002    -6.7635086614114073E-032
  -3.8949999999999999E-002    -2.7298413712379778E-031
  -3.8900000000000004E-002    -8.5808976121717600E-031
  -3.8850000000000003E-002    -2.1334519655077319E-030
  -3.8800000000000001E-002    -3.9863394656563405E-030
  -3.8750000000000000E-002    -4.2024585701739547E-030
  -3.8699999999999998E-002     5.1919877220213329E-030
  -3.8650000000000004E-002     4.3120081514789510E-029
  -3.8600000000000002E-002     1.4138628718204548E-028
  -3.8550000000000001E-002     3.2992233272673616E-028
  -3.8500000000000000E-002     5.8165063256202927E-028
  -3.8449999999999998E-002     6.9301467843453436E-028
  -3.8400000000000004E-002     1.0972053996923147E-028
  -3.8350000000000002E-002    -2.1969106070462923E-027
  -3.8300000000000001E-002    -7.5335647015174498E-027
  -3.8249999999999999E-002    -1.6534362453571042E-026
  -3.8199999999999998E-002    -2.7047475867992640E-026
  -3.8150000000000003E-002    -3.0973384044299849E-026
  -3.8100000000000002E-002    -1.1464370711989556E-026
  -3.8050000000000000E-002     5.6134637817410082E-026
  -3.7999999999999999E-002     1.9449236817100421E-025
  -3.7949999999999998E-002     4.0102303009076309E-025
  -3.7900000000000003E-002     6.1183926696157996E-025
  -3.7850000000000002E-002     6.6541680279998546E-025
  -3.7800000000000000E-002     2.9481510693845663E-025
  -3.7749999999999999E-002    -8.0977686444650342E-025
  -3.7699999999999997E-002    -2.8310338315508643E-024
  -3.7650000000000003E-002    -5.5474918012555327E-024
  -3.7600000000000001E-002    -8.0264520167727223E-024
  -3.7550000000000000E-002    -8.4617335679194366E-024
  -3.7499999999999999E-002    -4.4021378917296566E-024
  -3.7449999999999997E-002     6.4119238551962231E-024
  -3.7400000000000003E-002     2.4578059316854291E-023
  -3.7350000000000001E-002     4.7262752680912308E-023
  -3.7300000000000000E-002     6.6896733065183358E-023
  -3.7249999999999998E-002     7.1379685595819309E-023
  -3.7200000000000004E-002     4.6710155144796729E-023
  -3.7150000000000002E-002    -1.7756391586659933E-023
  -3.7100000000000001E-002    -1.2243593967559302E-022
  -3.7050000000000000E-002    -2.5134728783822600E-022
  -3.6999999999999998E-002    -3.6967872150142285E-022
  -3.6950000000000004E-002    -4.2763009290946065E-022
  -3.6900000000000002E-002    -3.7121926274222207E-022
  -3.6850000000000001E-002    -1.5812577429650171E-022
  -3.6799999999999999E-002     2.2548419806061158E-022
  -3.6749999999999998E-002     7.5159233892492480E-022
  -3.6700000000000003E-002     1.3431436412637978E-021
  -3.6650000000000002E-002     1.8731617083663007E-021
  -3.6600000000000001E-002     2.1692959559220946E-021
  -3.6549999999999999E-002     2.0257571246359610E-021
  -3.6499999999999998E-002     1.2308563714750070E-021
  -3.6450000000000003E-002    -3.7658540972238147E-022
  -3.6400000000000002E-002    -2.8126787728491054E-021
  -3.6350000000000000E-002    -5.8262090402854456E-021
  -3.6299999999999999E-002    -8.7932472251315506E-021
  -3.6249999999999998E-002    -1.0707166562570876E-020
  -3.6200000000000003E-002    -1.0349960407689487E-020
  -3.6150000000000002E-002    -6.6847929527452030E-021
  -3.6100000000000000E-002     5.9723606662629155E-022
  -3.6049999999999999E-002     1.0580813408575984E-020
  -3.6000000000000004E-002     2.0982226501579526E-020
  -3.5950000000000003E-002     2.8625427644998012E-020
  -3.5900000000000001E-002     3.0584690596600839E-020
  -3.5850000000000000E-002     2.5661762092666449E-020
  -3.5799999999999998E-002     1.5482523151356762E-020
  -3.5750000000000004E-002     4.3537163096781000E-021
  -3.5700000000000003E-002    -2.6604377137574237E-021
  -3.5650000000000001E-002    -3.1435008927270812E-021
  -3.5600000000000000E-002    -8.0079622076585841E-022
  -3.5549999999999998E-002    -6.7424679746317906E-021
  -3.5500000000000004E-002    -3.6405083693368351E-020
  -3.5450000000000002E-002    -1.0140819188458052E-019
  -3.5400000000000001E-002    -1.9832637959484954E-019
  -3.5349999999999999E-002    -2.9929631973029913E-019
  -3.5299999999999998E-002    -3.5099478800244399E-019
  -3.5250000000000004E-002    -2.8725320828315250E-019
  -3.5200000000000002E-002    -5.5771040519462554E-020
  -3.5150000000000001E-002     3.4791574396303249E-019
  -3.5099999999999999E-002     8.5300921420000253E-019
  -3.5049999999999998E-002     1.3091238377870415E-018
  -3.5000000000000003E-002     1.5170301665458790E-018
  -3.4950000000000002E-002     1.2940150665630110E-018
  -3.4900000000000000E-002     5.5656832829780259E-019
  -3.4849999999999999E-002    -6.1123305610579396E-019
  -3.4799999999999998E-002    -1.9390793907750004E-018
  -3.4750000000000003E-002    -3.0249159440760283E-018
  -3.4700000000000002E-002    -3.4590331190066671E-018
  -3.4650000000000000E-002    -2.9811855006777033E-018
  -3.4599999999999999E-002    -1.6094183900779794E-018
  -3.4549999999999997E-002     3.2273915485087393E-019
  -3.4500000000000003E-002     2.2562665903877729E-018
  -3.4450000000000001E-002     3.6076057065910804E-018
  -3.4400000000000000E-002     4.0080206287441911E-018
  -3.4349999999999999E-002     3.4746643757648006E-018
  -3.4299999999999997E-002     2.4172756919651754E-018
  -3.4250000000000003E-002     1.4457474771285843E-018
  -3.4200000000000001E-002     1.0376956737894547E-018
  -3.4150000000000000E-002     1.2125298435101034E-018
  -3.4099999999999998E-002     1.3933723318769404E-018
  -3.4049999999999997E-002     5.8896976480392537E-019
  -3.4000000000000002E-002    -2.1032587914291489E-018
  -3.3950000000000001E-002    -6.8411957656745279E-018
  -3.3900000000000000E-002    -1.2530848311412724E-017
  -3.3849999999999998E-002    -1.6792061118074504E-017
  -3.3799999999999997E-002    -1.6590105766080684E-017
  -3.3750000000000002E-002    -9.4625035186143788E-018
  -3.3700000000000001E-002     5.0373825460763431E-018
  -3.3649999999999999E-002     2.4278969989863677E-017
  -3.3599999999999998E-002     4.2483990188089361E-017
  -3.3550000000000003E-002     5.1996116773799645E-017
  -3.3500000000000002E-002     4.5758987963667733E-017
  -3.3450000000000001E-002     2.0323926808979983E-017
  -3.3399999999999999E-002    -2.1685932997579741E-017
  -3.3349999999999998E-002    -7.0772305233030368E-017
  -3.3300000000000003E-002    -1.1213683010346265E-016
  -3.3250000000000002E-002    -1.2958351389287182E-016
  -3.3200000000000000E-002    -1.1079836494446579E-016
  -3.3149999999999999E-002    -5.2358973276005593E-017
  -3.3099999999999997E-002     3.7359335250964561E-017
  -3.3050000000000003E-002     1.3873830922514145E-016
  -3.3000000000000002E-002     2.2523785902025889E-016
  -3.2950000000000000E-002     2.7048632827866380E-016
  -3.2899999999999999E-002     2.5605733254902859E-016
  -3.2850000000000004E-002     1.7742171382041714E-016
  -3.2800000000000003E-002     4.6022812527071974E-017
  -3.2750000000000001E-002    -1.1332064107827888E-016
  -3.2700000000000000E-002    -2.6885107363427931E-016
  -3.2649999999999998E-002    -3.8992593779833580E-016
  -3.2600000000000004E-002    -4.5389724598442982E-016
  -3.2550000000000003E-002    -4.4956877175788191E-016
  -3.2500000000000001E-002    -3.7649291209178188E-016
  -3.2450000000000000E-002    -2.4126106490268893E-016
  -3.2399999999999998E-002    -5.3391467042994867E-017
  -3.2350000000000004E-002     1.7631049049618393E-016
  -3.2300000000000002E-002     4.3325713717321307E-016
  -3.2250000000000001E-002     6.9315049946275638E-016
  -3.2199999999999999E-002     9.1590071611466482E-016
  -3.2149999999999998E-002     1.0442232819661723E-015
  -3.2100000000000004E-002     1.0112523243123888E-015
  -3.2050000000000002E-002     7.5863108144324367E-016
  -3.2000000000000001E-002     2.6196959205396490E-016
  -3.1949999999999999E-002    -4.4411387874655024E-016
  -3.1899999999999998E-002    -1.2518949147200406E-015
  -3.1850000000000003E-002    -1.9870429666219038E-015
  -3.1800000000000002E-002    -2.4403216743342518E-015
  -3.1750000000000000E-002    -2.4208727765046036E-015
  -3.1699999999999999E-002    -1.8185881139267719E-015
  -3.1649999999999998E-002    -6.5679156437851041E-016
  -3.1600000000000003E-002     8.8433339863253298E-016
  -3.1550000000000002E-002     2.4871272024877158E-015
  -3.1500000000000000E-002     3.7603918879260697E-015
  -3.1449999999999999E-002     4.3353327156674352E-015
  -3.1399999999999997E-002     3.9688534147480291E-015
  -3.1350000000000003E-002     2.6241645817326253E-015
  -3.1300000000000001E-002     5.0259974419457496E-016
  -3.1250000000000000E-002    -1.9866159796906244E-015
  -3.1199999999999999E-002    -4.3137951904549425E-015
  -3.1150000000000001E-002    -5.9509917871671711E-015
  -3.1100000000000003E-002    -6.4955778032281144E-015
  -3.1050000000000001E-002    -5.7614526045867742E-015
  -3.1000000000000000E-002    -3.8148242278281057E-015
  -3.0949999999999998E-002    -9.4965928762624660E-016
  -3.0900000000000000E-002     2.3830965981574373E-015
  -3.0850000000000002E-002     5.6655578563758871E-015
  -3.0800000000000001E-002     8.3934798205607090E-015
  -3.0750000000000000E-002     1.0128615467042373E-014
  -3.0699999999999998E-002     1.0521535383469709E-014
  -3.0650000000000000E-002     9.3207716107037048E-015
  -3.0600000000000002E-002     6.3928598609196615E-015
  -3.0550000000000001E-002     1.7726045004804321E-015
  -3.0499999999999999E-002    -4.2559577373923992E-015
  -3.0449999999999998E-002    -1.1073358799617669E-014
  -3.0400000000000000E-002    -1.7680656671342689E-014
  -3.0350000000000002E-002    -2.2751306802207588E-014
  -3.0300000000000001E-002    -2.4815969915550384E-014
  -3.0249999999999999E-002    -2.2578405619919751E-014
  -3.0200000000000001E-002    -1.5309219336540503E-014
  -3.0150000000000000E-002    -3.2175893571627572E-015
  -3.0100000000000002E-002     1.2322357266059903E-014
  -3.0050000000000000E-002     2.8800260957163021E-014
  -2.9999999999999999E-002     4.2909784798891989E-014
  -2.9950000000000001E-002     5.1174566688030360E-014
  -2.9899999999999999E-002     5.0744756996282315E-014
  -2.9850000000000002E-002     4.0180644200315232E-014
  -2.9800000000000000E-002     2.0016238983506419E-014
  -2.9749999999999999E-002    -7.0711913704206397E-015
  -2.9700000000000001E-002    -3.6573821616404352E-014
  -2.9650000000000003E-002    -6.2919840941121601E-014
  -2.9600000000000001E-002    -8.0549324552728977E-014
  -2.9550000000000000E-002    -8.5072143381031110E-014
  -2.9499999999999998E-002    -7.4253927246344517E-014
  -2.9450000000000000E-002    -4.8612979319941726E-014
  -2.9400000000000003E-002    -1.1498575814021866E-014
  -2.9350000000000001E-002     3.1365907100794577E-014
  -2.9300000000000000E-002     7.2783924337780982E-014
  -2.9249999999999998E-002     1.0526308560840209E-013
  -2.9200000000000000E-002     1.2226825510415012E-013
  -2.9150000000000002E-002     1.1935772118770586E-013
  -2.9100000000000001E-002     9.5045118305002471E-014
  -2.9049999999999999E-002     5.1273393950555536E-014
  -2.8999999999999998E-002    -6.5719798113514126E-015
  -2.8950000000000000E-002    -7.0148812750418813E-014
  -2.8900000000000002E-002    -1.2914357449458895E-013
  -2.8850000000000001E-002    -1.7270357660213094E-013
  -2.8799999999999999E-002    -1.9118628639061094E-013
  -2.8749999999999998E-002    -1.7800173203109118E-013
  -2.8700000000000000E-002    -1.3123549033973707E-013
  -2.8650000000000002E-002    -5.4692032783727584E-014
  -2.8600000000000000E-002     4.1971857100846978E-014
  -2.8549999999999999E-002     1.4422710291770894E-013
  -2.8500000000000001E-002     2.3475410498353022E-013
  -2.8450000000000000E-002     2.9635259341397118E-013
  -2.8400000000000002E-002     3.1516570305723561E-013
  -2.8350000000000000E-002     2.8356030670397017E-013
  -2.8299999999999999E-002     2.0201396420803151E-013
  -2.8250000000000001E-002     7.9538213833429875E-014
  -2.8200000000000003E-002    -6.7518385414748461E-014
  -2.8150000000000001E-002    -2.1807302930635445E-013
  -2.8100000000000000E-002    -3.4977820486803992E-013
  -2.8049999999999999E-002    -4.4263307709729308E-013
  -2.8000000000000001E-002    -4.8201933084389574E-013
  -2.7950000000000003E-002    -4.6063606881453988E-013
  -2.7900000000000001E-002    -3.7912114928753633E-013
  -2.7850000000000000E-002    -2.4547328386841230E-013
  -2.7799999999999998E-002    -7.3628661072113088E-014
  -2.7750000000000000E-002     1.1837392232944742E-013
  -2.7700000000000002E-002     3.1029066680022884E-013
  -2.7650000000000001E-002     4.8147721189452812E-013
  -2.7600000000000000E-002     6.1264128762769100E-013
  -2.7549999999999998E-002     6.8768395321211964E-013
  -2.7500000000000000E-002     6.9570479227798807E-013
  -2.7450000000000002E-002     6.3302873463826513E-013
  -2.7400000000000001E-002     5.0482055537972257E-013
  -2.7349999999999999E-002     3.2563531994695250E-013
  -2.7299999999999998E-002     1.1823601281385431E-013
  -2.7250000000000000E-002    -8.9716095856867100E-014
  -2.7200000000000002E-002    -2.7094824487641660E-013
  -2.7150000000000001E-002    -4.0500131589952546E-013
  -2.7099999999999999E-002    -4.8433291727012752E-013
  -2.7049999999999998E-002    -5.1831110842996763E-013
  -2.7000000000000000E-002    -5.3346266818905942E-013
  -2.6950000000000002E-002    -5.6900880915815856E-013
  -2.6900000000000000E-002    -6.6781028651838655E-013
  -2.6849999999999999E-002    -8.6410046044118602E-013
  -2.6800000000000001E-002    -1.1704801824988916E-012
  -2.6749999999999999E-002    -1.5672660499374911E-012
  -2.6700000000000002E-002    -1.9972068561482194E-012
  -2.6650000000000000E-002    -2.3677719598391672E-012
  -2.6599999999999999E-002    -2.5618131066178029E-012
  -2.6550000000000001E-002    -2.4557072135733927E-012
  -2.6500000000000003E-002    -1.9424732980546790E-012
  -2.6450000000000001E-002    -9.5616867981868815E-013
  -2.6400000000000000E-002     5.0664486089270116E-013
  -2.6349999999999998E-002     2.3723397832487241E-012
  -2.6300000000000000E-002     4.4856256240823930E-012
  -2.6250000000000002E-002     6.6165790180855527E-012
  -2.6200000000000001E-002     8.4793474090105825E-012
  -2.6150000000000000E-002     9.7609964190059985E-012
  -2.6099999999999998E-002     1.0157597787072511E-011
  -2.6050000000000000E-002     9.4136934869939638E-012
  -2.6000000000000002E-002     7.3607449578223639E-012
  -2.5950000000000001E-002     3.9501371614602577E-012
  -2.5899999999999999E-002    -7.2319664314835037E-013
  -2.5849999999999998E-002    -6.4094747107712624E-012
  -2.5800000000000000E-002    -1.2706639922666233E-011
  -2.5750000000000002E-002    -1.9076603803788366E-011
  -2.5700000000000001E-002    -2.4873257870391155E-011
  -2.5649999999999999E-002    -2.9378733312486843E-011
  -2.5599999999999998E-002    -3.1843519329452440E-011
  -2.5550000000000000E-002    -3.1525787902397746E-011
  -2.5500000000000002E-002    -2.7725958221102493E-011
  -2.5450000000000000E-002    -1.9813969852612340E-011
  -2.5399999999999999E-002    -7.2485490656585251E-012
  -2.5349999999999998E-002     1.0410570517515061E-011
  -2.5300000000000000E-002     3.3495208574882571E-011
  -2.5250000000000002E-002     6.2223499853437164E-011
  -2.5200000000000000E-002     9.6694965237960806E-011
  -2.5149999999999999E-002     1.3688517147111851E-010
  -2.5100000000000001E-002     1.8264098043708482E-010
  -2.5049999999999999E-002     2.3367858788084546E-010
  -2.5000000000000001E-002     2.8958727726484930E-010
  -2.4950000000000000E-002     3.4984129132973167E-010
  -2.4899999999999999E-002     4.1382037313881967E-010
  -2.4850000000000001E-002     4.8083895667473175E-010
  -2.4800000000000003E-002     5.5018017261149211E-010
  -2.4750000000000001E-002     6.2113236994472502E-010
  -2.4700000000000000E-002     6.9302269320369351E-010
  -2.4649999999999998E-002     7.6524604901466473E-010
  -2.4600000000000000E-002     8.3728789643112456E-010
  -2.4550000000000002E-002     9.0874057424518734E-010
  -2.4500000000000001E-002     9.7931634770080182E-010
  -2.4450000000000000E-002     1.0488573692051883E-009
  -2.4399999999999998E-002     1.1173439189640211E-009
  -2.4350000000000000E-002     1.1848996766404230E-009
  -2.4299999999999999E-002     1.2517910007593011E-009
  -2.4250000000000001E-002     1.3184158926419584E-009
  -2.4199999999999999E-002     1.3852792246939065E-009
  -2.4150000000000001E-002     1.4529512985007875E-009
  -2.4100000000000000E-002     1.5220130495981202E-009
  -2.4049999999999998E-002     1.5929916991744487E-009
  -2.4000000000000000E-002     1.6662965977430343E-009
  -2.3949999999999999E-002     1.7421655848973511E-009
  -2.3900000000000001E-002     1.8206331338957988E-009
  -2.3850000000000000E-002     1.9015267579145253E-009
  -2.3800000000000002E-002     1.9844951863705401E-009
  -2.3750000000000000E-002     2.0690661407471450E-009
  -2.3699999999999999E-002     2.1547244119437270E-009
  -2.3650000000000001E-002     2.2410001177869574E-009
  -2.3599999999999999E-002     2.3275513011348350E-009
  -2.3550000000000001E-002     2.4142315788004159E-009
  -2.3500000000000000E-002     2.5011306689531524E-009
  -2.3449999999999999E-002     2.5885828305365554E-009
  -2.3400000000000001E-002     2.6771438387456768E-009
  -2.3349999999999999E-002     2.7675369410723670E-009
  -2.3300000000000001E-002     2.8605784229017819E-009
  -2.3250000000000000E-002     2.9570880296741106E-009
  -2.3199999999999998E-002     3.0577973170562499E-009
  -2.3150000000000000E-002     3.1632658226689454E-009
  -2.3099999999999999E-002     3.2738149389897023E-009
  -2.3050000000000001E-002     3.3894895898011041E-009
  -2.3000000000000000E-002     3.5100531234016278E-009
  -2.2950000000000002E-002     3.6350182907400481E-009
  -2.2900000000000000E-002     3.7637124176504866E-009
  -2.2849999999999999E-002     3.8953715242512097E-009
  -2.2800000000000001E-002     4.0292463989548259E-009
  -2.2749999999999999E-002     4.1647119939499592E-009
  -2.2700000000000001E-002     4.3013562631185205E-009
  -2.2650000000000000E-002     4.4390409987791285E-009
  -2.2599999999999999E-002     4.5779235299814948E-009
  -2.2550000000000001E-002     4.7184339245227038E-009
  -2.2499999999999999E-002     4.8612197878759437E-009
  -2.2450000000000001E-002     5.0070681627479724E-009
  -2.2400000000000000E-002     5.1568197916830173E-009
  -2.2349999999999998E-002     5.3112921209976200E-009
  -2.2300000000000000E-002     5.4712245617329642E-009
  -2.2249999999999999E-002     5.6372472743500694E-009
  -2.2200000000000001E-002     5.8098709663951381E-009
  -2.2150000000000000E-002     5.9894927166882214E-009
  -2.2100000000000002E-002     6.1763997106953661E-009
  -2.2050000000000000E-002     6.3707676065858433E-009
  -2.1999999999999999E-002     6.5726438093029225E-009
  -2.1950000000000001E-002     6.7819205923745399E-009
  -2.1899999999999999E-002     6.9983109751520560E-009
  -2.1850000000000001E-002     7.2213349794668078E-009
  -2.1800000000000000E-002     7.4503380486578944E-009
  -2.1749999999999999E-002     7.6845412187398793E-009
  -2.1700000000000001E-002     7.9231369695514848E-009
  -2.1649999999999999E-002     8.1654060939873211E-009
  -2.1600000000000001E-002     8.4108480333616611E-009
  -2.1550000000000000E-002     8.6592939835735490E-009
  -2.1499999999999998E-002     8.9109868260147975E-009
  -2.1450000000000000E-002     9.1665991790255087E-009
  -2.1399999999999999E-002     9.4271908445526892E-009
  -2.1350000000000001E-002     9.6941146143055568E-009
  -2.1299999999999999E-002     9.9688757697359809E-009
  -2.1250000000000002E-002     1.0252975277297065E-008
  -2.1200000000000000E-002     1.0547765689896564E-008
  -2.1149999999999999E-002     1.0854327515979239E-008
  -2.1100000000000001E-002     1.1173399698032243E-008
  -2.1049999999999999E-002     1.1505352608914101E-008
  -2.1000000000000001E-002     1.1850200757153406E-008
  -2.0950000000000000E-002     1.2207651311610938E-008
  -2.0899999999999998E-002     1.2577168796120482E-008
  -2.0850000000000000E-002     1.2958043703936313E-008
  -2.0799999999999999E-002     1.3349466685435690E-008
  -2.0750000000000001E-002     1.3750597813475483E-008
  -2.0700000000000000E-002     1.4160630514570780E-008
  -2.0649999999999998E-002     1.4578866809422267E-008
  -2.0600000000000000E-002     1.5004786384277225E-008
  -2.0549999999999999E-002     1.5438129414775392E-008
  -2.0500000000000001E-002     1.5878960821309248E-008
  -2.0449999999999999E-002     1.6327720144868851E-008
  -2.0400000000000001E-002     1.6785247665349489E-008
  -2.0350000000000000E-002     1.7252770385209874E-008
  -2.0299999999999999E-002     1.7731833249099005E-008
  -2.0250000000000001E-002     1.8224199657414317E-008
  -2.0199999999999999E-002     1.8731699792954012E-008
  -2.0150000000000001E-002     1.9256075260123280E-008
  -2.0100000000000000E-002     1.9798812608509558E-008
  -2.0049999999999998E-002     2.0361008916981076E-008
  -2.0000000000000000E-002     2.0943274467587855E-008
  -1.9949999999999999E-002     2.1545693292549640E-008
  -1.9900000000000001E-002     2.2167858053008729E-008
  -1.9850000000000000E-002     2.2808959795829964E-008
  -1.9799999999999998E-002     2.3467933253760884E-008
  -1.9750000000000000E-002     2.4143636713606436E-008
  -1.9699999999999999E-002     2.4835029921964205E-008
  -1.9650000000000001E-002     2.5541343774575701E-008
  -1.9599999999999999E-002     2.6262200967075494E-008
  -1.9550000000000001E-002     2.6997678467687956E-008
  -1.9500000000000000E-002     2.7748316268520310E-008
  -1.9449999999999999E-002     2.8515060630957529E-008
  -1.9400000000000001E-002     2.9299175062363075E-008
  -1.9349999999999999E-002     3.0102135012585659E-008
  -1.9300000000000001E-002     3.0925497325650489E-008
  -1.9250000000000000E-002     3.1770828024207916E-008
  -1.9199999999999998E-002     3.2639611244959888E-008
  -1.9150000000000000E-002     3.3533193501230415E-008
  -1.9099999999999999E-002     3.4452729578408869E-008
  -1.9050000000000001E-002     3.5399141398594872E-008
  -1.9000000000000000E-002     3.6373072811486290E-008
  -1.8949999999999998E-002     3.7374856163551133E-008
  -1.8900000000000000E-002     3.8404485284382322E-008
  -1.8849999999999999E-002     3.9461667723445284E-008
  -1.8800000000000001E-002     4.0545878296339710E-008
  -1.8749999999999999E-002     4.1656514544222107E-008
  -1.8700000000000001E-002     4.2793078178417296E-008
  -1.8650000000000000E-002     4.3955364124873391E-008
  -1.8599999999999998E-002     4.5143636282386028E-008
  -1.8550000000000001E-002     4.6358721830425575E-008
  -1.8499999999999999E-002     4.7602003957571822E-008
  -1.8450000000000001E-002     4.8875309106426634E-008
  -1.8400000000000000E-002     5.0180690489702574E-008
  -1.8349999999999998E-002     5.1520193454989015E-008
  -1.8300000000000000E-002     5.2895605082143756E-008
  -1.8249999999999999E-002     5.4308319362670250E-008
  -1.8200000000000001E-002     5.5759300823974440E-008
  -1.8149999999999999E-002     5.7249155933856185E-008
  -1.8100000000000002E-002     5.8778320412580347E-008
  -1.8050000000000000E-002     6.0347226017504879E-008
  -1.7999999999999999E-002     6.1956486640975512E-008
  -1.7950000000000001E-002     6.3606898109196320E-008
  -1.7899999999999999E-002     6.5299384391973044E-008
  -1.7850000000000001E-002     6.7034824769208302E-008
  -1.7800000000000000E-002     6.8813785231719585E-008
  -1.7749999999999998E-002     7.0636361551321911E-008
  -1.7700000000000000E-002     7.2502112535665402E-008
  -1.7649999999999999E-002     7.4410160118181201E-008
  -1.7600000000000001E-002     7.6359522227276373E-008
  -1.7550000000000000E-002     7.8349496273320851E-008
  -1.7499999999999998E-002     8.0380105710553989E-008
  -1.7450000000000000E-002     8.2452403868707259E-008
  -1.7399999999999999E-002     8.4568617845326078E-008
  -1.7350000000000001E-002     8.6732003843648518E-008
  -1.7299999999999999E-002     8.8946438606499766E-008
  -1.7250000000000001E-002     9.1215886207711005E-008
  -1.7200000000000000E-002     9.3543818057925601E-008
  -1.7149999999999999E-002     9.5932757140891419E-008
  -1.7100000000000001E-002     9.8384074862357725E-008
  -1.7049999999999999E-002     1.0089807169633091E-007
  -1.7000000000000001E-002     1.0347429545327695E-007
  -1.6950000000000000E-002     1.0611204227084435E-007
  -1.6899999999999998E-002     1.0881090607140290E-007
  -1.6850000000000000E-002     1.1157115145683304E-007
  -1.6799999999999999E-002     1.1439391607836672E-007
  -1.6750000000000001E-002     1.1728111414665583E-007
  -1.6700000000000000E-002     1.2023517765108431E-007
  -1.6649999999999998E-002     1.2325862343034164E-007
  -1.6600000000000000E-002     1.2635369400408860E-007
  -1.6549999999999999E-002     1.2952212721200424E-007
  -1.6500000000000001E-002     1.3276518420680110E-007
  -1.6449999999999999E-002     1.3608388720293644E-007
  -1.6400000000000001E-002     1.3947934618599251E-007
  -1.6350000000000000E-002     1.4295315941926237E-007
  -1.6299999999999999E-002     1.4650765707089245E-007
  -1.6250000000000001E-002     1.5014589460552309E-007
  -1.6199999999999999E-002     1.5387143883153070E-007
  -1.6150000000000001E-002     1.5768787003244399E-007
  -1.6100000000000000E-002     1.6159823269772995E-007
  -1.6049999999999998E-002     1.6560449270753889E-007
  -1.6000000000000000E-002     1.6970718283849215E-007
  -1.5949999999999999E-002     1.7390543907119632E-007
  -1.5900000000000001E-002     1.7819726106710069E-007
  -1.5850000000000000E-002     1.8258017145786045E-007
  -1.5799999999999998E-002     1.8705190720557241E-007
  -1.5750000000000000E-002     1.9161109717673042E-007
  -1.5699999999999999E-002     1.9625777112572277E-007
  -1.5650000000000001E-002     2.0099345949847603E-007
  -1.5599999999999999E-002     2.0582104847547068E-007
  -1.5550000000000001E-002     2.1074426320529103E-007
  -1.5500000000000000E-002     2.1576706492115688E-007
  -1.5449999999999998E-002     2.2089308688313877E-007
  -1.5400000000000000E-002     2.2612528973080656E-007
  -1.5349999999999999E-002     2.3146589465862532E-007
  -1.5300000000000001E-002     2.3691677591352163E-007
  -1.5250000000000000E-002     2.4247992800327393E-007
  -1.5199999999999998E-002     2.4815809264309159E-007
  -1.5150000000000000E-002     2.5395516147804539E-007
  -1.5099999999999999E-002     2.5987647104289463E-007
  -1.5050000000000001E-002     2.6592844905020977E-007
  -1.4999999999999999E-002     2.7211804848342668E-007
  -1.4949999999999998E-002     2.7845184984551871E-007
  -1.4900000000000000E-002     2.8493532993414145E-007
  -1.4849999999999999E-002     2.9157213632341621E-007
  -1.4800000000000001E-002     2.9836388598068854E-007
  -1.4749999999999999E-002     3.0531054432810434E-007
  -1.4700000000000001E-002     3.1241115536353445E-007
  -1.4650000000000000E-002     3.1966497296070125E-007
  -1.4599999999999998E-002     3.2707247620088076E-007
  -1.4550000000000000E-002     3.3463611553833166E-007
  -1.4499999999999999E-002     3.4236064007807171E-007
  -1.4450000000000001E-002     3.5025259907556609E-007
  -1.4400000000000000E-002     3.5831936969279056E-007
  -1.4349999999999998E-002     3.6656795886104079E-007
  -1.4300000000000000E-002     3.7500377148382154E-007
  -1.4249999999999999E-002     3.8362969260910017E-007
  -1.4200000000000001E-002     3.9244583538328990E-007
  -1.4149999999999999E-002     4.0145009562716682E-007
  -1.4099999999999998E-002     4.1063903977098621E-007
  -1.4050000000000000E-002     4.2000930451194277E-007
  -1.3999999999999999E-002     4.2955877021713830E-007
  -1.3950000000000001E-002     4.3928725046024318E-007
  -1.3899999999999999E-002     4.4919667579735349E-007
  -1.3850000000000001E-002     4.5929039598203706E-007
  -1.3800000000000000E-002     4.6957192887427336E-007
  -1.3749999999999998E-002     4.8004369464305064E-007
  -1.3700000000000000E-002     4.9070613142986872E-007
  -1.3649999999999999E-002     5.0155715664139008E-007
  -1.3600000000000001E-002     5.1259255410383529E-007
  -1.3550000000000000E-002     5.2380706442083283E-007
  -1.3499999999999998E-002     5.3519610070125266E-007
  -1.3450000000000000E-002     5.4675743544933475E-007
  -1.3399999999999999E-002     5.5849214753428596E-007
  -1.3350000000000001E-002     5.7040527791955660E-007
  -1.3299999999999999E-002     5.8250511684602377E-007
  -1.3249999999999998E-002     5.9480211369156751E-007
  -1.3200000000000000E-002     6.0730697931392068E-007
  -1.3149999999999998E-002     6.2002909431761011E-007
  -1.3100000000000001E-002     6.3297535263126451E-007
  -1.3049999999999999E-002     6.4614968706044171E-007
  -1.3000000000000001E-002     6.5955380394325190E-007
  -1.2950000000000000E-002     6.7318845878847886E-007
  -1.2899999999999998E-002     6.8705516860514613E-007
  -1.2850000000000000E-002     7.0115759552389218E-007
  -1.2799999999999999E-002     7.1550235970595194E-007