  -4.0000000000000001E-002     0.0000000000000000     
  -3.9949999999999999E-002     0.0000000000000000     
  -3.9899999999999998E-002     0.0000000000000000     
  -3.9850000000000003E-002     0.0000000000000000     
  -3.9800000000000002E-002     0.0000000000000000     
  -3.9750000000000001E-002     0.0000000000000000     
  -3.9699999999999999E-002     0.0000000000000000     
  -3.9649999999999998E-002     0.0000000000000000     
  -3.9600000000000003E-002     0.0000000000000000     
  -3.9550000000000002E-002     0.0000000000000000     
  -3.9500000000000000E-002     0.0000000000000000     
  -3.9449999999999999E-002     0.0000000000000000     
  -3.9399999999999998E-002     0.0000000000000000     
  -3.9350000000000003E-002     0.0000000000000000     
  -3.9300000000000002E-002     0.0000000000000000     
  -3.9250000000000000E-002     0.0000000000000000     
  -3.9199999999999999E-002     0.0000000000000000     
  -3.9150000000000004E-002     0.0000000000000000     
  -3.9100000000000003E-002     0.0000000000000000     
  -3.9050000000000001E-002     0.0000000000000000     
  -3.9000000000000000E-002     0.0000000000000000     
  -3.8949999999999999E-002     0.0000000000000000     
  -3.8900000000000004E-002     0.0000000000000000     
  -3.8850000000000003E-002     0.0000000000000000     
  -3.8800000000000001E-002     1.1779733080019522E-039
  -3.8750000000000000E-002     7.8317542814120576E-039
  -3.8699999999999998E-002     2.5399738433485969E-038
  -3.8650000000000004E-002     5.8221401889792416E-038
  -3.8600000000000002E-002     8.1584178464238898E-038
  -3.8550000000000001E-002     1.4821391426080242E-038
  -3.8500000000000000E-002    -5.6900242723485601E-037
  -3.8449999999999998E-002    -2.7912010430170988E-036
  -3.8400000000000004E-002    -8.8120684930533112E-036
  -3.8350000000000002E-002    -2.1174160152544037E-035
  -3.8300000000000001E-002    -3.8711953878280855E-035
  -3.8249999999999999E-002    -4.4998154001367391E-035
  -3.8199999999999998E-002     1.3919590455866319E-035
  -3.8150000000000003E-002     2.5687848237354791E-034
  -3.8100000000000002E-002     8.6968473639922258E-034
  -3.8050000000000000E-002     2.0078944211942363E-033
  -3.7999999999999999E-002     3.4816559265559734E-033
  -3.7949999999999998E-002     4.1194982996817054E-033
  -3.7900000000000003E-002     8.9811820229025174E-034
  -3.7850000000000002E-002    -1.1581315225334944E-032
  -3.7800000000000000E-002    -3.9884227984446023E-032
  -3.7749999999999999E-002    -8.6644992920013578E-032
  -3.7699999999999997E-002    -1.3963546554268843E-031
  -3.7650000000000003E-002    -1.5576176227798106E-031
  -3.7600000000000001E-002    -4.7349207614525334E-032
  -3.7550000000000000E-002     3.1180671425178435E-031
  -3.7499999999999999E-002     1.0339479179759887E-030
  -3.7449999999999997E-002     2.0935509843153272E-030
  -3.7400000000000003E-002     3.1342559151501599E-030
  -3.7350000000000001E-002     3.2711552224935457E-030
  -3.7300000000000000E-002     1.0445572492211783E-030
  -3.7249999999999998E-002    -5.2377402117163806E-030
  -3.7200000000000004E-002    -1.6539987215725180E-029
  -3.7150000000000002E-002    -3.1481397184828701E-029
  -3.7100000000000001E-002    -4.4457381656989215E-029
  -3.7050000000000000E-002    -4.4507905190103967E-029
  -3.6999999999999998E-002    -1.6483395586612788E-029
  -3.6950000000000004E-002     5.3909674032933264E-029
  -3.6900000000000002E-002     1.7056177928345886E-028
  -3.6850000000000001E-002     3.1448053026226767E-028
  -3.6799999999999999E-002     4.3301672037084773E-028
  -3.6749999999999998E-002     4.3824098232123109E-028
  -3.6700000000000003E-002     2.2268039067456084E-028
  -3.6650000000000002E-002    -3.0242246158954601E-028
  -3.6600000000000001E-002    -1.1487933249413528E-027
  -3.6549999999999999E-002    -2.1863161514309709E-027
  -3.6499999999999998E-002    -3.0966026060921374E-027
  -3.6450000000000003E-002    -3.3767410426383015E-027
  -3.6400000000000002E-002    -2.4231955229986139E-027
  -3.6350000000000000E-002     2.8752558811458065E-028
  -3.6299999999999999E-002     4.9300713398758512E-027
  -3.6249999999999998E-002     1.1018157502822172E-026
  -3.6200000000000003E-002     1.7138643814285586E-026
  -3.6150000000000002E-002     2.0868509645996297E-026
  -3.6100000000000000E-002     1.9045834601727500E-026
  -3.6049999999999999E-002     8.5553758739215470E-027
  -3.6000000000000004E-002    -1.2313859019358012E-026
  -3.5950000000000003E-002    -4.2120798401089726E-026
  -3.5900000000000001E-002    -7.4686172723019506E-026
  -3.5850000000000000E-002    -9.8611809688528970E-026
  -3.5799999999999998E-002    -9.9021263628230289E-026
  -3.5750000000000004E-002    -6.2266956299204199E-026
  -3.5700000000000003E-002     1.6802549566839583E-026
  -3.5650000000000001E-002     1.2725295447599855E-025
  -3.5600000000000000E-002     2.3823550688117720E-025
  -3.5549999999999998E-002     3.0364286432212442E-025
  -3.5500000000000004E-002     2.7805995185848635E-025
  -3.5450000000000002E-002     1.4171680308056110E-025
  -3.5400000000000001E-002    -7.5063364912386865E-026
  -3.5349999999999999E-002    -2.8346890836469088E-025
  -3.5299999999999998E-002    -3.5944424522640330E-025
  -3.5250000000000004E-002    -2.0404259310257908E-025
  -3.5200000000000002E-002     1.7410787084903002E-025
  -3.5150000000000001E-002     5.9349140824688774E-025
  -3.5099999999999999E-002     7.0553015804379267E-025
  -3.5049999999999998E-002     1.1497783762024837E-025
  -3.5000000000000003E-002    -1.3867829585933787E-024
  -3.4950000000000002E-002    -3.5496204537385416E-024
  -3.4900000000000000E-002    -5.4984962869323481E-024
  -3.4849999999999999E-002    -5.8417398815747348E-024
  -3.4799999999999998E-002    -3.1565892140431561E-024
  -3.4750000000000003E-002     3.2111730120416885E-024
  -3.4700000000000002E-002     1.2318386625345981E-023
  -3.4650000000000000E-002     2.1225825325050476E-023
  -3.4599999999999999E-002     2.5486423512512207E-023
  -3.4549999999999997E-002     2.0706592224461595E-023
  -3.4500000000000003E-002     4.8505243660184834E-024
  -3.4450000000000001E-002    -1.9624956437912739E-023
  -3.4400000000000000E-002    -4.5058515222482661E-023
  -3.4349999999999999E-002    -6.0334935491789137E-023
  -3.4299999999999997E-002    -5.5231135326068078E-023
  -3.4250000000000003E-002    -2.6092735439252013E-023
  -3.4200000000000001E-002     1.9731267770333267E-023
  -3.4150000000000000E-002     6.3695429462850217E-023
  -3.4099999999999998E-002     8.2015527163930894E-023
  -3.4049999999999997E-002     5.7034929320529962E-023
  -3.4000000000000002E-002    -1.0124129502165257E-023
  -3.3950000000000001E-002    -9.2252317899732448E-023
  -3.3900000000000000E-002    -1.4055197932073484E-022
  -3.3849999999999998E-002    -1.0353677337865392E-022
  -3.3799999999999997E-002     4.4032856298115951E-023
  -3.3750000000000002E-002     2.7399110740216187E-022
  -3.3700000000000001E-002     4.9521045395635181E-022
  -3.3649999999999999E-002     5.7445442197714159E-022
  -3.3599999999999998E-002     3.8924293043919230E-022
  -3.3550000000000003E-002    -1.0219633122533541E-022
  -3.3500000000000002E-002    -8.0383514986370493E-022
  -3.3450000000000001E-002    -1.4724825846292398E-021
  -3.3399999999999999E-002    -1.7794858760351641E-021
  -3.3349999999999998E-002    -1.4388802593651310E-021
  -3.3300000000000003E-002    -3.6173353560171565E-022
  -3.3250000000000002E-002     1.2311426538260643E-021
  -3.3200000000000000E-002     2.8084547841531544E-021
  -3.3149999999999999E-002     3.6777218360788698E-021
  -3.3099999999999997E-002     3.2605054264139761E-021
  -3.3050000000000003E-002     1.3992107445477608E-021
  -3.3000000000000002E-002    -1.4444541384877054E-021
  -3.2950000000000000E-002    -4.2295001043328509E-021
  -3.2899999999999999E-002    -5.6670185841029621E-021
  -3.2850000000000004E-002    -4.7688223416652601E-021
  -3.2800000000000003E-002    -1.4106733666263387E-021
  -3.2750000000000001E-002     3.3600281210964087E-021
  -3.2700000000000000E-002     7.4975621426474850E-021
  -3.2649999999999998E-002     8.6703308315201229E-021
  -3.2600000000000004E-002     5.3268341924266824E-021
  -3.2550000000000003E-002    -2.2945768543815948E-021
  -3.2500000000000001E-002    -1.1713451297427727E-020
  -3.2450000000000000E-002    -1.8693044755434695E-020
  -3.2399999999999998E-002    -1.8711377708089663E-020
  -3.2350000000000004E-002    -9.0186140136782018E-021
  -3.2300000000000002E-002     9.4990414271407605E-021
  -3.2250000000000001E-002     3.1552486023695486E-020
  -3.2199999999999999E-002     4.8429527401119384E-020
  -3.2149999999999998E-002     5.0762749552902752E-020
  -3.2100000000000004E-002     3.2352537169317259E-020
  -3.2050000000000002E-002    -6.3216800195551321E-021
  -3.2000000000000001E-002    -5.6453944905534640E-020
  -3.1949999999999999E-002    -1.0223997582416509E-019
  -3.1899999999999998E-002    -1.2529082619142979E-019
  -3.1850000000000003E-002    -1.1099814499696940E-019
  -3.1800000000000002E-002    -5.4717571450566373E-020
  -3.1750000000000000E-002     3.4653617133481455E-020
  -3.1699999999999999E-002     1.3546945095100862E-019
  -3.1649999999999998E-002     2.1878710520611957E-019
  -3.1600000000000003E-002     2.5697668458271435E-019
  -3.1550000000000002E-002     2.3259982205496140E-019
  -3.1500000000000000E-002     1.4432479712444094E-019
  -3.1449999999999999E-002     7.6171044593384191E-021
  -3.1399999999999997E-002    -1.5004592550145402E-019
  -3.1350000000000003E-002    -2.9742288174912822E-019
  -3.1300000000000001E-002    -4.0769289784215504E-019
  -3.1250000000000000E-002    -4.6309197458365151E-019
  -3.1199999999999999E-002    -4.5429162915506136E-019
  -3.1150000000000001E-002    -3.7568777336672394E-019
  -3.1100000000000003E-002    -2.2045247985471802E-019
  -3.1050000000000001E-002     1.9764058221047814E-020
  -3.1000000000000000E-002     3.4716662405643558E-019
  -3.0949999999999998E-002     7.4290656454648746E-019
  -3.0900000000000000E-002     1.1507476583150101E-018
  -3.0850000000000002E-002     1.4689422621836174E-018
  -3.0800000000000001E-002     1.5601576519242977E-018
  -3.0750000000000000E-002     1.2845921136250620E-018
  -3.0699999999999998E-002     5.5246909446119120E-019
  -3.0650000000000000E-002    -6.1827515817255327E-019
  -3.0600000000000002E-002    -2.0609328759432876E-018
  -3.0550000000000001E-002    -3.4581431439122454E-018
  -3.0499999999999999E-002    -4.3933650445513127E-018
  -3.0449999999999998E-002    -4.4534652339165889E-018
  -3.0400000000000000E-002    -3.3603831414468279E-018
  -3.0350000000000002E-002    -1.0936793244417964E-018
  -3.0300000000000001E-002     2.0396582764764584E-018
  -3.0249999999999999E-002     5.4222792448654590E-018
  -3.0200000000000001E-002     8.2410187367763809E-018
  -3.0150000000000000E-002     9.6784346809393173E-018
  -3.0100000000000002E-002     9.1325580542088812E-018
  -3.0050000000000000E-002     6.4014180685467843E-018
  -2.9999999999999999E-002     1.7748054842906474E-018
  -2.9950000000000001E-002    -3.9979718643152599E-018
  -2.9899999999999999E-002    -9.8570160202759046E-018
  -2.9850000000000002E-002    -1.4653018627897570E-017
  -2.9800000000000000E-002    -1.7375070578579922E-017
  -2.9749999999999999E-002    -1.7323190543471912E-017
  -2.9700000000000001E-002    -1.4191729548931416E-017
  -2.9650000000000003E-002    -8.0708138935265341E-018
  -2.9600000000000001E-002     5.9131931868065354E-019
  -2.9550000000000000E-002     1.1010296549626210E-017
  -2.9499999999999998E-002     2.2038257035377668E-017
  -2.9450000000000000E-002     3.2102886958036995E-017
  -2.9400000000000003E-002     3.9186034246752591E-017
  -2.9350000000000001E-002     4.0951074020329896E-017
  -2.9300000000000000E-002     3.5115773188538975E-017
  -2.9249999999999998E-002     2.0094982074959002E-017
  -2.9200000000000000E-002    -4.1831830024348485E-018
  -2.9150000000000002E-002    -3.5514147109644188E-017
  -2.9100000000000001E-002    -6.9020495941532011E-017
  -2.9049999999999999E-002    -9.7429396270297512E-017
  -2.8999999999999998E-002    -1.1220281102967910E-016
  -2.8950000000000000E-002    -1.0546383192113637E-016
  -2.8900000000000002E-002    -7.2374498668764148E-017
  -2.8850000000000001E-002    -1.3371433529185938E-017
  -2.8799999999999999E-002     6.4451455736386002E-017
  -2.8749999999999998E-002     1.4743855966538433E-016
  -2.8700000000000000E-002     2.1727174334755384E-016
  -2.8650000000000002E-002     2.5453927794877875E-016
  -2.8600000000000000E-002     2.4333803687278338E-016
  -2.8549999999999999E-002     1.7587433461516273E-016
  -2.8500000000000001E-002     5.5866594381593330E-017
  -2.8450000000000000E-002    -1.0029747821635048E-016
  -2.8400000000000002E-002    -2.6524653629140766E-016
  -2.8350000000000000E-002    -4.0510044722615811E-016
  -2.8299999999999999E-002    -4.8599540267272726E-016
  -2.8250000000000001E-002    -4.8137609390638049E-016
  -2.8200000000000003E-002    -3.7851713517437298E-016
  -2.8150000000000001E-002    -1.8283070788616805E-016
  -2.8100000000000000E-002     8.1066410693259453E-017
  -2.8049999999999999E-002     3.7192642982258909E-016
  -2.8000000000000001E-002     6.3779991649648003E-016
  -2.7950000000000003E-002     8.2443972180241079E-016
  -2.7900000000000001E-002     8.8488632171496738E-016
  -2.7850000000000000E-002     7.8874794767139149E-016
  -2.7799999999999998E-002     5.2969688746908738E-016
  -2.7750000000000000E-002     1.2986660412844783E-016
  -2.7700000000000002E-002    -3.5988444117962072E-016
  -2.7650000000000001E-002    -8.6446599726286876E-016
  -2.7600000000000000E-002    -1.2938807987791323E-015
  -2.7549999999999998E-002    -1.5567415234542135E-015
  -2.7500000000000000E-002    -1.5764977136443393E-015
  -2.7450000000000002E-002    -1.3080289581537597E-015
  -2.7400000000000001E-002    -7.5160282769859663E-016
  -2.7349999999999999E-002     3.9036561396500165E-017
  -2.7299999999999998E-002     9.5724370747754022E-016
  -2.7250000000000000E-002     1.8543206297030085E-015
  -2.7200000000000002E-002     2.5604180475420864E-015
  -2.7150000000000001E-002     2.9130985671128805E-015
  -2.7099999999999999E-002     2.7891486836398849E-015
  -2.7049999999999998E-002     2.1338608205261349E-015
  -2.7000000000000000E-002     9.8170716839420859E-016
  -2.6950000000000002E-002    -5.3670246693014796E-016
  -2.6900000000000000E-002    -2.2043998784165930E-015
  -2.6849999999999999E-002    -3.7447396249292891E-015
  -2.6800000000000001E-002    -4.8621158317693489E-015
  -2.6749999999999999E-002    -5.2912038959313834E-015
  -2.6700000000000002E-002    -4.8473911393158610E-015
  -2.6650000000000000E-002    -3.4703188623822631E-015
  -2.6599999999999999E-002    -1.2528007047412363E-015
  -2.6550000000000001E-002     1.5513095344209458E-015
  -2.6500000000000003E-002     4.5445722917287800E-015
  -2.6450000000000001E-002     7.2301136747294968E-015
  -2.6400000000000000E-002     9.0802506798140717E-015
  -2.6349999999999998E-002     9.6231725810582988E-015
  -2.6300000000000000E-002     8.5367900231832853E-015
  -2.6250000000000002E-002     5.7347996674006797E-015
  -2.6200000000000001E-002     1.4274431714478449E-015
  -2.6150000000000000E-002    -3.8604695662962392E-015
  -2.6099999999999998E-002    -9.3277414024165927E-015
  -2.6050000000000000E-002    -1.3996481545774395E-014
  -2.6000000000000002E-002    -1.6866805339539488E-014
  -2.5950000000000001E-002    -1.7106487586399720E-014
  -2.5899999999999999E-002    -1.4243225373360064E-014
  -2.5849999999999998E-002    -8.3195604629146862E-015
  -2.5800000000000000E-002     2.9316683769424375E-017
  -2.5750000000000002E-002     9.6050772890647241E-015
  -2.5700000000000001E-002     1.8794846072351204E-014
  -2.5649999999999999E-002     2.5826301154365835E-014
  -2.5599999999999998E-002     2.9091486665585223E-014
  -2.5550000000000000E-002     2.7481365243839140E-014
  -2.5500000000000002E-002     2.0663564586474752E-014
  -2.5450000000000000E-002     9.2400920580834650E-015
  -2.5399999999999999E-002    -5.2595212267927319E-015
  -2.5349999999999998E-002    -2.0564326123463920E-014
  -2.5300000000000000E-002    -3.4006800521460541E-014
  -2.5250000000000002E-002    -4.2972956654747575E-014
  -2.5200000000000000E-002    -4.5380541686609009E-014
  -2.5149999999999999E-002    -4.0098965055124746E-014
  -2.5100000000000001E-002    -2.7231813122440070E-014
  -2.5049999999999999E-002    -8.2047523299856493E-015
  -2.5000000000000001E-002     1.4366020217170823E-014
  -2.4950000000000000E-002     3.7013328447941619E-014
  -2.4899999999999999E-002     5.5921207699361865E-014
  -2.4850000000000001E-002     6.7518294246826187E-014
  -2.4800000000000003E-002     6.9075644377839884E-014
  -2.4750000000000001E-002     5.9219258045269907E-014
  -2.4700000000000000E-002     3.8276292208478040E-014
  -2.4649999999999998E-002     8.3923183196192154E-015
  -2.4600000000000000E-002    -2.6616148952266554E-014
  -2.4550000000000002E-002    -6.1677139584435301E-014
  -2.4500000000000001E-002    -9.1113976394985602E-014
  -2.4450000000000000E-002    -1.0946199316056981E-013
  -2.4399999999999998E-002    -1.1234962311135759E-013
  -2.4350000000000000E-002    -9.7318259923575578E-014
  -2.4299999999999999E-002    -6.4447047374621588E-014
  -2.4250000000000001E-002    -1.6658542274872561E-014
  -2.4199999999999999E-002     4.0385870820177602E-014
  -2.4150000000000001E-002     9.8839242633966245E-014
  -2.4100000000000000E-002     1.4964128048379007E-013
  -2.4049999999999998E-002     1.8380647640813321E-013
  -2.4000000000000000E-002     1.9385868064192561E-013
  -2.3949999999999999E-002     1.7519629404842028E-013
  -2.3900000000000001E-002     1.2715681090010972E-013
  -2.3850000000000000E-002     5.3571585466850185E-014
  -2.3800000000000002E-002    -3.7338794584672967E-014
  -2.3750000000000000E-002    -1.3378537652342560E-013
  -2.3699999999999999E-002    -2.2189298768146990E-013
  -2.3650000000000001E-002    -2.8767238396037530E-013
  -2.3599999999999999E-002    -3.1921043114628855E-013
  -2.3550000000000001E-002    -3.0873884599614806E-013
  -2.3500000000000000E-002    -2.5422364887292319E-013
  -2.3449999999999999E-002    -1.6015843861861600E-013
  -2.3400000000000001E-002    -3.7344829617933481E-014
  -2.3349999999999999E-002     9.8404418454654103E-014
  -2.3300000000000001E-002     2.2851989218847481E-013
  -2.3250000000000000E-002     3.3458103685569736E-013
  -2.3199999999999998E-002     4.0141091519560504E-013
  -2.3150000000000000E-002     4.1980990469872793E-013
  -2.3099999999999999E-002     3.8838387299986539E-013
  -2.3050000000000001E-002     3.1403626813611678E-013
  -2.3000000000000000E-002     2.1090717631811886E-013
  -2.2950000000000002E-002     9.7826004359689963E-014
  -2.2900000000000000E-002    -5.3520621344418581E-015
  -2.2849999999999999E-002    -8.1892414982242545E-014
  -2.2800000000000001E-002    -1.2201542527095083E-013
  -2.2749999999999999E-002    -1.2560804470963795E-013
  -2.2700000000000001E-002    -1.0314887317140030E-013
  -2.2650000000000000E-002    -7.4477941194218022E-014
  -2.2599999999999999E-002    -6.5433938320545099E-014
  -2.2550000000000001E-002    -1.0279864513668908E-013
  -2.2499999999999999E-002    -2.0834438345310772E-013
  -2.2450000000000001E-002    -3.9301108786633154E-013
  -2.2400000000000000E-002    -6.5228517490976005E-013
  -2.2349999999999998E-002    -9.6371481495572242E-013
  -2.2300000000000000E-002    -1.2871938533438169E-012
  -2.2249999999999999E-002    -1.5682352104182807E-012
  -2.2200000000000001E-002    -1.7440142113178211E-012
  -2.2150000000000000E-002    -1.7515519071153616E-012
  -2.2100000000000002E-002    -1.5371008561813215E-012
  -2.2050000000000000E-002    -1.0656073647478656E-012
  -2.1999999999999999E-002    -3.2907753991618633E-013
  -2.1950000000000001E-002     6.4725552590177313E-013
  -2.1899999999999999E-002     1.8018810072930711E-012
  -2.1850000000000001E-002     3.0377431035605902E-012
  -2.1800000000000000E-002     4.2270926871330342E-012
  -2.1749999999999999E-002     5.2204245559617123E-012
  -2.1700000000000001E-002     5.8590574196115847E-012
  -2.1649999999999999E-002     5.9904937406595500E-012
  -2.1600000000000001E-002     5.4853109116639012E-012
  -2.1550000000000000E-002     4.2540338559088472E-012
  -2.1499999999999998E-002     2.2622879408078856E-012
  -2.1450000000000000E-002    -4.5742014001870838E-013
  -2.1399999999999999E-002    -3.7986554502811470E-012
  -2.1350000000000001E-002    -7.5795912481536387E-012
  -2.1299999999999999E-002    -1.1547303346522372E-011
  -2.1250000000000002E-002    -1.5387245498072576E-011
  -2.1200000000000000E-002    -1.8736661265955682E-011
  -2.1149999999999999E-002    -2.1200192019731155E-011
  -2.1100000000000001E-002    -2.2365753969302837E-011
  -2.1049999999999999E-002    -2.1818940223485591E-011
  -2.1000000000000001E-002    -1.9154621393854486E-011
  -2.0950000000000000E-002    -1.3985252899249105E-011
  -2.0899999999999998E-002    -5.9460625084322384E-012
  -2.0850000000000000E-002     5.3018170874304212E-012
  -2.0799999999999999E-002     2.0068784303200731E-011
  -2.0750000000000001E-002     3.8633127453734766E-011
  -2.0700000000000000E-002     6.1234766180781075E-011
  -2.0649999999999998E-002     8.8065690435957392E-011
  -2.0600000000000000E-002     1.1925702680897777E-010
  -2.0549999999999999E-002     1.5486388112565575E-010
  -2.0500000000000001E-002     1.9484998621895728E-010
  -2.0449999999999999E-002     2.3907479226748106E-010
  -2.0400000000000001E-002     2.8728609127268484E-010
  -2.0350000000000000E-002     3.3912062535589576E-010
  -2.0299999999999999E-002     3.9411475430644120E-010
  -2.0250000000000001E-002     4.5172570369775203E-010
  -2.0199999999999999E-002     5.1136265780397283E-010
  -2.0150000000000001E-002     5.7242483391814237E-010
  -2.0100000000000000E-002     6.3434339345461944E-010
  -2.0049999999999998E-002     6.9662169042419900E-010
  -2.0000000000000000E-002     7.5886968098515299E-010
  -1.9949999999999999E-002     8.2082830390577710E-010
  -1.9900000000000001E-002     8.8238024793398829E-010
  -1.9850000000000000E-002     9.4354613964664693E-010
  -1.9799999999999998E-002     1.0044676523275750E-009
  -1.9750000000000000E-002     1.0653785851064936E-009
  -1.9699999999999999E-002     1.1265692672182197E-009
  -1.9650000000000001E-002     1.1883484207801499E-009
  -1.9599999999999999E-002     1.2510074792024227E-009
  -1.9550000000000001E-002     1.3147915413963049E-009
  -1.9500000000000000E-002     1.3798800483778901E-009
  -1.9449999999999999E-002     1.4463783273710322E-009
  -1.9400000000000001E-002     1.5143207142243095E-009
  -1.9349999999999999E-002     1.5836833427447975E-009
  -1.9300000000000001E-002     1.6544048347325143E-009
  -1.9250000000000000E-002     1.7264119255599721E-009
  -1.9199999999999998E-002     1.7996466188915920E-009
  -1.9150000000000000E-002     1.8740913162194977E-009
  -1.9099999999999999E-002     1.9497894797922630E-009
  -1.9050000000000001E-002     2.0268582962122614E-009
  -1.9000000000000000E-002     2.1054920485312268E-009
  -1.8949999999999998E-002     2.1859546109347182E-009
  -1.8900000000000000E-002     2.2685607545324800E-009
  -1.8849999999999999E-002     2.3536480513248516E-009
  -1.8800000000000001E-002     2.4415439651601385E-009
  -1.8749999999999999E-002     2.5325292791684422E-009
  -1.8700000000000001E-002     2.6268068509902475E-009
  -1.8650000000000000E-002     2.7244772555037753E-009
  -1.8599999999999998E-002     2.8255283817379864E-009
  -1.8550000000000001E-002     2.9298396150836523E-009
  -1.8499999999999999E-002     3.0372015457939685E-009
  -1.8450000000000001E-002     3.1473490086486295E-009
  -1.8400000000000000E-002     3.2600039318820673E-009
  -1.8349999999999998E-002     3.3749192606517010E-009
  -1.8300000000000000E-002     3.4919197242914391E-009
  -1.8249999999999999E-002     3.6109331523093917E-009
  -1.8200000000000001E-002     3.7320065237538797E-009
  -1.8149999999999999E-002     3.8553074407810870E-009
  -1.8100000000000002E-002     3.9811095363287430E-009
  -1.8050000000000000E-002     4.1097669255417361E-009
  -1.7999999999999999E-002     4.2416797428600736E-009
  -1.7950000000000001E-002     4.3772597506865311E-009
  -1.7899999999999999E-002     4.5168987845814154E-009
  -1.7850000000000001E-002     4.6609430119827066E-009
  -1.7800000000000000E-002     4.8096814452885793E-009
  -1.7749999999999998E-002     4.9633414377784379E-009
  -1.7700000000000000E-002     5.1220960459459493E-009
  -1.7649999999999999E-002     5.2860780632826489E-009
  -1.7600000000000001E-002     5.4553929478569970E-009
  -1.7550000000000000E-002     5.6301323065932240E-009
  -1.7499999999999998E-002     5.8103812435226550E-009
  -1.7450000000000000E-002     5.9962185989758046E-009
  -1.7399999999999999E-002     6.1877069339081415E-009
  -1.7350000000000001E-002     6.3848806146122172E-009
  -1.7299999999999999E-002     6.5877306947834725E-009
  -1.7250000000000001E-002     6.7961952986486858E-009
  -1.7200000000000000E-002     7.0101614971562240E-009
  -1.7149999999999999E-002     7.2294737796748987E-009
  -1.7100000000000001E-002     7.4539657396996558E-009
  -1.7049999999999999E-002     7.6834958280022600E-009
  -1.7000000000000001E-002     7.9179958520684161E-009
  -1.6950000000000000E-002     8.1575163668518097E-009
  -1.6899999999999998E-002     8.4022575114139037E-009
  -1.6850000000000000E-002     8.6525926170483188E-009
  -1.6799999999999999E-002     8.9090628467988887E-009
  -1.6750000000000001E-002     9.1723472755929252E-009
  -1.6700000000000000E-002     9.4432201944219552E-009
  -1.6649999999999998E-002     9.7224869336947926E-009
  -1.6600000000000000E-002     1.0010921120978385E-008
  -1.6549999999999999E-002     1.0309202605855891E-008
  -1.6500000000000001E-002     1.0617868152400838E-008
  -1.6449999999999999E-002     1.0937275902482721E-008
  -1.6400000000000001E-002     1.1267593128391508E-008
  -1.6350000000000000E-002     1.1608803495959921E-008
  -1.6299999999999999E-002     1.1960724894234707E-008
  -1.6250000000000001E-002     1.2323048099227725E-008
  -1.6199999999999999E-002     1.2695379361393973E-008
  -1.6150000000000001E-002     1.3077296775455461E-008
  -1.6100000000000000E-002     1.3468409836060515E-008
  -1.6049999999999998E-002     1.3868414858333149E-008
  -1.6000000000000000E-002     1.4277159836491150E-008
  -1.5949999999999999E-002     1.4694686514921539E-008
  -1.5900000000000001E-002     1.5121269169497675E-008
  -1.5850000000000000E-002     1.5557425044548498E-008
  -1.5799999999999998E-002     1.6003903085848967E-008
  -1.5750000000000000E-002     1.6461639440932820E-008
  -1.5699999999999999E-002     1.6931695127525020E-008
  -1.5650000000000001E-002     1.7415170337735431E-008
  -1.5599999999999999E-002     1.7913116480704863E-008
  -1.5550000000000001E-002     1.8426454953667078E-008
  -1.5500000000000000E-002     1.8955912033792922E-008
  -1.5449999999999998E-002     1.9501975188562888E-008
  -1.5400000000000000E-002     2.0064894919292905E-008
  -1.5349999999999999E-002     2.0644706493625499E-008
  -1.5300000000000001E-002     2.1241278551454422E-008
  -1.5250000000000000E-002     2.1854379536326687E-008
  -1.5199999999999998E-002     2.2483762208062792E-008
  -1.5150000000000000E-002     2.3129229859966987E-008
  -1.5099999999999999E-002     2.3790701246678843E-008
  -1.5050000000000001E-002     2.4468263834053457E-008
  -1.4999999999999999E-002     2.5162186609294208E-008
  -1.4949999999999998E-002     2.5872935442226715E-008
  -1.4900000000000000E-002     2.6601153618282925E-008
  -1.4849999999999999E-002     2.7347619394484746E-008
  -1.4800000000000001E-002     2.8113204252186359E-008
  -1.4749999999999999E-002     2.8898802576303836E-008
  -1.4700000000000001E-002     2.9705295484484712E-008
  -1.4650000000000000E-002     3.0533499027889880E-008
  -1.4599999999999998E-002     3.1384138969463112E-008
  -1.4550000000000000E-002     3.2257846422256863E-008
  -1.4499999999999999E-002     3.3155171229189136E-008
  -1.4450000000000001E-002     3.4076607384090993E-008
  -1.4400000000000000E-002     3.5022622823019630E-008
  -1.4349999999999998E-002     3.5993689977162534E-008
  -1.4300000000000000E-002     3.6990301390881481E-008
  -1.4249999999999999E-002     3.8012960089124487E-008
  -1.4200000000000001E-002     3.9062186237639245E-008
  -1.4149999999999999E-002     4.0138475818026504E-008
  -1.4099999999999998E-002     4.1242302430836668E-008
  -1.4050000000000000E-002     4.2374095102500284E-008
  -1.3999999999999999E-002     4.3534258949260858E-008
  -1.3950000000000001E-002     4.4723201558259230E-008
  -1.3899999999999999E-002     4.5941382563817089E-008
  -1.3850000000000001E-002     4.7189359937367494E-008
  -1.3800000000000000E-002     4.8467833274971152E-008
  -1.3749999999999998E-002     4.9777659964152581E-008
  -1.3700000000000000E-002     5.1119864630298610E-008
  -1.3649999999999999E-002     5.2495601684216570E-008
  -1.3600000000000001E-002     5.3906113999348099E-008
  -1.3550000000000000E-002     5.5352665596254399E-008
  -1.3499999999999998E-002     5.6836483677778081E-008
  -1.3450000000000000E-002     5.8358699850252301E-008
  -1.3399999999999999E-002     5.9920336860830847E-008
  -1.3350000000000001E-002     6.1522263574917036E-008
  -1.3299999999999999E-002     6.3165223479615795E-008
  -1.3249999999999998E-002     6.4849856499302479E-008
  -1.3200000000000000E-002     6.6576703240209262E-008
  -1.3149999999999998E-002     6.8346250916364132E-008
  -1.3100000000000001E-002     7.0158975467189071E-008
  -1.3049999999999999E-002     7.2015371193429313E-008
  -1.3000000000000001E-002     7.3916002029598394E-008
  -1.2950000000000000E-002     7.5861560675089507E-008
  -1.2899999999999998E-002     7.7852880188281465E-008
  -1.2850000000000000E-002     7.9890978518144278E-008
  -1.2799999999999999E-002     8.1977068496467162E-008