  -4.0000000000000001E-002     0.0000000000000000     
  -3.9949999999999999E-002     0.0000000000000000     
  -3.9899999999999998E-002     0.0000000000000000     
  -3.9850000000000003E-002     0.0000000000000000     
  -3.9800000000000002E-002     0.0000000000000000     
  -3.9750000000000001E-002     0.0000000000000000     
  -3.9699999999999999E-002     0.0000000000000000     
  -3.9649999999999998E-002     0.0000000000000000     
  -3.9600000000000003E-002     0.0000000000000000     
  -3.9550000000000002E-002     0.0000000000000000     
  -3.9500000000000000E-002     0.0000000000000000     
  -3.9449999999999999E-002     0.0000000000000000     
  -3.9399999999999998E-002     3.1299059082322636E-034
  -3.9350000000000003E-002     4.9896705348061669E-033
  -3.9300000000000002E-002     3.7705087482691834E-032
  -3.9250000000000000E-002     1.7043749836974257E-031
  -3.9199999999999999E-002     4.4046386001772437E-031
  -3.9150000000000004E-002     8.2531462029860896E-032
  -3.9100000000000003E-002    -5.3055554418106894E-030
  -3.9050000000000001E-002    -3.0152763422817594E-029
  -3.9000000000000000E-002    -1.0642427857496463E-028
  -3.8949999999999999E-002    -2.7711741074474148E-028
  -3.8900000000000004E-002    -5.3951857305749227E-028
  -3.8850000000000003E-002    -6.9042399594477126E-028
  -3.8800000000000001E-002    -6.6094483799045859E-029
  -3.8750000000000000E-002     2.6919371136114213E-027
  -3.8699999999999998E-002     9.4948487929729110E-027
  -3.8650000000000004E-002     2.1790171473147845E-026
  -3.8600000000000002E-002     3.8352832709346307E-026
  -3.8550000000000001E-002     5.2182298287469889E-026
  -3.8500000000000000E-002     4.7439635329059818E-026
  -3.8449999999999998E-002    -2.9623919194353583E-027
  -3.8400000000000004E-002    -1.4025583500557567E-025
  -3.8350000000000002E-002    -4.2526259997773805E-025
  -3.8300000000000001E-002    -9.4187396671593111E-025
  -3.8249999999999999E-002    -1.7718907741027829E-024
  -3.8199999999999998E-002    -2.8787755923302556E-024
  -3.8150000000000003E-002    -3.8182927043995144E-024
  -3.8100000000000002E-002    -3.2573482154362492E-024
  -3.8050000000000000E-002     1.4936180122553037E-024
  -3.7999999999999999E-002     1.4337298789251568E-023
  -3.7949999999999998E-002     3.8660644161851683E-023
  -3.7900000000000003E-002     7.3127416049064787E-023
  -3.7850000000000002E-002     1.0522641570659782E-022
  -3.7800000000000000E-002     1.0529229052440837E-022
  -3.7749999999999999E-002     2.6936203375152030E-023
  -3.7699999999999997E-002    -1.7826473878849539E-022
  -3.7650000000000003E-002    -5.2655754630306086E-022
  -3.7600000000000001E-002    -9.5281684366631319E-022
  -3.7550000000000000E-002    -1.2673030651155391E-021
  -3.7499999999999999E-002    -1.1557475571182857E-021
  -3.7449999999999997E-002    -2.6385294483873524E-022
  -3.7400000000000003E-002     1.6158203873508073E-021
  -3.7350000000000001E-002     4.2921933273124385E-021
  -3.7300000000000000E-002     6.9708681803456847E-021
  -3.7249999999999998E-002     8.2618081342296599E-021
  -3.7200000000000004E-002     6.5464067361134810E-021
  -3.7150000000000002E-002     7.2094847146582111E-022
  -3.7100000000000001E-002    -8.8946227266657752E-021
  -3.7050000000000000E-002    -1.9929643731331646E-020
  -3.6999999999999998E-002    -2.8154844116038107E-020
  -3.6950000000000004E-002    -2.8826585298770331E-020
  -3.6900000000000002E-002    -1.8978215132560540E-020
  -3.6850000000000001E-002     2.5359170305661208E-022
  -3.6799999999999999E-002     2.2682780505648882E-020
  -3.6749999999999998E-002     3.8777501274660298E-020
  -3.6700000000000003E-002     4.0231068087152176E-020
  -3.6650000000000002E-002     2.5868824801251608E-020
  -3.6600000000000001E-002     5.6927177263731761E-021
  -3.6549999999999999E-002    -5.8638654144280786E-022
  -3.6499999999999998E-002     2.7502136339238056E-020
  -3.6450000000000003E-002     9.6596683334649137E-020
  -3.6400000000000002E-002     1.8566540229210254E-019
  -3.6350000000000000E-002     2.4210852354289008E-019
  -3.6299999999999999E-002     1.9542209270798293E-019
  -3.6249999999999998E-002    -1.0923465128021881E-020
  -3.6200000000000003E-002    -3.7927309800119161E-019
  -3.6150000000000002E-002    -8.2841140660850553E-019
  -3.6100000000000000E-002    -1.1961228174440743E-018
  -3.6049999999999999E-002    -1.2852314838461262E-018
  -3.6000000000000004E-002    -9.4472828705815364E-019
  -3.5950000000000003E-002    -1.5503717264584313E-019
  -3.5900000000000001E-002     9.2645486580917449E-019
  -3.5850000000000000E-002     1.9957296682880216E-018
  -3.5799999999999998E-002     2.7132855192829300E-018
  -3.5750000000000004E-002     2.8566274775979395E-018
  -3.5700000000000003E-002     2.4386194487985149E-018
  -3.5650000000000001E-002     1.7128664001923716E-018
  -3.5600000000000000E-002     1.0299364602433464E-018
  -3.5549999999999998E-002     5.8755725765434079E-019
  -3.5500000000000004E-002     1.9968023705719668E-019
  -3.5450000000000002E-002    -7.5418611842012836E-019
  -3.5400000000000001E-002    -3.0846391003363872E-018
  -3.5349999999999999E-002    -7.2711114832723782E-018
  -3.5299999999999998E-002    -1.2855422339502510E-017
  -3.5250000000000004E-002    -1.8072712120849172E-017
  -3.5200000000000002E-002    -2.0042210461992433E-017
  -3.5150000000000001E-002    -1.5664211896436945E-017
  -3.5099999999999999E-002    -3.0526069181251958E-018
  -3.5049999999999998E-002     1.7005102571353897E-017
  -3.5000000000000003E-002     4.0259361171710138E-017
  -3.4950000000000002E-002     5.9485701028938400E-017
  -3.4900000000000000E-002     6.6436411469567779E-017
  -3.4849999999999999E-002     5.4825949416772635E-017
  -3.4799999999999998E-002     2.3338476426614633E-017
  -3.4750000000000003E-002    -2.2614221864610175E-017
  -3.4700000000000002E-002    -7.1403056253090194E-017
  -3.4650000000000000E-002    -1.0822039112534195E-016
  -3.4599999999999999E-002    -1.1988630532321178E-016
  -3.4549999999999997E-002    -9.9786832525550077E-017
  -3.4500000000000003E-002    -5.0993674137603449E-017
  -3.4450000000000001E-002     1.3909951158372891E-017
  -3.4400000000000000E-002     7.6596498267190642E-017
  -3.4349999999999999E-002     1.1919212971327764E-016
  -3.4299999999999997E-002     1.3059745540103266E-016
  -3.4250000000000003E-002     1.1034016718203486E-016
  -3.4200000000000001E-002     6.8185801025420467E-017
  -3.4150000000000000E-002     1.9431703659570253E-017
  -3.4099999999999998E-002    -2.2248272114749849E-017
  -3.4049999999999997E-002    -5.1193603051544814E-017
  -3.4000000000000002E-002    -7.2107872552694494E-017
  -3.3950000000000001E-002    -9.6555702968985963E-017
  -3.3900000000000000E-002    -1.3436199675895941E-016
  -3.3849999999999998E-002    -1.8338734176806541E-016
  -3.3799999999999997E-002    -2.2282205669752095E-016
  -3.3750000000000002E-002    -2.1479618280356818E-016
  -3.3700000000000001E-002    -1.1646706085067845E-016
  -3.3649999999999999E-002     9.9536913144465932E-017
  -3.3599999999999998E-002     4.2289702706622331E-016
  -3.3550000000000003E-002     7.9097408639739626E-016
  -3.3500000000000002E-002     1.0906945001149512E-015
  -3.3450000000000001E-002     1.1816595666638471E-015
  -3.3399999999999999E-002     9.3802685650270188E-016
  -3.3349999999999998E-002     2.9879591951205343E-016
  -3.3300000000000003E-002    -6.8962353138631626E-016
  -3.3250000000000002E-002    -1.8556554634290142E-015
  -3.3200000000000000E-002    -2.9216045785092374E-015
  -3.3149999999999999E-002    -3.5611456618268124E-015
  -3.3099999999999997E-002    -3.4841762985481477E-015
  -3.3050000000000003E-002    -2.5271238837732274E-015
  -3.3000000000000002E-002    -7.2190341459399019E-016
  -3.2950000000000000E-002     1.6797763509832580E-015
  -3.2899999999999999E-002     4.2386161319178180E-015
  -3.2850000000000004E-002     6.4121809725223053E-015
  -3.2800000000000003E-002     7.6717917135593495E-015
  -3.2750000000000001E-002     7.6223560174578596E-015
  -3.2700000000000000E-002     6.0951397597628368E-015
  -3.2649999999999998E-002     3.1922220781707839E-015
  -3.2600000000000004E-002    -7.2403500902750484E-016
  -3.2550000000000003E-002    -5.0882819743366764E-015
  -3.2500000000000001E-002    -9.2182281829989757E-015
  -3.2450000000000000E-002    -1.2409850481570189E-014
  -3.2399999999999998E-002    -1.4028129680557069E-014
  -3.2350000000000004E-002    -1.3589133997260001E-014
  -3.2300000000000002E-002    -1.0836286122021438E-014
  -3.2250000000000001E-002    -5.8136115674538417E-015
  -3.2199999999999999E-002     1.0697916951115915E-015
  -3.2149999999999998E-002     9.0032572199319339E-015
  -3.2100000000000004E-002     1.6796568365430324E-014
  -3.2050000000000002E-002     2.2991942053683508E-014
  -3.2000000000000001E-002     2.6082444661188415E-014
  -3.1949999999999999E-002     2.4822813256780066E-014
  -3.1899999999999998E-002     1.8580098655685000E-014
  -3.1850000000000003E-002     7.6380236318526970E-015
  -3.1800000000000002E-002    -6.6450654991024251E-015
  -3.1750000000000000E-002    -2.1908738570277385E-014
  -3.1699999999999999E-002    -3.5129821306059122E-014
  -3.1649999999999998E-002    -4.3194906032488180E-014
  -3.1600000000000003E-002    -4.3599096250376800E-014
  -3.1550000000000002E-002    -3.5110841459960637E-014
  -3.1500000000000000E-002    -1.8229160731039409E-014
  -3.1449999999999999E-002     4.7053422133330356E-015
  -3.1399999999999997E-002     2.9806254555003134E-014
  -3.1350000000000003E-002     5.2304560614933637E-014
  -3.1300000000000001E-002     6.7446321325664948E-014
  -3.1250000000000000E-002     7.1432776154520418E-014
  -3.1199999999999999E-002     6.2203583555073325E-014
  -3.1150000000000001E-002     3.9908406007993824E-014
  -3.1100000000000003E-002     6.9921670483675974E-015
  -3.1050000000000001E-002    -3.2093009335942058E-014
  -3.1000000000000000E-002    -7.1469218090390055E-014
  -3.0949999999999998E-002    -1.0459819669167986E-013
  -3.0900000000000000E-002    -1.2513103734562228E-013
  -3.0850000000000002E-002    -1.2777367534657234E-013
  -3.0800000000000001E-002    -1.0912641032818400E-013
  -3.0750000000000000E-002    -6.8455435396094874E-014
  -3.0699999999999998E-002    -8.3184538456646747E-015
  -3.0650000000000000E-002     6.5092175434666773E-014
  -3.0600000000000002E-002     1.4207387124808281E-013
  -3.0550000000000001E-002     2.1019020892203824E-013
  -3.0499999999999999E-002     2.5580391535227084E-013
  -3.0449999999999998E-002     2.6630747296763911E-013
  -3.0400000000000000E-002     2.3277394239431250E-013
  -3.0350000000000002E-002     1.5253914218689247E-013
  -3.0300000000000001E-002     3.1093067924338823E-014
  -3.0249999999999999E-002    -1.1732948281880232E-013
  -3.0200000000000001E-002    -2.7088208186075388E-013
  -3.0150000000000000E-002    -4.0304645263554663E-013
  -3.0100000000000002E-002    -4.8703667284584004E-013
  -3.0050000000000000E-002    -5.0092632965195781E-013
  -2.9999999999999999E-002    -4.3249073496256196E-013
  -2.9950000000000001E-002    -2.8271187774089021E-013
  -2.9899999999999999E-002    -6.7093908876083474E-014
  -2.9850000000000002E-002     1.8565018558545274E-013
  -2.9800000000000000E-002     4.3745709470004215E-013
  -2.9749999999999999E-002     6.4671998251326240E-013
  -2.9700000000000001E-002     7.7506295902981166E-013
  -2.9650000000000003E-002     7.9393217922147029E-013
  -2.9600000000000001E-002     6.8990034715983247E-013
  -2.9550000000000000E-002     4.6782920507841840E-013
  -2.9499999999999998E-002     1.5138715130066941E-013
  -2.9450000000000000E-002    -2.1919534872196784E-013
  -2.9400000000000003E-002    -5.9189777456724142E-013
  -2.9350000000000001E-002    -9.0968411329202601E-013
  -2.9300000000000000E-002    -1.1185235287637703E-012
  -2.9249999999999998E-002    -1.1757149583422723E-012
  -2.9200000000000000E-002    -1.0574305421648115E-012
  -2.9150000000000002E-002    -7.6431805522417609E-013
  -2.9100000000000001E-002    -3.2406221852303788E-013
  -2.9049999999999999E-002     2.0995107113614984E-013
  -2.8999999999999998E-002     7.6424930095384396E-013
  -2.8950000000000000E-002     1.2548637861680740E-012
  -2.8900000000000002E-002     1.5998045863283196E-012
  -2.8850000000000001E-002     1.7325936393489806E-012
  -2.8799999999999999E-002     1.6145553565183933E-012
  -2.8749999999999998E-002     1.2434954328921241E-012
  -2.8700000000000000E-002     6.5684649957295465E-013
  -2.8650000000000002E-002    -7.1742324304251828E-014
  -2.8600000000000000E-002    -8.4219473288091156E-013
  -2.8549999999999999E-002    -1.5427628052009665E-012
  -2.8500000000000001E-002    -2.0673384503445416E-012
  -2.8450000000000000E-002    -2.3323893882767872E-012
  -2.8400000000000002E-002    -2.2906351107761787E-012
  -2.8350000000000000E-002    -1.9391902512178680E-012
  -2.8299999999999999E-002    -1.3208927586683601E-012
  -2.8250000000000001E-002    -5.1868334536333872E-013
  -2.8200000000000003E-002     3.5603332701001289E-013
  -2.8150000000000001E-002     1.1793118994900072E-012
  -2.8100000000000000E-002     1.8326511534674742E-012
  -2.8049999999999999E-002     2.2206625473884157E-012
  -2.8000000000000001E-002     2.2860921157864855E-012
  -2.7950000000000003E-002     2.0200917229210951E-012
  -2.7900000000000001E-002     1.4660021598542318E-012
  -2.7850000000000000E-002     7.1546277582854805E-013
  -2.7799999999999998E-002    -1.0352501623266262E-013
  -2.7750000000000000E-002    -8.4584234910176233E-013
  -2.7700000000000002E-002    -1.3737320321899684E-012
  -2.7650000000000001E-002    -1.5830731322764480E-012
  -2.7600000000000000E-002    -1.4269602728758397E-012
  -2.7549999999999998E-002    -9.3172559125064287E-013
  -2.7500000000000000E-002    -2.0111823088486180E-013
  -2.7450000000000002E-002     5.9400734039460050E-013
  -2.7400000000000001E-002     1.2406849769256045E-012
  -2.7349999999999999E-002     1.5208312344947886E-012
  -2.7299999999999998E-002     1.2549521383724995E-012
  -2.7250000000000000E-002     3.4551494968240267E-013
  -2.7200000000000002E-002    -1.1874790155547517E-012
  -2.7150000000000001E-002    -3.1851743238061905E-012
  -2.7099999999999999E-002    -5.3469648155373087E-012
  -2.7049999999999998E-002    -7.2471961041366408E-012
  -2.7000000000000000E-002    -8.3695624438282701E-012
  -2.6950000000000002E-002    -8.1547474165087474E-012
  -2.6900000000000000E-002    -6.0552866148208077E-012
  -2.6849999999999999E-002    -1.5910913300955297E-012
  -2.6800000000000001E-002     5.6004811856768445E-012
  -2.6749999999999999E-002     1.5725120129575976E-011
  -2.6700000000000002E-002     2.8806532488595028E-011
  -2.6650000000000000E-002     4.4678391935917494E-011
  -2.6599999999999999E-002     6.2994739365960377E-011
  -2.6550000000000001E-002     8.3258800303292554E-011
  -2.6500000000000003E-002     1.0486862647426692E-010
  -2.6450000000000001E-002     1.2717592728566618E-010
  -2.6400000000000000E-002     1.4955244270793378E-010
  -2.6349999999999998E-002     1.7145593065988864E-010
  -2.6300000000000000E-002     1.9248679642078560E-010
  -2.6250000000000002E-002     2.1242663917294642E-010
  -2.6200000000000001E-002     2.3125182897688769E-010
  -2.6150000000000000E-002     2.4911912765676438E-010
  -2.6099999999999998E-002     2.6632493980774653E-010
  -2.6050000000000000E-002     2.8324490436243000E-010
  -2.6000000000000002E-002     3.0026400121905824E-010
  -2.5950000000000001E-002     3.1770996176026186E-010
  -2.5899999999999999E-002     3.3580114937054070E-010
  -2.5849999999999998E-002     3.5461806468363188E-010
  -2.5800000000000000E-002     3.7410166556468173E-010
  -2.5750000000000002E-002     3.9407749657589772E-010
  -2.5700000000000001E-002     4.1429871016369439E-010
  -2.5649999999999999E-002     4.3449891840390935E-010
  -2.5599999999999998E-002     4.5444420089290190E-010
  -2.5550000000000000E-002     4.7397552306049387E-010
  -2.5500000000000002E-002     4.9303452052067657E-010
  -2.5450000000000000E-002     5.1167067143091186E-010
  -2.5399999999999999E-002     5.3003011794272757E-010
  -2.5349999999999998E-002     5.4832966482517389E-010
  -2.5300000000000000E-002     5.6682182535444718E-010
  -2.5250000000000002E-002     5.8575696672432755E-010
  -2.5200000000000000E-002     6.0534902128614049E-010
  -2.5149999999999999E-002     6.2575025056841320E-010
  -2.5100000000000001E-002     6.4703810980175617E-010
  -2.5049999999999999E-002     6.6921745303811270E-010
  -2.5000000000000001E-002     6.9223583950303377E-010
  -2.4950000000000000E-002     7.1600998495793386E-010
  -2.4899999999999999E-002     7.4045748207225792E-010
  -2.4850000000000001E-002     7.6552601839282963E-010
  -2.4800000000000003E-002     7.9121455575427035E-010
  -2.4750000000000001E-002     8.1757905311582423E-010
  -2.4700000000000000E-002     8.4472221765180911E-010
  -2.4649999999999998E-002     8.7276787222356974E-010
  -2.4600000000000000E-002     9.0182612726592851E-010
  -2.4550000000000002E-002     9.3195869833742586E-010
  -2.4500000000000001E-002     9.6315305493085348E-010
  -2.4450000000000000E-002     9.9531394293636557E-010
  -2.4399999999999998E-002     1.0282741500825550E-009
  -2.4350000000000000E-002     1.0618257722673635E-009
  -2.4299999999999999E-002     1.0957626226257439E-009
  -2.4250000000000001E-002     1.1299256228148001E-009
  -2.4199999999999999E-002     1.1642405884213246E-009
  -2.4150000000000001E-002     1.1987416368517185E-009
  -2.4100000000000000E-002     1.2335751907511764E-009
  -2.4049999999999998E-002     1.2689872289023765E-009
  -2.4000000000000000E-002     1.3052985838431621E-009
  -2.3949999999999999E-002     1.3428738399533938E-009
  -2.3900000000000001E-002     1.3820909047638895E-009
  -2.3850000000000000E-002     1.4233129629140937E-009
  -2.3800000000000002E-002     1.4668634963169861E-009
  -2.3750000000000000E-002     1.5130021959334394E-009
  -2.3699999999999999E-002     1.5619006540311356E-009
  -2.3650000000000001E-002     1.6136164407201045E-009
  -2.3599999999999999E-002     1.6680709512692531E-009
  -2.3550000000000001E-002     1.7250357340072515E-009
  -2.3500000000000000E-002     1.7841376618596388E-009
  -2.3449999999999999E-002     1.8448843847152331E-009
  -2.3400000000000001E-002     1.9067160394206724E-009
  -2.3349999999999999E-002     1.9690770738964322E-009
  -2.3300000000000001E-002     2.0314976337357100E-009
  -2.3250000000000000E-002     2.0936707661267708E-009
  -2.3199999999999998E-002     2.1555120048993167E-009
  -2.3150000000000000E-002     2.2171857856151287E-009
  -2.3099999999999999E-002     2.2790984521099748E-009
  -2.3050000000000001E-002     2.3418572880465143E-009
  -2.3000000000000000E-002     2.4062013457160008E-009
  -2.2950000000000002E-002     2.4729212071070752E-009
  -2.2900000000000000E-002     2.5427731906886558E-009
  -2.2849999999999999E-002     2.6164044970563057E-009
  -2.2800000000000001E-002     2.6942915360554201E-009
  -2.2749999999999999E-002     2.7766952939182946E-009
  -2.2700000000000001E-002     2.8636380274775896E-009
  -2.2650000000000000E-002     2.9548994444532312E-009
  -2.2599999999999999E-002     3.0500406665795091E-009
  -2.2550000000000001E-002     3.1484547029449636E-009
  -2.2499999999999999E-002     3.2494466208832399E-009
  -2.2450000000000001E-002     3.3523380030161547E-009
  -2.2400000000000000E-002     3.4565845579372412E-009
  -2.2349999999999998E-002     3.5618852840199713E-009
  -2.2300000000000000E-002     3.6682628109754985E-009
  -2.2249999999999999E-002     3.7760925150746271E-009
  -2.2200000000000001E-002     3.8860655570585500E-009
  -2.2150000000000000E-002     3.9990870447060412E-009
  -2.2100000000000002E-002     4.1161275420528048E-009
  -2.2050000000000000E-002     4.2380569894204489E-009
  -2.1999999999999999E-002     4.3654969416371231E-009
  -2.1950000000000001E-002     4.4987275514377320E-009
  -2.1899999999999999E-002     4.6376650859309174E-009
  -2.1850000000000001E-002     4.7819167651478229E-009
  -2.1800000000000000E-002     4.9308940311734335E-009
  -2.1749999999999999E-002     5.0839559535831506E-009
  -2.1700000000000001E-002     5.2405402700384804E-009
  -2.1649999999999999E-002     5.4002565936823496E-009
  -2.1600000000000001E-002     5.5629259224689844E-009
  -2.1550000000000000E-002     5.7285599022984536E-009
  -2.1499999999999998E-002     5.8973006651780484E-009
  -2.1450000000000000E-002     6.0693478518754671E-009
  -2.1399999999999999E-002     6.2448983779954188E-009
  -2.1350000000000001E-002     6.4241185720272000E-009
  -2.1299999999999999E-002     6.6071557669389517E-009
  -2.1250000000000002E-002     6.7941799018848011E-009
  -2.1200000000000000E-002     6.9854342310314942E-009
  -2.1149999999999999E-002     7.1812750170584146E-009
  -2.1100000000000001E-002     7.3821870082475263E-009
  -2.1049999999999999E-002     7.5887630188332580E-009
  -2.1000000000000001E-002     7.8016598498524815E-009
  -2.0950000000000000E-002     8.0215448997535195E-009
  -2.0899999999999998E-002     8.2490417873334561E-009
  -2.0850000000000000E-002     8.4846968912509509E-009
  -2.0799999999999999E-002     8.7289679242190605E-009
  -2.0750000000000001E-002     8.9822193751370231E-009
  -2.0700000000000000E-002     9.2447228370036720E-009
  -2.0649999999999998E-002     9.5166505018530016E-009
  -2.0600000000000000E-002     9.7980586843533195E-009
  -2.0549999999999999E-002     1.0088867878162443E-008
  -2.0500000000000001E-002     1.0388855867818234E-008
  -2.0449999999999999E-002     1.0697673623370833E-008
  -2.0400000000000001E-002     1.1014901054671458E-008
  -2.0350000000000000E-002     1.1340130355068472E-008
  -2.0299999999999999E-002     1.1673070545282357E-008
  -2.0250000000000001E-002     1.2013637481076208E-008
  -2.0199999999999999E-002     1.2362018190931633E-008
  -2.0150000000000001E-002     1.2718667275175983E-008
  -2.0100000000000000E-002     1.3084243689251668E-008
  -2.0049999999999998E-002     1.3459494460596665E-008
  -2.0000000000000000E-002     1.3845107755256723E-008
  -1.9949999999999999E-002     1.4241580952245326E-008
  -1.9900000000000001E-002     1.4649124248187351E-008
  -1.9850000000000000E-002     1.5067628429013433E-008
  -1.9799999999999998E-002     1.5496688329964645E-008
  -1.9750000000000000E-002     1.5935683392797546E-008
  -1.9699999999999999E-002     1.6383885356165088E-008
  -1.9650000000000001E-002     1.6840566881447127E-008
  -1.9599999999999999E-002     1.7305086763096247E-008
  -1.9550000000000001E-002     1.7776961098482415E-008
  -1.9500000000000000E-002     1.8255901781815619E-008
  -1.9449999999999999E-002     1.8741861570892896E-008
  -1.9400000000000001E-002     1.9235071709334222E-008
  -1.9349999999999999E-002     1.9736094872795807E-008
  -1.9300000000000001E-002     2.0245891936022444E-008
  -1.9250000000000000E-002     2.0765858641707002E-008
  -1.9199999999999998E-002     2.1297824296084165E-008
  -1.9150000000000000E-002     2.1843996484500780E-008
  -1.9099999999999999E-002     2.2406842689424017E-008
  -1.9050000000000001E-002     2.2988911791869089E-008
  -1.9000000000000000E-002     2.3592643082142456E-008
  -1.8949999999999998E-002     2.4220192486251621E-008
  -1.8900000000000000E-002     2.4873316461729262E-008
  -1.8849999999999999E-002     2.5553303167176515E-008
  -1.8800000000000001E-002     2.6260980638617916E-008
  -1.8749999999999999E-002     2.6996763279292214E-008
  -1.8700000000000001E-002     2.7760696983149741E-008
  -1.8650000000000000E-002     2.8552520768444301E-008
  -1.8599999999999998E-002     2.9371665953708656E-008
  -1.8550000000000001E-002     3.0217281226412104E-008
  -1.8499999999999999E-002     3.1088217228828637E-008
  -1.8450000000000001E-002     3.1983068397755354E-008
  -1.8400000000000000E-002     3.2900265539308993E-008
  -1.8349999999999998E-002     3.3838193161484502E-008
  -1.8300000000000000E-002     3.4795367398521388E-008
  -1.8249999999999999E-002     3.5770603907927812E-008
  -1.8200000000000001E-002     3.6763149674146304E-008
  -1.8149999999999999E-002     3.7772728379973021E-008
  -1.8100000000000002E-002     3.8799493352209260E-008
  -1.8050000000000000E-002     3.9843906649347169E-008
  -1.7999999999999999E-002     4.0906528245567086E-008
  -1.7950000000000001E-002     4.1987835046817393E-008
  -1.7899999999999999E-002     4.3088089620591249E-008
  -1.7850000000000001E-002     4.4207264716536667E-008
  -1.7800000000000000E-002     4.5345080911176343E-008
  -1.7749999999999998E-002     4.6501121278384859E-008
  -1.7700000000000000E-002     4.7675011906959756E-008
  -1.7649999999999999E-002     4.8866588519143500E-008
  -1.7600000000000001E-002     5.0076051694012161E-008
  -1.7550000000000000E-002     5.1304060939240451E-008
  -1.7499999999999998E-002     5.2551778351593525E-008
  -1.7450000000000000E-002     5.3820886710071187E-008
  -1.7399999999999999E-002     5.5113647296689638E-008
  -1.7350000000000001E-002     5.6432946894063925E-008
  -1.7299999999999999E-002     5.7782361663102569E-008
  -1.7250000000000001E-002     5.9166259365355779E-008
  -1.7200000000000000E-002     6.0589813329458731E-008
  -1.7149999999999999E-002     6.2058939249893993E-008
  -1.7100000000000001E-002     6.3580111487891107E-008
  -1.7049999999999999E-002     6.5160082118796545E-008
  -1.7000000000000001E-002     6.6805575831976609E-008
  -1.6950000000000000E-002     6.8522914239540378E-008
  -1.6899999999999998E-002     7.0317763071004650E-008
  -1.6850000000000000E-002     7.2194877110703655E-008
  -1.6799999999999999E-002     7.4157994126822060E-008
  -1.6750000000000001E-002     7.6209772807196629E-008
  -1.6700000000000000E-002     7.8351815402548997E-008
  -1.6649999999999998E-002     8.0584680328216804E-008
  -1.6600000000000000E-002     8.2907965624804611E-008
  -1.6549999999999999E-002     8.5320351829830477E-008
  -1.6500000000000001E-002     8.7819656190716216E-008
  -1.6449999999999999E-002     9.0402955386312630E-008
  -1.6400000000000001E-002     9.3066700823069187E-008
  -1.6350000000000000E-002     9.5806919551314611E-008
  -1.6299999999999999E-002     9.8619454455736386E-008
  -1.6250000000000001E-002     1.0150020652413637E-007
  -1.6199999999999999E-002     1.0444537893453704E-007
  -1.6150000000000001E-002     1.0745167463076236E-007
  -1.6100000000000000E-002     1.1051633944229289E-007
  -1.6049999999999998E-002     1.1363712342738842E-007
  -1.6000000000000000E-002     1.1681207252999968E-007
  -1.5949999999999999E-002     1.2003926424033886E-007
  -1.5900000000000001E-002     1.2331656309853470E-007
  -1.5850000000000000E-002     1.2664142423846080E-007
  -1.5799999999999998E-002     1.3001078821635634E-007
  -1.5750000000000000E-002     1.3342118571872662E-007
  -1.5699999999999999E-002     1.3686891580052265E-007
  -1.5650000000000001E-002     1.4035032011342820E-007
  -1.5599999999999999E-002     1.4386210707063152E-007
  -1.5550000000000001E-002     1.4740160070240174E-007
  -1.5500000000000000E-002     1.5096696296895961E-007
  -1.5449999999999998E-002     1.5455732611437355E-007
  -1.5400000000000000E-002     1.5817295595106513E-007
  -1.5349999999999999E-002     1.6181530065833841E-007
  -1.5300000000000001E-002     1.6548715183842230E-007
  -1.5250000000000000E-002     1.6919249795625388E-007
  -1.5199999999999998E-002     1.7293648049050169E-007
  -1.5150000000000000E-002     1.7672520254745776E-007
  -1.5099999999999999E-002     1.8056541037171930E-007
  -1.5050000000000001E-002     1.8446417274130375E-007
  -1.4999999999999999E-002     1.8842867467701550E-007
  -1.4949999999999998E-002     1.9246599712153145E-007
  -1.4900000000000000E-002     1.9658285998075893E-007
  -1.4849999999999999E-002     2.0078553441203313E-007
  -1.4800000000000001E-002     2.0507978103218289E-007
  -1.4749999999999999E-002     2.0947066240330685E-007
  -1.4700000000000001E-002     2.1396250913798605E-007
  -1.4650000000000000E-002     2.1855875499039327E-007
  -1.4599999999999998E-002     2.2326203482786848E-007
  -1.4550000000000000E-002     2.2807406569550450E-007
  -1.4499999999999999E-002     2.3299587944933977E-007
  -1.4450000000000001E-002     2.3802802363584857E-007
  -1.4400000000000000E-002     2.4317074708098782E-007
  -1.4349999999999998E-002     2.4842440923926399E-007
  -1.4300000000000000E-002     2.5378959072774577E-007
  -1.4249999999999999E-002     2.5926745220019665E-007
  -1.4200000000000001E-002     2.6485982743407353E-007
  -1.4149999999999999E-002     2.7056923888434200E-007
  -1.4099999999999998E-002     2.7639894936710293E-007
  -1.4050000000000000E-002     2.8235270894212300E-007
  -1.3999999999999999E-002     2.8843449262890675E-007
  -1.3950000000000001E-002     2.9464809441659132E-007
  -1.3899999999999999E-002     3.0099694741181545E-007
  -1.3850000000000001E-002     3.0748381140482368E-007
  -1.3800000000000000E-002     3.1411093625136418E-007
  -1.3749999999999998E-002     3.2088021907702505E-007
  -1.3700000000000000E-002     3.2779350384427215E-007
  -1.3649999999999999E-002     3.3485301096463868E-007
  -1.3600000000000001E-002     3.4206117900319011E-007
  -1.3550000000000000E-002     3.4942071114986453E-007
  -1.3499999999999998E-002     3.5693441721733123E-007
  -1.3450000000000000E-002     3.6460497572558623E-007
  -1.3399999999999999E-002     3.7243500609929763E-007
  -1.3350000000000001E-002     3.8042699900136964E-007
  -1.3299999999999999E-002     3.8858356981685420E-007
  -1.3249999999999998E-002     3.9690766189958976E-007
  -1.3200000000000000E-002     4.0540260397881008E-007
  -1.3149999999999998E-002     4.1407216920225933E-007
  -1.3100000000000001E-002     4.2292050131210384E-007
  -1.3049999999999999E-002     4.3195175920194798E-007
  -1.3000000000000001E-002     4.4117011277490609E-007
  -1.2950000000000000E-002     4.5057947575697932E-007
  -1.2899999999999998E-002     4.6018334350416469E-007
  -1.2850000000000000E-002     4.6998461020472238E-007
  -1.2799999999999999E-002     4.7998562315949302E-007