  -4.0000000000000001E-002     0.0000000000000000     
  -3.9949999999999999E-002     0.0000000000000000     
  -3.9899999999999998E-002     0.0000000000000000     
  -3.9850000000000003E-002     0.0000000000000000     
  -3.9800000000000002E-002     0.0000000000000000     
  -3.9750000000000001E-002     0.0000000000000000     
  -3.9699999999999999E-002     0.0000000000000000     
  -3.9649999999999998E-002     0.0000000000000000     
  -3.9600000000000003E-002     0.0000000000000000     
  -3.9550000000000002E-002     0.0000000000000000     
  -3.9500000000000000E-002     0.0000000000000000     
  -3.9449999999999999E-002     0.0000000000000000     
  -3.9399999999999998E-002     0.0000000000000000     
  -3.9350000000000003E-002     0.0000000000000000     
  -3.9300000000000002E-002     0.0000000000000000     
  -3.9250000000000000E-002     0.0000000000000000     
  -3.9199999999999999E-002     0.0000000000000000     
  -3.9150000000000004E-002     0.0000000000000000     
  -3.9100000000000003E-002     0.0000000000000000     
  -3.9050000000000001E-002     0.0000000000000000     
  -3.9000000000000000E-002     0.0000000000000000     
  -3.8949999999999999E-002     0.0000000000000000     
  -3.8900000000000004E-002     0.0000000000000000     
  -3.8850000000000003E-002     0.0000000000000000     
  -3.8800000000000001E-002     0.0000000000000000     
  -3.8750000000000000E-002     0.0000000000000000     
  -3.8699999999999998E-002     0.0000000000000000     
  -3.8650000000000004E-002     0.0000000000000000     
  -3.8600000000000002E-002     0.0000000000000000     
  -3.8550000000000001E-002     0.0000000000000000     
  -3.8500000000000000E-002     0.0000000000000000     
  -3.8449999999999998E-002     0.0000000000000000     
  -3.8400000000000004E-002     0.0000000000000000     
  -3.8350000000000002E-002     0.0000000000000000     
  -3.8300000000000001E-002     0.0000000000000000     
  -3.8249999999999999E-002     0.0000000000000000     
  -3.8199999999999998E-002     0.0000000000000000     
  -3.8150000000000003E-002     0.0000000000000000     
  -3.8100000000000002E-002     0.0000000000000000     
  -3.8050000000000000E-002     0.0000000000000000     
  -3.7999999999999999E-002     0.0000000000000000     
  -3.7949999999999998E-002     0.0000000000000000     
  -3.7900000000000003E-002     0.0000000000000000     
  -3.7850000000000002E-002     0.0000000000000000     
  -3.7800000000000000E-002     0.0000000000000000     
  -3.7749999999999999E-002     0.0000000000000000     
  -3.7699999999999997E-002     0.0000000000000000     
  -3.7650000000000003E-002     0.0000000000000000     
  -3.7600000000000001E-002     0.0000000000000000     
  -3.7550000000000000E-002     0.0000000000000000     
  -3.7499999999999999E-002     0.0000000000000000     
  -3.7449999999999997E-002     0.0000000000000000     
  -3.7400000000000003E-002     0.0000000000000000     
  -3.7350000000000001E-002     0.0000000000000000     
  -3.7300000000000000E-002     0.0000000000000000     
  -3.7249999999999998E-002     0.0000000000000000     
  -3.7200000000000004E-002     0.0000000000000000     
  -3.7150000000000002E-002     0.0000000000000000     
  -3.7100000000000001E-002     0.0000000000000000     
  -3.7050000000000000E-002     0.0000000000000000     
  -3.6999999999999998E-002     0.0000000000000000     
  -3.6950000000000004E-002     0.0000000000000000     
  -3.6900000000000002E-002     0.0000000000000000     
  -3.6850000000000001E-002     0.0000000000000000     
  -3.6799999999999999E-002     0.0000000000000000     
  -3.6749999999999998E-002     0.0000000000000000     
  -3.6700000000000003E-002     0.0000000000000000     
  -3.6650000000000002E-002     0.0000000000000000     
  -3.6600000000000001E-002     0.0000000000000000     
  -3.6549999999999999E-002     0.0000000000000000     
  -3.6499999999999998E-002     0.0000000000000000     
  -3.6450000000000003E-002     0.0000000000000000     
  -3.6400000000000002E-002     0.0000000000000000     
  -3.6350000000000000E-002     0.0000000000000000     
  -3.6299999999999999E-002     0.0000000000000000     
  -3.6249999999999998E-002     0.0000000000000000     
  -3.6200000000000003E-002     0.0000000000000000     
  -3.6150000000000002E-002     0.0000000000000000     
  -3.6100000000000000E-002     0.0000000000000000     
  -3.6049999999999999E-002     0.0000000000000000     
  -3.6000000000000004E-002     0.0000000000000000     
  -3.5950000000000003E-002     0.0000000000000000     
  -3.5900000000000001E-002     0.0000000000000000     
  -3.5850000000000000E-002     0.0000000000000000     
  -3.5799999999999998E-002     0.0000000000000000     
  -3.5750000000000004E-002     0.0000000000000000     
  -3.5700000000000003E-002     0.0000000000000000     
  -3.5650000000000001E-002     0.0000000000000000     
  -3.5600000000000000E-002     0.0000000000000000     
  -3.5549999999999998E-002     0.0000000000000000     
  -3.5500000000000004E-002     0.0000000000000000     
  -3.5450000000000002E-002     0.0000000000000000     
  -3.5400000000000001E-002     0.0000000000000000     
  -3.5349999999999999E-002     0.0000000000000000     
  -3.5299999999999998E-002     0.0000000000000000     
  -3.5250000000000004E-002     0.0000000000000000     
  -3.5200000000000002E-002     0.0000000000000000     
  -3.5150000000000001E-002     0.0000000000000000     
  -3.5099999999999999E-002     0.0000000000000000     
  -3.5049999999999998E-002     0.0000000000000000     
  -3.5000000000000003E-002     0.0000000000000000     
  -3.4950000000000002E-002     0.0000000000000000     
  -3.4900000000000000E-002     0.0000000000000000     
  -3.4849999999999999E-002     0.0000000000000000     
  -3.4799999999999998E-002     0.0000000000000000     
  -3.4750000000000003E-002     0.0000000000000000     
  -3.4700000000000002E-002     0.0000000000000000     
  -3.4650000000000000E-002     0.0000000000000000     
  -3.4599999999999999E-002     0.0000000000000000     
  -3.4549999999999997E-002     0.0000000000000000     
  -3.4500000000000003E-002     0.0000000000000000     
  -3.4450000000000001E-002     0.0000000000000000     
  -3.4400000000000000E-002     0.0000000000000000     
  -3.4349999999999999E-002     0.0000000000000000     
  -3.4299999999999997E-002     0.0000000000000000     
  -3.4250000000000003E-002     0.0000000000000000     
  -3.4200000000000001E-002     0.0000000000000000     
  -3.4150000000000000E-002     0.0000000000000000     
  -3.4099999999999998E-002     0.0000000000000000     
  -3.4049999999999997E-002     0.0000000000000000     
  -3.4000000000000002E-002     0.0000000000000000     
  -3.3950000000000001E-002     0.0000000000000000     
  -3.3900000000000000E-002     0.0000000000000000     
  -3.3849999999999998E-002     0.0000000000000000     
  -3.3799999999999997E-002     0.0000000000000000     
  -3.3750000000000002E-002     0.0000000000000000     
  -3.3700000000000001E-002     0.0000000000000000     
  -3.3649999999999999E-002     0.0000000000000000     
  -3.3599999999999998E-002     0.0000000000000000     
  -3.3550000000000003E-002     0.0000000000000000     
  -3.3500000000000002E-002     0.0000000000000000     
  -3.3450000000000001E-002     0.0000000000000000     
  -3.3399999999999999E-002     0.0000000000000000     
  -3.3349999999999998E-002     0.0000000000000000     
  -3.3300000000000003E-002     0.0000000000000000     
  -3.3250000000000002E-002     0.0000000000000000     
  -3.3200000000000000E-002     0.0000000000000000     
  -3.3149999999999999E-002     0.0000000000000000     
  -3.3099999999999997E-002     0.0000000000000000     
  -3.3050000000000003E-002     0.0000000000000000     
  -3.3000000000000002E-002     0.0000000000000000     
  -3.2950000000000000E-002     0.0000000000000000     
  -3.2899999999999999E-002     0.0000000000000000     
  -3.2850000000000004E-002     0.0000000000000000     
  -3.2800000000000003E-002     0.0000000000000000     
  -3.2750000000000001E-002     0.0000000000000000     
  -3.2700000000000000E-002     0.0000000000000000     
  -3.2649999999999998E-002     0.0000000000000000     
  -3.2600000000000004E-002     0.0000000000000000     
  -3.2550000000000003E-002     0.0000000000000000     
  -3.2500000000000001E-002     0.0000000000000000     
  -3.2450000000000000E-002     0.0000000000000000     
  -3.2399999999999998E-002     0.0000000000000000     
  -3.2350000000000004E-002     0.0000000000000000     
  -3.2300000000000002E-002     0.0000000000000000     
  -3.2250000000000001E-002     0.0000000000000000     
  -3.2199999999999999E-002     0.0000000000000000     
  -3.2149999999999998E-002     0.0000000000000000     
  -3.2100000000000004E-002     0.0000000000000000     
  -3.2050000000000002E-002     0.0000000000000000     
  -3.2000000000000001E-002     0.0000000000000000     
  -3.1949999999999999E-002     0.0000000000000000     
  -3.1899999999999998E-002     0.0000000000000000     
  -3.1850000000000003E-002     0.0000000000000000     
  -3.1800000000000002E-002     0.0000000000000000     
  -3.1750000000000000E-002     0.0000000000000000     
  -3.1699999999999999E-002     0.0000000000000000     
  -3.1649999999999998E-002     0.0000000000000000     
  -3.1600000000000003E-002     0.0000000000000000     
  -3.1550000000000002E-002     0.0000000000000000     
  -3.1500000000000000E-002     0.0000000000000000     
  -3.1449999999999999E-002     0.0000000000000000     
  -3.1399999999999997E-002     0.0000000000000000     
  -3.1350000000000003E-002     0.0000000000000000     
  -3.1300000000000001E-002     0.0000000000000000     
  -3.1250000000000000E-002     0.0000000000000000     
  -3.1199999999999999E-002     0.0000000000000000     
  -3.1150000000000001E-002     0.0000000000000000     
  -3.1100000000000003E-002     0.0000000000000000     
  -3.1050000000000001E-002     0.0000000000000000     
  -3.1000000000000000E-002     0.0000000000000000     
  -3.0949999999999998E-002     0.0000000000000000     
  -3.0900000000000000E-002     0.0000000000000000     
  -3.0850000000000002E-002     0.0000000000000000     
  -3.0800000000000001E-002     0.0000000000000000     
  -3.0750000000000000E-002     0.0000000000000000     
  -3.0699999999999998E-002     0.0000000000000000     
  -3.0650000000000000E-002     0.0000000000000000     
  -3.0600000000000002E-002     0.0000000000000000     
  -3.0550000000000001E-002     0.0000000000000000     
  -3.0499999999999999E-002     0.0000000000000000     
  -3.0449999999999998E-002     0.0000000000000000     
  -3.0400000000000000E-002     0.0000000000000000     
  -3.0350000000000002E-002     0.0000000000000000     
  -3.0300000000000001E-002     0.0000000000000000     
  -3.0249999999999999E-002     0.0000000000000000     
  -3.0200000000000001E-002     0.0000000000000000     
  -3.0150000000000000E-002     0.0000000000000000     
  -3.0100000000000002E-002     0.0000000000000000     
  -3.0050000000000000E-002     0.0000000000000000     
  -2.9999999999999999E-002     0.0000000000000000     
  -2.9950000000000001E-002     0.0000000000000000     
  -2.9899999999999999E-002     0.0000000000000000     
  -2.9850000000000002E-002     0.0000000000000000     
  -2.9800000000000000E-002     0.0000000000000000     
  -2.9749999999999999E-002     0.0000000000000000     
  -2.9700000000000001E-002     0.0000000000000000     
  -2.9650000000000003E-002     0.0000000000000000     
  -2.9600000000000001E-002     0.0000000000000000     
  -2.9550000000000000E-002     0.0000000000000000     
  -2.9499999999999998E-002     0.0000000000000000     
  -2.9450000000000000E-002     0.0000000000000000     
  -2.9400000000000003E-002     0.0000000000000000     
  -2.9350000000000001E-002     0.0000000000000000     
  -2.9300000000000000E-002     0.0000000000000000     
  -2.9249999999999998E-002     0.0000000000000000     
  -2.9200000000000000E-002     0.0000000000000000     
  -2.9150000000000002E-002     0.0000000000000000     
  -2.9100000000000001E-002     0.0000000000000000     
  -2.9049999999999999E-002     0.0000000000000000     
  -2.8999999999999998E-002     0.0000000000000000     
  -2.8950000000000000E-002     0.0000000000000000     
  -2.8900000000000002E-002     0.0000000000000000     
  -2.8850000000000001E-002     0.0000000000000000     
  -2.8799999999999999E-002     0.0000000000000000     
  -2.8749999999999998E-002     0.0000000000000000     
  -2.8700000000000000E-002     0.0000000000000000     
  -2.8650000000000002E-002     0.0000000000000000     
  -2.8600000000000000E-002     0.0000000000000000     
  -2.8549999999999999E-002     0.0000000000000000     
  -2.8500000000000001E-002     0.0000000000000000     
  -2.8450000000000000E-002     0.0000000000000000     
  -2.8400000000000002E-002     0.0000000000000000     
  -2.8350000000000000E-002     0.0000000000000000     
  -2.8299999999999999E-002     0.0000000000000000     
  -2.8250000000000001E-002     0.0000000000000000     
  -2.8200000000000003E-002     0.0000000000000000     
  -2.8150000000000001E-002     0.0000000000000000     
  -2.8100000000000000E-002     0.0000000000000000     
  -2.8049999999999999E-002     0.0000000000000000     
  -2.8000000000000001E-002     0.0000000000000000     
  -2.7950000000000003E-002     0.0000000000000000     
  -2.7900000000000001E-002     0.0000000000000000     
  -2.7850000000000000E-002     0.0000000000000000     
  -2.7799999999999998E-002     0.0000000000000000     
  -2.7750000000000000E-002     0.0000000000000000     
  -2.7700000000000002E-002     0.0000000000000000     
  -2.7650000000000001E-002     0.0000000000000000     
  -2.7600000000000000E-002     0.0000000000000000     
  -2.7549999999999998E-002     0.0000000000000000     
  -2.7500000000000000E-002     0.0000000000000000     
  -2.7450000000000002E-002     0.0000000000000000     
  -2.7400000000000001E-002     0.0000000000000000     
  -2.7349999999999999E-002     0.0000000000000000     
  -2.7299999999999998E-002     0.0000000000000000     
  -2.7250000000000000E-002     0.0000000000000000     
  -2.7200000000000002E-002     0.0000000000000000     
  -2.7150000000000001E-002     0.0000000000000000     
  -2.7099999999999999E-002     0.0000000000000000     
  -2.7049999999999998E-002     0.0000000000000000     
  -2.7000000000000000E-002     0.0000000000000000     
  -2.6950000000000002E-002     0.0000000000000000     
  -2.6900000000000000E-002     0.0000000000000000     
  -2.6849999999999999E-002     0.0000000000000000     
  -2.6800000000000001E-002     0.0000000000000000     
  -2.6749999999999999E-002     0.0000000000000000     
  -2.6700000000000002E-002     0.0000000000000000     
  -2.6650000000000000E-002     0.0000000000000000     
  -2.6599999999999999E-002     0.0000000000000000     
  -2.6550000000000001E-002     0.0000000000000000     
  -2.6500000000000003E-002     0.0000000000000000     
  -2.6450000000000001E-002     0.0000000000000000     
  -2.6400000000000000E-002     0.0000000000000000     
  -2.6349999999999998E-002     0.0000000000000000     
  -2.6300000000000000E-002     0.0000000000000000     
  -2.6250000000000002E-002     0.0000000000000000     
  -2.6200000000000001E-002     0.0000000000000000     
  -2.6150000000000000E-002     0.0000000000000000     
  -2.6099999999999998E-002     0.0000000000000000     
  -2.6050000000000000E-002     0.0000000000000000     
  -2.6000000000000002E-002     0.0000000000000000     
  -2.5950000000000001E-002     0.0000000000000000     
  -2.5899999999999999E-002     0.0000000000000000     
  -2.5849999999999998E-002     0.0000000000000000     
  -2.5800000000000000E-002     0.0000000000000000     
  -2.5750000000000002E-002     0.0000000000000000     
  -2.5700000000000001E-002     0.0000000000000000     
  -2.5649999999999999E-002     0.0000000000000000     
  -2.5599999999999998E-002     0.0000000000000000     
  -2.5550000000000000E-002     0.0000000000000000     
  -2.5500000000000002E-002     0.0000000000000000     
  -2.5450000000000000E-002     0.0000000000000000     
  -2.5399999999999999E-002     0.0000000000000000     
  -2.5349999999999998E-002     0.0000000000000000     
  -2.5300000000000000E-002     0.0000000000000000     
  -2.5250000000000002E-002     0.0000000000000000     
  -2.5200000000000000E-002     0.0000000000000000     
  -2.5149999999999999E-002     0.0000000000000000     
  -2.5100000000000001E-002     0.0000000000000000     
  -2.5049999999999999E-002     0.0000000000000000     
  -2.5000000000000001E-002     0.0000000000000000     
  -2.4950000000000000E-002     0.0000000000000000     
  -2.4899999999999999E-002     0.0000000000000000     
  -2.4850000000000001E-002     0.0000000000000000     
  -2.4800000000000003E-002     0.0000000000000000     
  -2.4750000000000001E-002     0.0000000000000000     
  -2.4700000000000000E-002     0.0000000000000000     
  -2.4649999999999998E-002     0.0000000000000000     
  -2.4600000000000000E-002     0.0000000000000000     
  -2.4550000000000002E-002     0.0000000000000000     
  -2.4500000000000001E-002     0.0000000000000000     
  -2.4450000000000000E-002     0.0000000000000000     
  -2.4399999999999998E-002     0.0000000000000000     
  -2.4350000000000000E-002     0.0000000000000000     
  -2.4299999999999999E-002     0.0000000000000000     
  -2.4250000000000001E-002     0.0000000000000000     
  -2.4199999999999999E-002     0.0000000000000000     
  -2.4150000000000001E-002     0.0000000000000000     
  -2.4100000000000000E-002     0.0000000000000000     
  -2.4049999999999998E-002     0.0000000000000000     
  -2.4000000000000000E-002     0.0000000000000000     
  -2.3949999999999999E-002     0.0000000000000000     
  -2.3900000000000001E-002     0.0000000000000000     
  -2.3850000000000000E-002     1.7937624523371501E-039
  -2.3800000000000002E-002     3.5597850785416353E-039
  -2.3750000000000000E-002     3.5597850785416353E-039
  -2.3699999999999999E-002    -2.1803991891713359E-039
  -2.3650000000000001E-002    -9.2655178198323000E-039
  -2.3599999999999999E-002    -1.7217380332783427E-038
  -2.3550000000000001E-002    -1.7566258651994242E-038
  -2.3500000000000000E-002    -6.4509729811634364E-039
  -2.3449999999999999E-002     2.2982233292655176E-038
  -2.3400000000000001E-002     5.6056791481952524E-038
  -2.3349999999999999E-002     7.7315634480603540E-038
  -2.3300000000000001E-002     6.2750086857856115E-038
  -2.3250000000000000E-002     3.6278604346615587E-039
  -2.3199999999999998E-002    -7.5710391853351320E-038
  -2.3150000000000000E-002    -1.5517561411849431E-037
  -2.3099999999999999E-002    -1.6779698685504770E-037
  -2.3050000000000001E-002    -9.7545056913394740E-038
  -2.3000000000000000E-002     3.5842686577688379E-038
  -2.2950000000000002E-002     1.6359498978159608E-037
  -2.2900000000000000E-002     2.3749772154264545E-037
  -2.2849999999999999E-002     2.2115602495559746E-037
  -2.2800000000000001E-002     1.0451782411697015E-037
  -2.2749999999999999E-002    -5.7006489728138351E-038
  -2.2700000000000001E-002    -1.9659165070431276E-037
  -2.2650000000000000E-002    -2.6204389871469663E-037
  -2.2599999999999999E-002    -2.1892307839149891E-037
  -2.2550000000000001E-002    -9.4727655771833778E-038
  -2.2499999999999999E-002     4.9121481666173113E-038
  -2.2450000000000001E-002     1.3698481711970746E-037
  -2.2400000000000000E-002     1.0787508052208233E-037
  -2.2349999999999998E-002    -5.1411437570357704E-038
  -2.2300000000000000E-002    -2.9077807741043161E-037
  -2.2249999999999999E-002    -4.8147459240067537E-037
  -2.2200000000000001E-002    -4.5519209923108515E-037
  -2.2150000000000000E-002    -5.9854543542788188E-038
  -2.2100000000000002E-002     7.3749071655393528E-037
  -2.2050000000000000E-002     1.7742447404822289E-036
  -2.1999999999999999E-002     2.6513943055589691E-036
  -2.1950000000000001E-002     2.8026297330953016E-036
  -2.1899999999999999E-002     1.6866104189528505E-036
  -2.1850000000000001E-002    -9.2931608027342995E-037
  -2.1800000000000000E-002    -4.6832018531586063E-036
  -2.1749999999999999E-002    -8.4817060883534818E-036
  -2.1700000000000001E-002    -1.0644097423031130E-035
  -2.1649999999999999E-002    -9.3906211666282024E-036
  -2.1600000000000001E-002    -3.6010746841719626E-036
  -2.1550000000000000E-002     6.3921222688427251E-036
  -2.1499999999999998E-002     1.8319078563274285E-035
  -2.1450000000000000E-002     2.8137206156442238E-035
  -2.1399999999999999E-002     3.1025304716257571E-035
  -2.1350000000000001E-002     2.3086949392542375E-035
  -2.1299999999999999E-002     3.2953570300441253E-036
  -2.1250000000000002E-002    -2.5056061133735601E-035
  -2.1200000000000000E-002    -5.4169915704132105E-035
  -2.1149999999999999E-002    -7.3324271060652516E-035
  -2.1100000000000001E-002    -7.2136447842245127E-035
  -2.1049999999999999E-002    -4.4710925467144043E-035
  -2.1000000000000001E-002     6.7351993771449820E-036
  -2.0950000000000000E-002     7.0387576321934173E-035
  -2.0899999999999998E-002     1.2669743768066158E-034
  -2.0850000000000000E-002     1.5377549172840521E-034
  -2.0799999999999999E-002     1.3510710969945156E-034
  -2.0750000000000001E-002     6.7093519206271634E-035
  -2.0700000000000000E-002    -3.6662258101858169E-035
  -2.0649999999999998E-002    -1.4685995786816649E-034
  -2.0600000000000000E-002    -2.2656154848892892E-034
  -2.0549999999999999E-002    -2.4400526586179532E-034
  -2.0500000000000001E-002    -1.8590996053449480E-034
  -2.0449999999999999E-002    -6.5749372034487390E-035
  -2.0400000000000001E-002     7.7681697587798288E-035
  -2.0350000000000000E-002     1.9294243464651532E-034
  -2.0299999999999999E-002     2.3672085326154642E-034
  -2.0250000000000001E-002     1.9504480869165277E-034
  -2.0199999999999999E-002     9.5012923485612522E-035
  -2.0150000000000001E-002    -1.1531387126331512E-036
  -2.0100000000000000E-002    -2.1848198807611645E-035
  -2.0049999999999998E-002     7.5233919101438587E-035
  -2.0000000000000000E-002     2.6687986345939014E-034
  -1.9949999999999999E-002     4.5001772783522570E-034
  -1.9900000000000001E-002     4.6478573689986503E-034
  -1.9850000000000000E-002     1.5790210328791492E-034
  -1.9799999999999998E-002    -5.2922661674425847E-034
  -1.9750000000000000E-002    -1.4809726040355621E-033
  -1.9699999999999999E-002    -2.3785027202394529E-033
  -1.9650000000000001E-002    -2.7557944129564821E-033
  -1.9599999999999999E-002    -2.1491839246646556E-033
  -1.9550000000000001E-002    -3.0991556991730419E-034
  -1.9500000000000000E-002     2.5902815553431065E-033
  -1.9449999999999999E-002     5.8532551444222302E-033
  -1.9400000000000001E-002     8.3312271378984495E-033
  -1.9349999999999999E-002     8.7210431047865924E-033
  -1.9300000000000001E-002     6.0312393401954358E-033
  -1.9250000000000000E-002     9.0501459712921829E-035
  -1.9199999999999998E-002    -8.0943056291469256E-033
  -1.9150000000000000E-002    -1.6323116721755352E-032
  -1.9099999999999999E-002    -2.1645846151045934E-032
  -1.9050000000000001E-002    -2.1231855603016024E-032
  -1.9000000000000000E-002    -1.3456220539728018E-032
  -1.8949999999999998E-002     1.1519661434931852E-033
  -1.8900000000000000E-002     1.9499289527744405E-032
  -1.8849999999999999E-002     3.6356356596258312E-032
  -1.8800000000000001E-002     4.5681438240691141E-032
  -1.8749999999999999E-002     4.2567634723332015E-032
  -1.8700000000000001E-002     2.5236684476248717E-032
  -1.8650000000000000E-002    -3.6523965351738537E-033
  -1.8599999999999998E-002    -3.7018726857165117E-032
  -1.8550000000000001E-002    -6.4974725586821846E-032
  -1.8499999999999999E-002    -7.7764729505846196E-032
  -1.8450000000000001E-002    -6.9185346947128078E-032
  -1.8400000000000000E-002    -3.9290561582731495E-032
  -1.8349999999999998E-002     4.7727144039629528E-033
  -1.8300000000000000E-002     5.0439814403609806E-032
  -1.8249999999999999E-002     8.3679607725769179E-032
  -1.8200000000000001E-002     9.4028229842652702E-032
  -1.8149999999999999E-002     7.8843664225115523E-032
  -1.8100000000000002E-002     4.4893940365902027E-032
  -1.8050000000000000E-002     6.1537295648230772E-033
  -1.7999999999999999E-002    -2.1901689532026432E-032
  -1.7950000000000001E-002    -2.9606262440492821E-032
  -1.7899999999999999E-002    -1.8963069680522793E-032
  -1.7850000000000001E-002    -4.9171027392960904E-033
  -1.7800000000000000E-002    -1.0202533905161095E-032
  -1.7749999999999998E-002    -5.4407048583901691E-032
  -1.7700000000000000E-002    -1.4078690349669372E-031
  -1.7649999999999999E-002    -2.4651347680481860E-031
  -1.7600000000000001E-002    -3.2227495810598152E-031
  -1.7550000000000000E-002    -3.0483665248738973E-031
  -1.7499999999999998E-002    -1.4152599235899926E-031
  -1.7450000000000000E-002     1.8003380407756677E-031
  -1.7399999999999999E-002     6.0817876811000980E-031
  -1.7350000000000001E-002     1.0218840758461075E-030
  -1.7299999999999999E-002     1.2526735099410353E-030
  -1.7250000000000001E-002     1.1341403177822133E-030
  -1.7200000000000000E-002     5.6833417714056662E-031
  -1.7149999999999999E-002    -4.1188024993163210E-031
  -1.7100000000000001E-002    -1.6101789397595721E-030
  -1.7049999999999999E-002    -2.6855787537588767E-030
  -1.7000000000000001E-002    -3.2308752125286938E-030
  -1.6950000000000000E-002    -2.8984930303302632E-030
  -1.6899999999999998E-002    -1.5403522913501359E-030
  -1.6850000000000000E-002     6.8570593750251944E-031
  -1.6799999999999999E-002     3.2901190183536299E-030
  -1.6750000000000001E-002     5.5356493617606170E-030
  -1.6700000000000000E-002     6.6274560392039141E-030
  -1.6649999999999998E-002     5.9660619296029491E-030
  -1.6600000000000000E-002     3.3879127022066563E-030
  -1.6549999999999999E-002    -6.9331826286460803E-031
  -1.6500000000000001E-002    -5.3137163069629721E-030
  -1.6449999999999999E-002    -9.1768063631657783E-030
  -1.6400000000000001E-002    -1.1020381581255448E-029
  -1.6350000000000000E-002    -1.0030091938871699E-029
  -1.6299999999999999E-002    -6.1629579231874315E-030
  -1.6250000000000001E-002    -2.5378934999205373E-031
  -1.6199999999999999E-002     6.1640167948017389E-030
  -1.6150000000000001E-002     1.1297795860776178E-029
  -1.6100000000000000E-002     1.3669640807387856E-029
  -1.6049999999999998E-002     1.2630945684353392E-029
  -1.6000000000000000E-002     8.6181711779722261E-030
  -1.5949999999999999E-002     3.0220507833346991E-030
  -1.5900000000000001E-002    -2.3234062898981716E-030
  -1.5850000000000000E-002    -5.8714417433877214E-030
  -1.5799999999999998E-002    -7.0352733813316457E-030
  -1.5750000000000000E-002    -6.5020325254310307E-030
  -1.5699999999999999E-002    -5.9848924775277269E-030
  -1.5650000000000001E-002    -7.4141834323769248E-030
  -1.5599999999999999E-002    -1.1817207303256358E-029
  -1.5550000000000001E-002    -1.8335551904180845E-029
  -1.5500000000000000E-002    -2.3884592436281881E-029
  -1.5449999999999998E-002    -2.3812068469272628E-029
  -1.5400000000000000E-002    -1.3575327078059673E-029
  -1.5349999999999999E-002     8.9805143879801721E-030
  -1.5300000000000001E-002     4.1543064573566915E-029
  -1.5250000000000000E-002     7.6407711804062504E-029
  -1.5199999999999998E-002     1.0147199043218612E-028
  -1.5150000000000000E-002     1.0336344987177486E-028
  -1.5099999999999999E-002     7.2127101295093130E-029
  -1.5050000000000001E-002     6.1272934090733122E-030
  -1.4999999999999999E-002    -8.4638350139455144E-029
  -1.4949999999999998E-002    -1.7849936034994906E-028
  -1.4900000000000000E-002    -2.4625346076304693E-028
  -1.4849999999999999E-002    -2.5908354576381436E-028
  -1.4800000000000001E-002    -1.9837129873059642E-028
  -1.4749999999999999E-002    -6.4400217421137128E-029
  -1.4700000000000001E-002     1.1934317084022251E-028
  -1.4650000000000000E-002     3.0872328389385727E-028
  -1.4599999999999998E-002     4.4891596416964339E-028
  -1.4550000000000000E-002     4.8984687880500090E-028
  -1.4499999999999999E-002     4.0289000468436854E-028
  -1.4450000000000001E-002     1.9339442221562539E-028
  -1.4400000000000000E-002    -9.5903315845693897E-029
  -1.4349999999999998E-002    -3.9319099807707097E-028
  -1.4300000000000000E-002    -6.1655737672510366E-028
  -1.4249999999999999E-002    -6.9865752365899841E-028
  -1.4200000000000001E-002    -6.0935373349927958E-028
  -1.4149999999999999E-002    -3.6818811383135085E-028
  -1.4099999999999998E-002    -4.1061606928895586E-029
  -1.4050000000000000E-002     2.7955008184789145E-028
  -1.3999999999999999E-002     5.0551478036034382E-028
  -1.3950000000000001E-002     5.8481126968739377E-028
  -1.3899999999999999E-002     5.2203272538409447E-028
  -1.3850000000000001E-002     3.7803590392786646E-028
  -1.3800000000000000E-002     2.4583644739325654E-028
  -1.3749999999999998E-002     2.0891799201701597E-028
  -1.3700000000000000E-002     2.9648641499481669E-028
  -1.3649999999999999E-002     4.5438293801966670E-028
  -1.3600000000000001E-002     5.4802804534351559E-028
  -1.3550000000000000E-002     4.0426440122889960E-028
  -1.3499999999999998E-002    -1.1537346451208021E-028
  -1.3450000000000000E-002    -1.0321641349485493E-027
  -1.3399999999999999E-002    -2.1902040353149036E-027
  -1.3350000000000001E-002    -3.2500568601541817E-027
  -1.3299999999999999E-002    -3.7545426302782200E-027
  -1.3249999999999998E-002    -3.2623961960406264E-027
  -1.3200000000000000E-002    -1.5188482645542023E-027
  -1.3149999999999998E-002     1.3892761994900537E-027
  -1.3100000000000001E-002     4.9538415477227394E-027
  -1.3049999999999999E-002     8.2887500019141302E-027
  -1.3000000000000001E-002     1.0312021624462935E-026
  -1.2950000000000000E-002     1.0038582276196809E-026
  -1.2899999999999998E-002     6.9118814346417575E-027
  -1.2850000000000000E-002     1.0754836472990473E-027
  -1.2799999999999999E-002    -6.5141947896448332E-027