  -4.0000000000000001E-002     0.0000000000000000     
  -3.9949999999999999E-002     0.0000000000000000     
  -3.9899999999999998E-002     0.0000000000000000     
  -3.9850000000000003E-002     0.0000000000000000     
  -3.9800000000000002E-002     0.0000000000000000     
  -3.9750000000000001E-002     0.0000000000000000     
  -3.9699999999999999E-002     0.0000000000000000     
  -3.9649999999999998E-002     0.0000000000000000     
  -3.9600000000000003E-002     0.0000000000000000     
  -3.9550000000000002E-002     0.0000000000000000     
  -3.9500000000000000E-002     0.0000000000000000     
  -3.9449999999999999E-002    -1.3315789592626076E-031
  -3.9399999999999998E-002    -2.9660870915315556E-030
  -3.9350000000000003E-002    -3.1577806165009396E-029
  -3.9300000000000002E-002    -2.1583528552645888E-028
  -3.9250000000000000E-002    -1.0641984945289192E-027
  -3.9199999999999999E-002    -4.0013220672946320E-027
  -3.9150000000000004E-002    -1.1709929084670452E-026
  -3.9100000000000003E-002    -2.6220248130885410E-026
  -3.9050000000000001E-002    -4.0299079521243918E-026
  -3.9000000000000000E-002    -1.7367537037442508E-026
  -3.8949999999999999E-002     1.3677689457077801E-025
  -3.8900000000000004E-002     5.8499074971170125E-025
  -3.8850000000000003E-002     1.4967461259896051E-024
  -3.8800000000000001E-002     2.8479239463540032E-024
  -3.8750000000000000E-002     4.0751134414088072E-024
  -3.8699999999999998E-002     3.7200183545457892E-024
  -3.8650000000000004E-002    -6.5097551316697854E-025
  -3.8600000000000002E-002    -1.2002962012766429E-023
  -3.8550000000000001E-002    -3.2994208335064687E-023
  -3.8500000000000000E-002    -6.5384041931646969E-023
  -3.8449999999999998E-002    -1.1011494805813884E-022
  -3.8400000000000004E-002    -1.6638442167110258E-022
  -3.8350000000000002E-002    -2.2392014956557812E-022
  -3.8300000000000001E-002    -2.3971630033172366E-022
  -3.8249999999999999E-002    -9.6029842906304913E-023
  -3.8199999999999998E-002     4.4116151240674203E-022
  -3.8150000000000003E-002     1.7046819175654092E-021
  -3.8100000000000002E-002     3.9554108798570039E-021
  -3.8050000000000000E-002     6.9786199055222896E-021
  -3.7999999999999999E-002     9.4887988329231865E-021
  -3.7949999999999998E-002     8.6312217562395359E-021
  -3.7900000000000003E-002     1.6065600407820071E-022
  -3.7850000000000002E-002    -2.0000370950351246E-020
  -3.7800000000000000E-002    -5.2465978915661556E-020
  -3.7749999999999999E-002    -9.0005186409771092E-020
  -3.7699999999999997E-002    -1.1423024339824341E-019
  -3.7650000000000003E-002    -9.6785824997764076E-020
  -3.7600000000000001E-002    -8.3231785652137947E-021
  -3.7550000000000000E-002     1.6412108628240522E-019
  -3.7499999999999999E-002     3.9598798038956784E-019
  -3.7449999999999997E-002     6.1103976605899351E-019
  -3.7400000000000003E-002     6.8815900363944283E-019
  -3.7350000000000001E-002     4.9920401666363505E-019
  -3.7300000000000000E-002    -2.5116938634563480E-020
  -3.7249999999999998E-002    -8.2394271744276542E-019
  -3.7200000000000004E-002    -1.6690542275316816E-018
  -3.7150000000000002E-002    -2.2028663436511931E-018
  -3.7100000000000001E-002    -2.0689819916306571E-018
  -3.7050000000000000E-002    -1.1048332977334958E-018
  -3.6999999999999998E-002     4.8827923551849407E-019
  -3.6950000000000004E-002     2.1115578049393740E-018
  -3.6900000000000002E-002     2.9577290367905472E-018
  -3.6850000000000001E-002     2.4134321996117730E-018
  -3.6799999999999999E-002     5.2883833079501839E-019
  -3.6749999999999998E-002    -1.7040681624755919E-018
  -3.6700000000000003E-002    -2.5295427150152289E-018
  -3.6650000000000002E-002    -1.7468069303649817E-019
  -3.6600000000000001E-002     6.0141944873984866E-018
  -3.6549999999999999E-002     1.4538408986585032E-017
  -3.6499999999999998E-002     2.1470035281630369E-017
  -3.6450000000000003E-002     2.1430825266234131E-017
  -3.6400000000000002E-002     9.8234579883368478E-018
  -3.6350000000000000E-002    -1.4386796706471413E-017
  -3.6299999999999999E-002    -4.6609791176403242E-017
  -3.6249999999999998E-002    -7.6626795868690878E-017
  -3.6200000000000003E-002    -9.1345323433659331E-017
  -3.6150000000000002E-002    -7.9786023621157505E-017
  -3.6100000000000000E-002    -3.8454680382969496E-017
  -3.6049999999999999E-002     2.5463471373134275E-017
  -3.6000000000000004E-002     9.5189906719573094E-017
  -3.5950000000000003E-002     1.5010689080811163E-016
  -3.5900000000000001E-002     1.7419576667419509E-016
  -3.5850000000000000E-002     1.6328174714882343E-016
  -3.5799999999999998E-002     1.2696928588135396E-016
  -3.5750000000000004E-002     8.3144403377902399E-017
  -3.5700000000000003E-002     4.6624663883816945E-017
  -3.5650000000000001E-002     1.7347704598356001E-017
  -3.5600000000000000E-002    -2.4697052139656942E-017
  -3.5549999999999998E-002    -1.1233062425888873E-016
  -3.5500000000000004E-002    -2.7170879360051111E-016
  -3.5450000000000002E-002    -4.9739627547344635E-016
  -3.5400000000000001E-002    -7.3428629746941174E-016
  -3.5349999999999999E-002    -8.7916228337219524E-016
  -3.5299999999999998E-002    -8.0870364759985918E-016
  -3.5250000000000004E-002    -4.2957508854062337E-016
  -3.5200000000000002E-002     2.6588650087932186E-016
  -3.5150000000000001E-002     1.1623516556606727E-015
  -3.5099999999999999E-002     2.0247386632707334E-015
  -3.5049999999999998E-002     2.5520149788706408E-015
  -3.5000000000000003E-002     2.4722704267766743E-015
  -3.4950000000000002E-002     1.6505017194818911E-015
  -3.4900000000000000E-002     1.6953465024457308E-016
  -3.4849999999999999E-002    -1.6522783710887570E-015
  -3.4799999999999998E-002    -3.3246892330260911E-015
  -3.4750000000000003E-002    -4.3205689507607847E-015
  -3.4700000000000002E-002    -4.2443148096842163E-015
  -3.4650000000000000E-002    -2.9784604924293964E-015
  -3.4599999999999999E-002    -7.5467030416376409E-016
  -3.4549999999999997E-002     1.8833917342635665E-015
  -3.4500000000000003E-002     4.2226265310697699E-015
  -3.4450000000000001E-002     5.5883667851130796E-015
  -3.4400000000000000E-002     5.5512946941106006E-015
  -3.4349999999999999E-002     4.0629248216120760E-015
  -3.4299999999999997E-002     1.4703570816004515E-015
  -3.4250000000000003E-002    -1.5978278109865800E-015
  -3.4200000000000001E-002    -4.4351174513827200E-015
  -3.4150000000000000E-002    -6.4743107318983480E-015
  -3.4099999999999998E-002    -7.4332680717039898E-015
  -3.4049999999999997E-002    -7.3287755462318575E-015
  -3.4000000000000002E-002    -6.3517615815731222E-015
  -3.3950000000000001E-002    -4.6612570370912522E-015
  -3.3900000000000000E-002    -2.2030172875693718E-015
  -3.3849999999999998E-002     1.3331526731009502E-015
  -3.3799999999999997E-002     6.3476183199116278E-015
  -3.3750000000000002E-002     1.2975395328226457E-014
  -3.3700000000000001E-002     2.0662350614666057E-014
  -3.3649999999999999E-002     2.7868854413862915E-014
  -3.3599999999999998E-002     3.2102545312806194E-014
  -3.3550000000000003E-002     3.0400351290135741E-014
  -3.3500000000000002E-002     2.0225412056956715E-014
  -3.3450000000000001E-002     5.6483206241526862E-016
  -3.3399999999999999E-002    -2.7123333283139359E-014
  -3.3349999999999998E-002    -5.8498256965463374E-014
  -3.3300000000000003E-002    -8.6740957840926447E-014
  -3.3250000000000002E-002    -1.0383388620487446E-013
  -3.3200000000000000E-002    -1.0249488296932771E-013
  -3.3149999999999999E-002    -7.8300491361971841E-014
  -3.3099999999999997E-002    -3.1410780281047185E-014
  -3.3050000000000003E-002     3.2642650789425215E-014
  -3.3000000000000002E-002     1.0342684282800552E-013
  -3.2950000000000000E-002     1.6733371686981219E-013
  -3.2899999999999999E-002     2.1022631335396169E-013
  -3.2850000000000004E-002     2.2042335675893227E-013
  -3.2800000000000003E-002     1.9135227798984522E-013
  -3.2750000000000001E-002     1.2328663480734581E-013
  -3.2700000000000000E-002     2.3808476620323232E-014
  -3.2649999999999998E-002    -9.3075016010385481E-014
  -3.2600000000000004E-002    -2.0896291966741865E-013
  -3.2550000000000003E-002    -3.0385925980230821E-013
  -3.2500000000000001E-002    -3.5928890613524944E-013
  -3.2450000000000000E-002    -3.6130777189558039E-013
  -3.2399999999999998E-002    -3.0306115147808732E-013
  -3.2350000000000004E-002    -1.8661445002135513E-013
  -3.2300000000000002E-002    -2.3810877111695751E-014
  -3.2250000000000001E-002     1.6409702101923690E-013
  -3.2199999999999999E-002     3.4828864510332014E-013
  -3.2149999999999998E-002     4.9584669052984975E-013
  -3.2100000000000004E-002     5.7477861446081357E-013
  -3.2050000000000002E-002     5.6011662322164035E-013
  -3.2000000000000001E-002     4.4014851442383818E-013
  -3.1949999999999999E-002     2.2142067367982021E-013
  -3.1899999999999998E-002    -6.8996959296137306E-014
  -3.1850000000000003E-002    -3.8523885145282100E-013
  -3.1800000000000002E-002    -6.6889381403548165E-013
  -3.1750000000000000E-002    -8.5923130589693475E-013
  -3.1699999999999999E-002    -9.0568617059152978E-013
  -3.1649999999999998E-002    -7.7998019284639120E-013
  -3.1600000000000003E-002    -4.8494270665083716E-013
  -3.1550000000000002E-002    -5.7552636159412252E-014
  -3.1500000000000000E-002     4.3508217319708498E-013
  -3.1449999999999999E-002     9.0645947779105507E-013
  -3.1399999999999997E-002     1.2661413801087762E-012
  -3.1350000000000003E-002     1.4367784306051901E-012
  -3.1300000000000001E-002     1.3691583674105279E-012
  -3.1250000000000000E-002     1.0522560470530018E-012
  -3.1199999999999999E-002     5.1647472106355896E-013
  -3.1150000000000001E-002    -1.7017862271283268E-013
  -3.1100000000000003E-002    -9.1182183331595112E-013
  -3.1050000000000001E-002    -1.5982385770732521E-012
  -3.1000000000000000E-002    -2.1198791420179441E-012
  -3.0949999999999998E-002    -2.3823050736976326E-012
  -3.0900000000000000E-002    -2.3187257235796066E-012
  -3.0850000000000002E-002    -1.8999192410301680E-012
  -3.0800000000000001E-002    -1.1411672388300653E-012
  -3.0750000000000000E-002    -1.0572212593221164E-013
  -3.0699999999999998E-002     1.0960831851522523E-012
  -3.0650000000000000E-002     2.3133840763162050E-012
  -3.0600000000000002E-002     3.3682945755481031E-012
  -3.0550000000000001E-002     4.0769393069850501E-012
  -3.0499999999999999E-002     4.2770019297033723E-012
  -3.0449999999999998E-002     3.8586538478324606E-012
  -3.0400000000000000E-002     2.7935956499469672E-012
  -3.0350000000000002E-002     1.1556029570758408E-012
  -3.0300000000000001E-002    -8.7394317043604230E-013
  -3.0249999999999999E-002    -3.0201190940465361E-012
  -3.0200000000000001E-002    -4.9491049279593025E-012
  -3.0150000000000000E-002    -6.3198391832275380E-012
  -3.0100000000000002E-002    -6.8446728319904171E-012
  -3.0050000000000000E-002    -6.3478996364940699E-012
  -2.9999999999999999E-002    -4.8101999813865426E-012
  -2.9950000000000001E-002    -2.3887886026890959E-012
  -2.9899999999999999E-002     5.9282450910053130E-013
  -2.9850000000000002E-002     3.6859690646928733E-012
  -2.9800000000000000E-002     6.3835104736897907E-012
  -2.9749999999999999E-002     8.2018454528043350E-012
  -2.9700000000000001E-002     8.7648620999969395E-012
  -2.9650000000000003E-002     7.8757469296197868E-012
  -2.9600000000000001E-002     5.5640674359591635E-012
  -2.9550000000000000E-002     2.0990305847623514E-012
  -2.9499999999999998E-002    -2.0352680044771754E-012
  -2.9450000000000000E-002    -6.2012357054941347E-012
  -2.9400000000000003E-002    -9.6988033923550709E-012
  -2.9350000000000001E-002    -1.1874109334675254E-011
  -2.9300000000000000E-002    -1.2230238523314174E-011
  -2.9249999999999998E-002    -1.0522674745438998E-011
  -2.9200000000000000E-002    -6.8228812356851964E-012
  -2.9150000000000002E-002    -1.5367444729935675E-012
  -2.9100000000000001E-002     4.6294361573384624E-012
  -2.9049999999999999E-002     1.0754934269552319E-011
  -2.8999999999999998E-002     1.5833388419816963E-011
  -2.8950000000000000E-002     1.8927052633510577E-011
  -2.8900000000000002E-002     1.9323254801806300E-011
  -2.8850000000000001E-002     1.6667341118381529E-011
  -2.8799999999999999E-002     1.1048585657480459E-011
  -2.8749999999999998E-002     3.0222382756128763E-012
  -2.8700000000000000E-002    -6.4387202167170976E-012
  -2.8650000000000002E-002    -1.6056369775419022E-011
  -2.8600000000000000E-002    -2.4408036355949569E-011
  -2.8549999999999999E-002    -3.0108356779967593E-011
  -2.8500000000000001E-002    -3.1984540016516405E-011
  -2.8450000000000000E-002    -2.9218377717299404E-011
  -2.8400000000000002E-002    -2.1435759417487432E-011
  -2.8350000000000000E-002    -8.7346111246611180E-012
  -2.8299999999999999E-002     8.3473878850770511E-012
  -2.8250000000000001E-002     2.8915377037197487E-011
  -2.8200000000000003E-002     5.1834987691012913E-011
  -2.8150000000000001E-002     7.5868304694193256E-011
  -2.8100000000000000E-002     9.9812609566374277E-011
  -2.8049999999999999E-002     1.2262872661761293E-010
  -2.8000000000000001E-002     1.4354858968168571E-010
  -2.7950000000000003E-002     1.6215330467250766E-010
  -2.7900000000000001E-002     1.7841414456931659E-010
  -2.7850000000000000E-002     1.9269058570969833E-010
  -2.7799999999999998E-002     2.0568126368747386E-010
  -2.7750000000000000E-002     2.1832891050621583E-010
  -2.7700000000000002E-002     2.3168607310442013E-010
  -2.7650000000000001E-002     2.4675603227386489E-010
  -2.7600000000000000E-002     2.6433041866447127E-010
  -2.7549999999999998E-002     2.8484914427195918E-010
  -2.7500000000000000E-002     3.0830832331574243E-010
  -2.7450000000000002E-002     3.3423602774362848E-010
  -2.7400000000000001E-002     3.6174618855966401E-010
  -2.7349999999999999E-002     3.8966585513833252E-010
  -2.7299999999999998E-002     4.1671732731174416E-010
  -2.7250000000000000E-002     4.4172501767469896E-010
  -2.7200000000000002E-002     4.6381026796993297E-010
  -2.7150000000000001E-002     4.8253911977269581E-010
  -2.7099999999999999E-002     4.9799725454491295E-010
  -2.7049999999999998E-002     5.1077952978317853E-010
  -2.7000000000000000E-002     5.2189752519637977E-010
  -2.6950000000000002E-002     5.3262438903800557E-010
  -2.6900000000000000E-002     5.4430310258979375E-010
  -2.6849999999999999E-002     5.5815074784248964E-010
  -2.6800000000000001E-002     5.7508636741587793E-010
  -2.6749999999999999E-002     5.9560623100196608E-010
  -2.6700000000000002E-002     6.1972071918603433E-010
  -2.6650000000000000E-002     6.4695782064916330E-010
  -2.6599999999999999E-002     6.7643396439720505E-010
  -2.6550000000000001E-002     7.0698324972084947E-010
  -2.6500000000000003E-002     7.3733258387775891E-010
  -2.6450000000000001E-002     7.6630185530390804E-010
  -2.6400000000000000E-002     7.9300316313535291E-010
  -2.6349999999999998E-002     8.1700868292955420E-010
  -2.6300000000000000E-002     8.3845591580811174E-010
  -2.6250000000000002E-002     8.5806456384673879E-010
  -2.6200000000000001E-002     8.7705204210308807E-010
  -2.6150000000000000E-002     8.9695079141804968E-010
  -2.6099999999999998E-002     9.1935226098627254E-010
  -2.6050000000000000E-002     9.4561936059278651E-010
  -2.6000000000000002E-002     9.7662244957774647E-010
  -2.5950000000000001E-002     1.0125538185690175E-009
  -2.5899999999999999E-002     1.0528641292140151E-009
  -2.5849999999999998E-002     1.0963436825051076E-009
  -2.5800000000000000E-002     1.1413385792025110E-009
  -2.5750000000000002E-002     1.1860606941027640E-009
  -2.5700000000000001E-002     1.2289322892655719E-009
  -2.5649999999999999E-002     1.2688887718326214E-009
  -2.5599999999999998E-002     1.3055763137259646E-009
  -2.5550000000000000E-002     1.3394039211078734E-009
  -2.5500000000000002E-002     1.3714410718179693E-009
  -2.5450000000000000E-002     1.4031915629431069E-009
  -2.5399999999999999E-002     1.4362975253590093E-009
  -2.5349999999999998E-002     1.4722444374726251E-009
  -2.5300000000000000E-002     1.5121282004315617E-009
  -2.5250000000000002E-002     1.5565270183870439E-009
  -2.5200000000000000E-002     1.6054917395535995E-009
  -2.5149999999999999E-002     1.6586383377870106E-009
  -2.5100000000000001E-002     1.7153062303876254E-009
  -2.5049999999999999E-002     1.7747381342303470E-009
  -2.5000000000000001E-002     1.8362398268578772E-009
  -2.4950000000000000E-002     1.8992918349169940E-009
  -2.4899999999999999E-002     1.9636057224658998E-009
  -2.4850000000000001E-002     2.0291253122195485E-009
  -2.4800000000000003E-002     2.0959867175207592E-009
  -2.4750000000000001E-002     2.1644530612263679E-009
  -2.4700000000000000E-002     2.2348374262293191E-009
  -2.4649999999999998E-002     2.3074231414454971E-009
  -2.4600000000000000E-002     2.3823927275401502E-009
  -2.4550000000000002E-002     2.4597646142154872E-009
  -2.4500000000000001E-002     2.5393538383156056E-009
  -2.4450000000000000E-002     2.6207653824883437E-009
  -2.4399999999999998E-002     2.7034334770803525E-009
  -2.4350000000000000E-002     2.7867148588711643E-009
  -2.4299999999999999E-002     2.8700286591742952E-009
  -2.4250000000000001E-002     2.9530249356923832E-009
  -2.4199999999999999E-002     3.0357445446327347E-009
  -2.4150000000000001E-002     3.1187239457608484E-009
  -2.4100000000000000E-002     3.2030051944076376E-009
  -2.4049999999999998E-002     3.2900278057468313E-009
  -2.4000000000000000E-002     3.3814062661008393E-009
  -2.3949999999999999E-002     3.4786387104190908E-009
  -2.3900000000000001E-002     3.5828116029534840E-009
  -2.3850000000000000E-002     3.6943799130995103E-009
  -2.3800000000000002E-002     3.8130796298219138E-009
  -2.3750000000000000E-002     3.9380005922851069E-009
  -2.3699999999999999E-002     4.0678038715213916E-009
  -2.3650000000000001E-002     4.2010213086030035E-009
  -2.3599999999999999E-002     4.3363543866803411E-009
  -2.3550000000000001E-002     4.4729069337279270E-009
  -2.3500000000000000E-002     4.6102854867058340E-009
  -2.3449999999999999E-002     4.7485761989207731E-009
  -2.3400000000000001E-002     4.8882200509581253E-009
  -2.3349999999999999E-002     5.0298543108340255E-009
  -2.3300000000000001E-002     5.1741868567489746E-009
  -2.3250000000000000E-002     5.3219442186502874E-009
  -2.3199999999999998E-002     5.4739124344393986E-009
  -2.3150000000000000E-002     5.6310334173304000E-009
  -2.3099999999999999E-002     5.7945057641006770E-009
  -2.3050000000000001E-002     5.9658167295140174E-009
  -2.3000000000000000E-002     6.1466622902628387E-009
  -2.2950000000000002E-002     6.3387290971661514E-009
  -2.2900000000000000E-002     6.5433769513845164E-009
  -2.2849999999999999E-002     6.7612848653197943E-009
  -2.2800000000000001E-002     6.9921619605395335E-009
  -2.2749999999999999E-002     7.2346080237650767E-009
  -2.2700000000000001E-002     7.4861805643422485E-009
  -2.2650000000000000E-002     7.7436794754248695E-009
  -2.2599999999999999E-002     8.0035915672738156E-009
  -2.2550000000000001E-002     8.2626083752757040E-009
  -2.2499999999999999E-002     8.5180991149513829E-009
  -2.2450000000000001E-002     8.7684437488633193E-009
  -2.2400000000000000E-002     9.0131804242332692E-009
  -2.2349999999999998E-002     9.2529699458054893E-009
  -2.2300000000000000E-002     9.4894234692333157E-009
  -2.2249999999999999E-002     9.7248733510468810E-009
  -2.2200000000000001E-002     9.9621360050150543E-009
  -2.2150000000000000E-002     1.0204310285644169E-008
  -2.2100000000000002E-002     1.0454600740672504E-008
  -2.2050000000000000E-002     1.0716146192635279E-008
  -2.1999999999999999E-002     1.0991818122363384E-008
  -2.1950000000000001E-002     1.1283999512556875E-008
  -2.1899999999999999E-002     1.1594354809574270E-008
  -2.1850000000000001E-002     1.1923659393175967E-008
  -2.1800000000000000E-002     1.2271748950354322E-008
  -2.1749999999999999E-002     1.2637610069532457E-008
  -2.1700000000000001E-002     1.3019644917733331E-008
  -2.1649999999999999E-002     1.3416025623769201E-008
  -2.1600000000000001E-002     1.3825092182173648E-008
  -2.1550000000000000E-002     1.4245696178250000E-008
  -2.1499999999999998E-002     1.4677398851858925E-008
  -2.1450000000000000E-002     1.5120505736376799E-008
  -2.1399999999999999E-002     1.5575924550148557E-008
  -2.1350000000000001E-002     1.6044934270098565E-008
  -2.1299999999999999E-002     1.6528879598354251E-008
  -2.1250000000000002E-002     1.7028932930429619E-008
  -2.1200000000000000E-002     1.7545943364893901E-008
  -2.1149999999999999E-002     1.8080426045230524E-008
  -2.1100000000000001E-002     1.8632649201322238E-008
  -2.1049999999999999E-002     1.9202778034355106E-008
  -2.1000000000000001E-002     1.9790984850942550E-008
  -2.0950000000000000E-002     2.0397470379407423E-008
  -2.0899999999999998E-002     2.1022337648446410E-008
  -2.0850000000000000E-002     2.1665345073529352E-008
  -2.0799999999999999E-002     2.2325629345232301E-008
  -2.0750000000000001E-002     2.3001474502848396E-008
  -2.0700000000000000E-002     2.3690244432827967E-008
  -2.0649999999999998E-002     2.4388537411823563E-008
  -2.0600000000000000E-002     2.5092507627277882E-008
  -2.0549999999999999E-002     2.5798346570127251E-008
  -2.0500000000000001E-002     2.6502764427505099E-008
  -2.0449999999999999E-002     2.7203398644815024E-008
  -2.0400000000000001E-002     2.7899105248252454E-008
  -2.0350000000000000E-002     2.8590092071567597E-008
  -2.0299999999999999E-002     2.9277972046770628E-008
  -2.0250000000000001E-002     2.9965757875061172E-008
  -2.0199999999999999E-002     3.0657847815973582E-008
  -2.0150000000000001E-002     3.1359991936596998E-008
  -2.0100000000000000E-002     3.2079121581318759E-008
  -2.0049999999999998E-002     3.2823077589227978E-008
  -2.0000000000000000E-002     3.3600123572341545E-008
  -1.9949999999999999E-002     3.4418338401565052E-008
  -1.9900000000000001E-002     3.5284934085666464E-008
  -1.9850000000000000E-002     3.6205690889801190E-008
  -1.9799999999999998E-002     3.7184616274998916E-008
  -1.9750000000000000E-002     3.8223916476454178E-008
  -1.9699999999999999E-002     3.9324309142330094E-008
  -1.9650000000000001E-002     4.0485545582669147E-008
  -1.9599999999999999E-002     4.1707053810569050E-008
  -1.9550000000000001E-002     4.2988531845367106E-008
  -1.9500000000000000E-002     4.4330334958431195E-008
  -1.9449999999999999E-002     4.5733617781706926E-008
  -1.9400000000000001E-002     4.7200209962738882E-008
  -1.9349999999999999E-002     4.8732236024306985E-008
  -1.9300000000000001E-002     5.0331674827930328E-008
  -1.9250000000000000E-002     5.1999851535811104E-008
  -1.9199999999999998E-002     5.3737164051881336E-008
  -1.9150000000000000E-002     5.5542979993106201E-008
  -1.9099999999999999E-002     5.7415796561599564E-008
  -1.9050000000000001E-002     5.9353542525286684E-008
  -1.9000000000000000E-002     6.1353894409421628E-008
  -1.8949999999999998E-002     6.3414454132271203E-008
  -1.8900000000000000E-002     6.5532638870990922E-008
  -1.8849999999999999E-002     6.7705379080962302E-008
  -1.8800000000000001E-002     6.9928653090300941E-008
  -1.8749999999999999E-002     7.2197103406779206E-008
  -1.8700000000000001E-002     7.4503979874407378E-008
  -1.8650000000000000E-002     7.6841374152536446E-008
  -1.8599999999999998E-002     7.9200866309747653E-008
  -1.8550000000000001E-002     8.1574221155733539E-008
  -1.8499999999999999E-002     8.3954134311170492E-008
  -1.8450000000000001E-002     8.6334658533360198E-008
  -1.8400000000000000E-002     8.8711423984477733E-008
  -1.8349999999999998E-002     9.1081481912169693E-008
  -1.8300000000000000E-002     9.3443190962716471E-008
  -1.8249999999999999E-002     9.5796075072485110E-008
  -1.8200000000000001E-002     9.8140858995066083E-008
  -1.8149999999999999E-002     1.0047968856952139E-007
  -1.8100000000000002E-002     1.0281638651576941E-007
  -1.8050000000000000E-002     1.0515662296484152E-007
  -1.7999999999999999E-002     1.0750785861546319E-007
  -1.7950000000000001E-002     1.0987894683012200E-007
  -1.7899999999999999E-002     1.1227950835746014E-007
  -1.7850000000000001E-002     1.1471902894300001E-007
  -1.7800000000000000E-002     1.1720587167474150E-007
  -1.7749999999999998E-002     1.1974645985901589E-007
  -1.7700000000000000E-002     1.2234471569172456E-007
  -1.7649999999999999E-002     1.2500197499321075E-007
  -1.7600000000000001E-002     1.2771735669048212E-007
  -1.7550000000000000E-002     1.3048855862507480E-007
  -1.7499999999999998E-002     1.3331298021057592E-007
  -1.7450000000000000E-002     1.3618891614441964E-007
  -1.7399999999999999E-002     1.3911652274600783E-007
  -1.7350000000000001E-002     1.4209824428235152E-007
  -1.7299999999999999E-002     1.4513891244405386E-007
  -1.7250000000000001E-002     1.4824524896539515E-007
  -1.7200000000000000E-002     1.5142508402732346E-007
  -1.7149999999999999E-002     1.5468653202788119E-007
  -1.7100000000000001E-002     1.5803743735887110E-007
  -1.7049999999999999E-002     1.6148503334534325E-007
  -1.7000000000000001E-002     1.6503577171533834E-007
  -1.6950000000000000E-002     1.6869540786501602E-007
  -1.6899999999999998E-002     1.7246871664156060E-007
  -1.6850000000000000E-002     1.7635932181292446E-007
  -1.6799999999999999E-002     1.8036929816389602E-007
  -1.6750000000000001E-002     1.8449870253789413E-007
  -1.6700000000000000E-002     1.8874544593927567E-007
  -1.6649999999999998E-002     1.9310544985273737E-007
  -1.6600000000000000E-002     1.9757324309921387E-007
  -1.6549999999999999E-002     2.0214281448716065E-007
  -1.6500000000000001E-002     2.0680847967469163E-007
  -1.6449999999999999E-002     2.1156567697744322E-007
  -1.6400000000000001E-002     2.1641167791131011E-007
  -1.6350000000000000E-002     2.2134592825295840E-007
  -1.6299999999999999E-002     2.2637028962435579E-007
  -1.6250000000000001E-002     2.3148898264935269E-007
  -1.6199999999999999E-002     2.3670848747769924E-007
  -1.6150000000000001E-002     2.4203714588111325E-007
  -1.6100000000000000E-002     2.4748450755396334E-007
  -1.6049999999999998E-002     2.5306056272711430E-007
  -1.6000000000000000E-002     2.5877469056467817E-007
  -1.5949999999999999E-002     2.6463490598871431E-007
  -1.5900000000000001E-002     2.7064703544965596E-007
  -1.5850000000000000E-002     2.7681468850460078E-007
  -1.5799999999999998E-002     2.8313903044363542E-007
  -1.5750000000000000E-002     2.8961923703718639E-007
  -1.5699999999999999E-002     2.9625269348798611E-007
  -1.5650000000000001E-002     3.0303522180474829E-007
  -1.5599999999999999E-002     3.0996133659755287E-007
  -1.5550000000000001E-002     3.1702469982519688E-007
  -1.5500000000000000E-002     3.2421880291622074E-007
  -1.5449999999999998E-002     3.3153773415506294E-007
  -1.5400000000000000E-002     3.3897708817676175E-007
  -1.5349999999999999E-002     3.4653444913601561E-007
  -1.5300000000000001E-002     3.5420978861111507E-007
  -1.5250000000000000E-002     3.6200557929078059E-007
  -1.5199999999999998E-002     3.6992639707023045E-007
  -1.5150000000000000E-002     3.7797892105118081E-007
  -1.5099999999999999E-002     3.8617167774646077E-007
  -1.5050000000000001E-002     3.9451492739317473E-007
  -1.4999999999999999E-002     4.0302029447047971E-007
  -1.4949999999999998E-002     4.1170011400026851E-007
  -1.4900000000000000E-002     4.2056626625708304E-007
  -1.4849999999999999E-002     4.2962886936948053E-007
  -1.4800000000000001E-002     4.3889491507798084E-007
  -1.4749999999999999E-002     4.4836775714429677E-007
  -1.4700000000000001E-002     4.5804699766449630E-007
  -1.4650000000000000E-002     4.6792942498541379E-007
  -1.4599999999999998E-002     4.7801046321183094E-007
  -1.4550000000000000E-002     4.8828542276169173E-007
  -1.4499999999999999E-002     4.9875097829499282E-007
  -1.4450000000000001E-002     5.0940525397891179E-007
  -1.4400000000000000E-002     5.2024847718712408E-007
  -1.4349999999999998E-002     5.3128246690903325E-007
  -1.4300000000000000E-002     5.4251108849712182E-007
  -1.4249999999999999E-002     5.5394013998011360E-007
  -1.4200000000000001E-002     5.6557803418399999E-007
  -1.4149999999999999E-002     5.7743551451494568E-007
  -1.4099999999999998E-002     5.8952542758561322E-007
  -1.4050000000000000E-002     6.0186204109413666E-007
  -1.3999999999999999E-002     6.1445990695574437E-007
  -1.3950000000000001E-002     6.2733278127780068E-007
  -1.3899999999999999E-002     6.4049271486510406E-007
  -1.3850000000000001E-002     6.5394903003834770E-007
  -1.3800000000000000E-002     6.6770775219993084E-007
  -1.3749999999999998E-002     6.8177092771293246E-007
  -1.3700000000000000E-002     6.9613616915376042E-007
  -1.3649999999999999E-002     7.1079654162531369E-007
  -1.3600000000000001E-002     7.2574107434775215E-007
  -1.3550000000000000E-002     7.4095646596106235E-007
  -1.3499999999999998E-002     7.5642873298420454E-007
  -1.3450000000000000E-002     7.7214588145579910E-007
  -1.3399999999999999E-002     7.8809955539327348E-007
  -1.3350000000000001E-002     8.0428662840859033E-007
  -1.3299999999999999E-002     8.2070891949115321E-007
  -1.3249999999999998E-002     8.3737268141703680E-007
  -1.3200000000000000E-002     8.5428769125428516E-007
  -1.3149999999999998E-002     8.7146588612085907E-007
  -1.3100000000000001E-002     8.8892090843728511E-007
  -1.3049999999999999E-002     9.0666742380562937E-007
  -1.3000000000000001E-002     9.2472089363582199E-007
  -1.2950000000000000E-002     9.4309734777198173E-007
  -1.2899999999999998E-002     9.6181258868455188E-007
  -1.2850000000000000E-002     9.8088048616773449E-007
  -1.2799999999999999E-002     1.0003126362789772E-006