  -4.0000000000000001E-002     0.0000000000000000     
  -3.9949999999999999E-002     0.0000000000000000     
  -3.9899999999999998E-002     0.0000000000000000     
  -3.9850000000000003E-002     0.0000000000000000     
  -3.9800000000000002E-002     0.0000000000000000     
  -3.9750000000000001E-002     0.0000000000000000     
  -3.9699999999999999E-002     0.0000000000000000     
  -3.9649999999999998E-002     0.0000000000000000     
  -3.9600000000000003E-002     0.0000000000000000     
  -3.9550000000000002E-002     0.0000000000000000     
  -3.9500000000000000E-002     0.0000000000000000     
  -3.9449999999999999E-002     0.0000000000000000     
  -3.9399999999999998E-002     0.0000000000000000     
  -3.9350000000000003E-002     0.0000000000000000     
  -3.9300000000000002E-002     0.0000000000000000     
  -3.9250000000000000E-002     0.0000000000000000     
  -3.9199999999999999E-002     0.0000000000000000     
  -3.9150000000000004E-002     0.0000000000000000     
  -3.9100000000000003E-002     0.0000000000000000     
  -3.9050000000000001E-002     0.0000000000000000     
  -3.9000000000000000E-002     0.0000000000000000     
  -3.8949999999999999E-002     0.0000000000000000     
  -3.8900000000000004E-002     0.0000000000000000     
  -3.8850000000000003E-002     0.0000000000000000     
  -3.8800000000000001E-002     0.0000000000000000     
  -3.8750000000000000E-002     0.0000000000000000     
  -3.8699999999999998E-002     0.0000000000000000     
  -3.8650000000000004E-002     0.0000000000000000     
  -3.8600000000000002E-002     0.0000000000000000     
  -3.8550000000000001E-002     0.0000000000000000     
  -3.8500000000000000E-002     0.0000000000000000     
  -3.8449999999999998E-002     0.0000000000000000     
  -3.8400000000000004E-002     0.0000000000000000     
  -3.8350000000000002E-002     0.0000000000000000     
  -3.8300000000000001E-002     0.0000000000000000     
  -3.8249999999999999E-002     0.0000000000000000     
  -3.8199999999999998E-002     0.0000000000000000     
  -3.8150000000000003E-002     0.0000000000000000     
  -3.8100000000000002E-002     0.0000000000000000     
  -3.8050000000000000E-002     0.0000000000000000     
  -3.7999999999999999E-002     0.0000000000000000     
  -3.7949999999999998E-002     0.0000000000000000     
  -3.7900000000000003E-002     0.0000000000000000     
  -3.7850000000000002E-002     0.0000000000000000     
  -3.7800000000000000E-002     0.0000000000000000     
  -3.7749999999999999E-002     0.0000000000000000     
  -3.7699999999999997E-002     0.0000000000000000     
  -3.7650000000000003E-002     0.0000000000000000     
  -3.7600000000000001E-002     0.0000000000000000     
  -3.7550000000000000E-002     0.0000000000000000     
  -3.7499999999999999E-002     0.0000000000000000     
  -3.7449999999999997E-002     0.0000000000000000     
  -3.7400000000000003E-002     0.0000000000000000     
  -3.7350000000000001E-002     0.0000000000000000     
  -3.7300000000000000E-002     0.0000000000000000     
  -3.7249999999999998E-002     0.0000000000000000     
  -3.7200000000000004E-002     0.0000000000000000     
  -3.7150000000000002E-002     0.0000000000000000     
  -3.7100000000000001E-002     0.0000000000000000     
  -3.7050000000000000E-002     0.0000000000000000     
  -3.6999999999999998E-002     0.0000000000000000     
  -3.6950000000000004E-002     0.0000000000000000     
  -3.6900000000000002E-002     0.0000000000000000     
  -3.6850000000000001E-002     0.0000000000000000     
  -3.6799999999999999E-002     0.0000000000000000     
  -3.6749999999999998E-002     0.0000000000000000     
  -3.6700000000000003E-002     0.0000000000000000     
  -3.6650000000000002E-002     0.0000000000000000     
  -3.6600000000000001E-002     0.0000000000000000     
  -3.6549999999999999E-002     0.0000000000000000     
  -3.6499999999999998E-002     0.0000000000000000     
  -3.6450000000000003E-002     0.0000000000000000     
  -3.6400000000000002E-002     0.0000000000000000     
  -3.6350000000000000E-002     0.0000000000000000     
  -3.6299999999999999E-002     0.0000000000000000     
  -3.6249999999999998E-002     0.0000000000000000     
  -3.6200000000000003E-002     0.0000000000000000     
  -3.6150000000000002E-002     0.0000000000000000     
  -3.6100000000000000E-002     0.0000000000000000     
  -3.6049999999999999E-002     0.0000000000000000     
  -3.6000000000000004E-002     0.0000000000000000     
  -3.5950000000000003E-002     0.0000000000000000     
  -3.5900000000000001E-002     0.0000000000000000     
  -3.5850000000000000E-002     0.0000000000000000     
  -3.5799999999999998E-002     0.0000000000000000     
  -3.5750000000000004E-002     0.0000000000000000     
  -3.5700000000000003E-002     0.0000000000000000     
  -3.5650000000000001E-002     0.0000000000000000     
  -3.5600000000000000E-002     0.0000000000000000     
  -3.5549999999999998E-002     0.0000000000000000     
  -3.5500000000000004E-002     0.0000000000000000     
  -3.5450000000000002E-002     0.0000000000000000     
  -3.5400000000000001E-002     0.0000000000000000     
  -3.5349999999999999E-002     0.0000000000000000     
  -3.5299999999999998E-002     0.0000000000000000     
  -3.5250000000000004E-002     0.0000000000000000     
  -3.5200000000000002E-002     0.0000000000000000     
  -3.5150000000000001E-002     0.0000000000000000     
  -3.5099999999999999E-002     0.0000000000000000     
  -3.5049999999999998E-002     0.0000000000000000     
  -3.5000000000000003E-002     0.0000000000000000     
  -3.4950000000000002E-002     0.0000000000000000     
  -3.4900000000000000E-002     0.0000000000000000     
  -3.4849999999999999E-002     0.0000000000000000     
  -3.4799999999999998E-002     0.0000000000000000     
  -3.4750000000000003E-002     0.0000000000000000     
  -3.4700000000000002E-002     0.0000000000000000     
  -3.4650000000000000E-002     0.0000000000000000     
  -3.4599999999999999E-002     0.0000000000000000     
  -3.4549999999999997E-002     0.0000000000000000     
  -3.4500000000000003E-002     0.0000000000000000     
  -3.4450000000000001E-002     0.0000000000000000     
  -3.4400000000000000E-002     0.0000000000000000     
  -3.4349999999999999E-002     0.0000000000000000     
  -3.4299999999999997E-002     0.0000000000000000     
  -3.4250000000000003E-002     0.0000000000000000     
  -3.4200000000000001E-002     0.0000000000000000     
  -3.4150000000000000E-002     0.0000000000000000     
  -3.4099999999999998E-002     0.0000000000000000     
  -3.4049999999999997E-002     0.0000000000000000     
  -3.4000000000000002E-002     0.0000000000000000     
  -3.3950000000000001E-002     0.0000000000000000     
  -3.3900000000000000E-002     0.0000000000000000     
  -3.3849999999999998E-002     0.0000000000000000     
  -3.3799999999999997E-002     0.0000000000000000     
  -3.3750000000000002E-002     0.0000000000000000     
  -3.3700000000000001E-002     0.0000000000000000     
  -3.3649999999999999E-002     0.0000000000000000     
  -3.3599999999999998E-002     0.0000000000000000     
  -3.3550000000000003E-002     0.0000000000000000     
  -3.3500000000000002E-002     0.0000000000000000     
  -3.3450000000000001E-002     0.0000000000000000     
  -3.3399999999999999E-002     0.0000000000000000     
  -3.3349999999999998E-002     0.0000000000000000     
  -3.3300000000000003E-002     0.0000000000000000     
  -3.3250000000000002E-002     0.0000000000000000     
  -3.3200000000000000E-002     0.0000000000000000     
  -3.3149999999999999E-002     0.0000000000000000     
  -3.3099999999999997E-002     0.0000000000000000     
  -3.3050000000000003E-002     0.0000000000000000     
  -3.3000000000000002E-002     0.0000000000000000     
  -3.2950000000000000E-002     0.0000000000000000     
  -3.2899999999999999E-002     0.0000000000000000     
  -3.2850000000000004E-002     0.0000000000000000     
  -3.2800000000000003E-002     0.0000000000000000     
  -3.2750000000000001E-002     0.0000000000000000     
  -3.2700000000000000E-002     0.0000000000000000     
  -3.2649999999999998E-002     0.0000000000000000     
  -3.2600000000000004E-002     0.0000000000000000     
  -3.2550000000000003E-002     0.0000000000000000     
  -3.2500000000000001E-002     0.0000000000000000     
  -3.2450000000000000E-002     0.0000000000000000     
  -3.2399999999999998E-002     0.0000000000000000     
  -3.2350000000000004E-002     0.0000000000000000     
  -3.2300000000000002E-002     0.0000000000000000     
  -3.2250000000000001E-002     0.0000000000000000     
  -3.2199999999999999E-002     0.0000000000000000     
  -3.2149999999999998E-002     0.0000000000000000     
  -3.2100000000000004E-002     0.0000000000000000     
  -3.2050000000000002E-002     0.0000000000000000     
  -3.2000000000000001E-002     0.0000000000000000     
  -3.1949999999999999E-002     0.0000000000000000     
  -3.1899999999999998E-002     0.0000000000000000     
  -3.1850000000000003E-002     0.0000000000000000     
  -3.1800000000000002E-002     0.0000000000000000     
  -3.1750000000000000E-002     0.0000000000000000     
  -3.1699999999999999E-002     0.0000000000000000     
  -3.1649999999999998E-002     0.0000000000000000     
  -3.1600000000000003E-002     0.0000000000000000     
  -3.1550000000000002E-002     0.0000000000000000     
  -3.1500000000000000E-002     0.0000000000000000     
  -3.1449999999999999E-002     0.0000000000000000     
  -3.1399999999999997E-002     0.0000000000000000     
  -3.1350000000000003E-002     0.0000000000000000     
  -3.1300000000000001E-002     0.0000000000000000     
  -3.1250000000000000E-002     0.0000000000000000     
  -3.1199999999999999E-002     0.0000000000000000     
  -3.1150000000000001E-002     0.0000000000000000     
  -3.1100000000000003E-002     0.0000000000000000     
  -3.1050000000000001E-002     0.0000000000000000     
  -3.1000000000000000E-002     0.0000000000000000     
  -3.0949999999999998E-002     0.0000000000000000     
  -3.0900000000000000E-002     0.0000000000000000     
  -3.0850000000000002E-002     0.0000000000000000     
  -3.0800000000000001E-002     0.0000000000000000     
  -3.0750000000000000E-002     0.0000000000000000     
  -3.0699999999999998E-002     0.0000000000000000     
  -3.0650000000000000E-002     0.0000000000000000     
  -3.0600000000000002E-002     0.0000000000000000     
  -3.0550000000000001E-002     0.0000000000000000     
  -3.0499999999999999E-002     0.0000000000000000     
  -3.0449999999999998E-002     0.0000000000000000     
  -3.0400000000000000E-002     0.0000000000000000     
  -3.0350000000000002E-002     0.0000000000000000     
  -3.0300000000000001E-002     0.0000000000000000     
  -3.0249999999999999E-002     0.0000000000000000     
  -3.0200000000000001E-002     0.0000000000000000     
  -3.0150000000000000E-002     0.0000000000000000     
  -3.0100000000000002E-002     0.0000000000000000     
  -3.0050000000000000E-002     0.0000000000000000     
  -2.9999999999999999E-002     0.0000000000000000     
  -2.9950000000000001E-002     0.0000000000000000     
  -2.9899999999999999E-002     0.0000000000000000     
  -2.9850000000000002E-002     0.0000000000000000     
  -2.9800000000000000E-002     0.0000000000000000     
  -2.9749999999999999E-002     0.0000000000000000     
  -2.9700000000000001E-002     0.0000000000000000     
  -2.9650000000000003E-002     0.0000000000000000     
  -2.9600000000000001E-002     0.0000000000000000     
  -2.9550000000000000E-002     0.0000000000000000     
  -2.9499999999999998E-002     0.0000000000000000     
  -2.9450000000000000E-002     0.0000000000000000     
  -2.9400000000000003E-002     0.0000000000000000     
  -2.9350000000000001E-002     0.0000000000000000     
  -2.9300000000000000E-002     0.0000000000000000     
  -2.9249999999999998E-002     0.0000000000000000     
  -2.9200000000000000E-002     0.0000000000000000     
  -2.9150000000000002E-002     0.0000000000000000     
  -2.9100000000000001E-002     0.0000000000000000     
  -2.9049999999999999E-002     0.0000000000000000     
  -2.8999999999999998E-002     0.0000000000000000     
  -2.8950000000000000E-002     0.0000000000000000     
  -2.8900000000000002E-002     0.0000000000000000     
  -2.8850000000000001E-002     0.0000000000000000     
  -2.8799999999999999E-002     0.0000000000000000     
  -2.8749999999999998E-002     0.0000000000000000     
  -2.8700000000000000E-002     0.0000000000000000     
  -2.8650000000000002E-002     0.0000000000000000     
  -2.8600000000000000E-002     0.0000000000000000     
  -2.8549999999999999E-002     0.0000000000000000     
  -2.8500000000000001E-002     0.0000000000000000     
  -2.8450000000000000E-002     0.0000000000000000     
  -2.8400000000000002E-002     0.0000000000000000     
  -2.8350000000000000E-002     0.0000000000000000     
  -2.8299999999999999E-002     0.0000000000000000     
  -2.8250000000000001E-002     0.0000000000000000     
  -2.8200000000000003E-002     0.0000000000000000     
  -2.8150000000000001E-002     0.0000000000000000     
  -2.8100000000000000E-002     0.0000000000000000     
  -2.8049999999999999E-002     0.0000000000000000     
  -2.8000000000000001E-002     0.0000000000000000     
  -2.7950000000000003E-002     0.0000000000000000     
  -2.7900000000000001E-002     0.0000000000000000     
  -2.7850000000000000E-002     0.0000000000000000     
  -2.7799999999999998E-002     0.0000000000000000     
  -2.7750000000000000E-002     0.0000000000000000     
  -2.7700000000000002E-002     0.0000000000000000     
  -2.7650000000000001E-002     0.0000000000000000     
  -2.7600000000000000E-002     0.0000000000000000     
  -2.7549999999999998E-002     0.0000000000000000     
  -2.7500000000000000E-002     0.0000000000000000     
  -2.7450000000000002E-002     0.0000000000000000     
  -2.7400000000000001E-002     0.0000000000000000     
  -2.7349999999999999E-002     0.0000000000000000     
  -2.7299999999999998E-002     0.0000000000000000     
  -2.7250000000000000E-002     0.0000000000000000     
  -2.7200000000000002E-002     0.0000000000000000     
  -2.7150000000000001E-002     0.0000000000000000     
  -2.7099999999999999E-002     0.0000000000000000     
  -2.7049999999999998E-002     0.0000000000000000     
  -2.7000000000000000E-002     0.0000000000000000     
  -2.6950000000000002E-002     0.0000000000000000     
  -2.6900000000000000E-002     0.0000000000000000     
  -2.6849999999999999E-002     0.0000000000000000     
  -2.6800000000000001E-002     0.0000000000000000     
  -2.6749999999999999E-002     0.0000000000000000     
  -2.6700000000000002E-002     0.0000000000000000     
  -2.6650000000000000E-002     0.0000000000000000     
  -2.6599999999999999E-002     0.0000000000000000     
  -2.6550000000000001E-002     0.0000000000000000     
  -2.6500000000000003E-002     0.0000000000000000     
  -2.6450000000000001E-002     0.0000000000000000     
  -2.6400000000000000E-002     0.0000000000000000     
  -2.6349999999999998E-002     0.0000000000000000     
  -2.6300000000000000E-002     0.0000000000000000     
  -2.6250000000000002E-002     0.0000000000000000     
  -2.6200000000000001E-002     0.0000000000000000     
  -2.6150000000000000E-002     0.0000000000000000     
  -2.6099999999999998E-002     0.0000000000000000     
  -2.6050000000000000E-002     0.0000000000000000     
  -2.6000000000000002E-002     0.0000000000000000     
  -2.5950000000000001E-002     0.0000000000000000     
  -2.5899999999999999E-002     0.0000000000000000     
  -2.5849999999999998E-002     0.0000000000000000     
  -2.5800000000000000E-002     0.0000000000000000     
  -2.5750000000000002E-002     0.0000000000000000     
  -2.5700000000000001E-002     0.0000000000000000     
  -2.5649999999999999E-002     0.0000000000000000     
  -2.5599999999999998E-002     0.0000000000000000     
  -2.5550000000000000E-002     0.0000000000000000     
  -2.5500000000000002E-002     0.0000000000000000     
  -2.5450000000000000E-002     0.0000000000000000     
  -2.5399999999999999E-002     0.0000000000000000     
  -2.5349999999999998E-002     0.0000000000000000     
  -2.5300000000000000E-002     0.0000000000000000     
  -2.5250000000000002E-002     0.0000000000000000     
  -2.5200000000000000E-002     0.0000000000000000     
  -2.5149999999999999E-002     0.0000000000000000     
  -2.5100000000000001E-002     0.0000000000000000     
  -2.5049999999999999E-002     0.0000000000000000     
  -2.5000000000000001E-002     0.0000000000000000     
  -2.4950000000000000E-002     0.0000000000000000     
  -2.4899999999999999E-002     0.0000000000000000     
  -2.4850000000000001E-002     0.0000000000000000     
  -2.4800000000000003E-002     0.0000000000000000     
  -2.4750000000000001E-002     0.0000000000000000     
  -2.4700000000000000E-002     0.0000000000000000     
  -2.4649999999999998E-002     0.0000000000000000     
  -2.4600000000000000E-002     0.0000000000000000     
  -2.4550000000000002E-002     0.0000000000000000     
  -2.4500000000000001E-002     0.0000000000000000     
  -2.4450000000000000E-002     0.0000000000000000     
  -2.4399999999999998E-002     0.0000000000000000     
  -2.4350000000000000E-002     0.0000000000000000     
  -2.4299999999999999E-002     0.0000000000000000     
  -2.4250000000000001E-002     0.0000000000000000     
  -2.4199999999999999E-002     0.0000000000000000     
  -2.4150000000000001E-002     0.0000000000000000     
  -2.4100000000000000E-002     0.0000000000000000     
  -2.4049999999999998E-002     0.0000000000000000     
  -2.4000000000000000E-002     0.0000000000000000     
  -2.3949999999999999E-002     0.0000000000000000     
  -2.3900000000000001E-002     0.0000000000000000     
  -2.3850000000000000E-002     0.0000000000000000     
  -2.3800000000000002E-002     0.0000000000000000     
  -2.3750000000000000E-002     0.0000000000000000     
  -2.3699999999999999E-002     0.0000000000000000     
  -2.3650000000000001E-002     0.0000000000000000     
  -2.3599999999999999E-002     0.0000000000000000     
  -2.3550000000000001E-002     0.0000000000000000     
  -2.3500000000000000E-002     0.0000000000000000     
  -2.3449999999999999E-002     0.0000000000000000     
  -2.3400000000000001E-002     0.0000000000000000     
  -2.3349999999999999E-002     0.0000000000000000     
  -2.3300000000000001E-002     0.0000000000000000     
  -2.3250000000000000E-002     0.0000000000000000     
  -2.3199999999999998E-002     0.0000000000000000     
  -2.3150000000000000E-002     0.0000000000000000     
  -2.3099999999999999E-002     0.0000000000000000     
  -2.3050000000000001E-002     0.0000000000000000     
  -2.3000000000000000E-002     1.0674588937412107E-039
  -2.2950000000000002E-002     2.6227744764185042E-039
  -2.2900000000000000E-002     3.6519019914021614E-039
  -2.2849999999999999E-002     2.5388888100618658E-039
  -2.2800000000000001E-002    -1.3766286863648142E-039
  -2.2749999999999999E-002    -6.4287558225983248E-039
  -2.2700000000000001E-002    -1.2045814125301136E-038
  -2.2650000000000000E-002    -1.4861226189717212E-038
  -2.2599999999999999E-002    -1.2448455390250658E-038
  -2.2550000000000001E-002    -1.9418117131291350E-039
  -2.2499999999999999E-002     1.6336476806519392E-038
  -2.2450000000000001E-002     4.8792727183989676E-038
  -2.2400000000000000E-002     5.8087551044026386E-038
  -2.2349999999999998E-002     5.7950996691733514E-038
  -2.2300000000000000E-002     6.0213466116255575E-039
  -2.2249999999999999E-002    -4.7851408444958851E-038
  -2.2200000000000001E-002    -7.6949569920091566E-038
  -2.2150000000000000E-002    -7.9472603524992396E-038
  -2.2100000000000002E-002    -7.6547832307702688E-038
  -2.2050000000000000E-002    -8.3070334689097196E-038
  -2.1999999999999999E-002    -1.1397477877351672E-037
  -2.1950000000000001E-002    -1.5110770354059845E-037
  -2.1899999999999999E-002    -1.2813860229331183E-037
  -2.1850000000000001E-002    -2.1074575470370217E-038
  -2.1800000000000000E-002     1.6685369155759354E-037
  -2.1749999999999999E-002     4.1045616763160245E-037
  -2.1700000000000001E-002     6.6462638352006916E-037
  -2.1649999999999999E-002     8.3183493042921851E-037
  -2.1600000000000001E-002     8.0272362161522450E-037
  -2.1550000000000000E-002     4.7065168087845448E-037
  -2.1499999999999998E-002    -2.2376414008122066E-037
  -2.1450000000000000E-002    -1.2366195406704889E-036
  -2.1399999999999999E-002    -2.3714110627650514E-036
  -2.1350000000000001E-002    -3.2550651694298405E-036
  -2.1299999999999999E-002    -3.4043551417846002E-036
  -2.1250000000000002E-002    -2.3776051412855754E-036
  -2.1200000000000000E-002     1.4471327362932498E-038
  -2.1149999999999999E-002     3.5206063726774626E-036
  -2.1100000000000001E-002     7.3526235085104047E-036
  -2.1049999999999999E-002     1.0272666857850750E-035
  -2.1000000000000001E-002     1.0872624453976219E-035
  -2.0950000000000000E-002     8.0184760530540332E-036
  -2.0899999999999998E-002     1.3482586198551604E-036
  -2.0850000000000000E-002    -8.3263295200849524E-036
  -2.0799999999999999E-002    -1.8886491298718777E-035
  -2.0750000000000001E-002    -2.7177461686774787E-035
  -2.0700000000000000E-002    -2.9725629438662846E-035
  -2.0649999999999998E-002    -2.3792136585101207E-035
  -2.0600000000000000E-002    -8.5004827962691797E-036
  -2.0549999999999999E-002     1.4332222167348285E-035
  -2.0500000000000001E-002     4.0023982585537837E-035
  -2.0449999999999999E-002     6.1735286676622827E-035
  -2.0400000000000001E-002     7.2016523423890452E-035
  -2.0350000000000000E-002     6.4865152958633098E-035
  -2.0299999999999999E-002     3.7743946841205098E-035
  -2.0250000000000001E-002    -7.0426792710005322E-036
  -2.0199999999999999E-002    -6.2082522887378846E-035
  -2.0150000000000001E-002    -1.1586709930312243E-034
  -2.0100000000000000E-002    -1.5489298886035337E-034
  -2.0049999999999998E-002    -1.6637482145287914E-034
  -2.0000000000000000E-002    -1.4097719432009272E-034
  -1.9949999999999999E-002    -7.5066964317314512E-035
  -1.9900000000000001E-002     2.7761103103479979E-035
  -1.9850000000000000E-002     1.5587629598985172E-034
  -1.9799999999999998E-002     2.8942498970150977E-034
  -1.9750000000000000E-002     4.0087001398230418E-034
  -1.9699999999999999E-002     4.5680694553913053E-034
  -1.9650000000000001E-002     4.2205998943727226E-034
  -1.9599999999999999E-002     2.6710168265114747E-034
  -1.9550000000000001E-002    -2.0896849413416135E-035
  -1.9500000000000000E-002    -4.2476063944011800E-034
  -1.9449999999999999E-002    -8.8543757027972260E-034
  -1.9400000000000001E-002    -1.2973565343634763E-033
  -1.9349999999999999E-002    -1.5175363327646254E-033
  -1.9300000000000001E-002    -1.3931349048689371E-033
  -1.9250000000000000E-002    -8.0722409379501994E-034
  -1.9199999999999998E-002     2.6484016689278715E-034
  -1.9150000000000000E-002     1.7040543506346914E-033
  -1.9099999999999999E-002     3.2225113886048474E-033
  -1.9050000000000001E-002     4.3851006671482855E-033
  -1.9000000000000000E-002     4.6906832683669086E-033
  -1.8949999999999998E-002     3.7088577616267898E-033
  -1.8900000000000000E-002     1.2470616448365536E-033
  -1.8849999999999999E-002    -2.4974504121603953E-033
  -1.8800000000000001E-002    -6.8574561413450895E-033
  -1.8749999999999999E-002    -1.0739325168588547E-032
  -1.8700000000000001E-002    -1.2817801495448692E-032
  -1.8650000000000000E-002    -1.1868107970089535E-032
  -1.8599999999999998E-002    -7.1721557908271140E-033
  -1.8550000000000001E-002     1.1068253099397358E-033
  -1.8499999999999999E-002     1.1706760540273217E-032
  -1.8450000000000001E-002     2.2316306678103809E-032
  -1.8400000000000000E-002     2.9947536199809572E-032
  -1.8349999999999998E-002     3.1603430719831486E-032
  -1.8300000000000000E-002     2.5117714431274328E-032
  -1.8249999999999999E-002     9.9676158406004980E-033
  -1.8200000000000001E-002    -1.2173140399170178E-032
  -1.8149999999999999E-002    -3.7346133858679790E-032
  -1.8100000000000002E-002    -5.9800551951717040E-032
  -1.8050000000000000E-002    -7.3048353507106958E-032
  -1.7999999999999999E-002    -7.1319248138836862E-032
  -1.7950000000000001E-002    -5.1132732609119122E-032
  -1.7899999999999999E-002    -1.2641723296246545E-032
  -1.7850000000000001E-002     3.9587250097380427E-032
  -1.7800000000000000E-002     9.6612779206877676E-032
  -1.7749999999999998E-002     1.4610323458086321E-031
  -1.7700000000000000E-002     1.7424298317159111E-031
  -1.7649999999999999E-002     1.6838438984723458E-031
  -1.7600000000000001E-002     1.2012609425202721E-031
  -1.7550000000000000E-002     2.8362693347368942E-032
  -1.7499999999999998E-002    -9.8279265718280301E-032
  -1.7450000000000000E-002    -2.4031039918856723E-031
  -1.7399999999999999E-002    -3.6827911039447908E-031
  -1.7350000000000001E-002    -4.4631424071704397E-031
  -1.7299999999999999E-002    -4.3856534112983345E-031
  -1.7250000000000001E-002    -3.1815164745225391E-031
  -1.7200000000000000E-002    -7.7334764890737871E-032
  -1.7149999999999999E-002     2.6334583668734208E-031
  -1.7100000000000001E-002     6.4998682465313202E-031
  -1.7049999999999999E-002     9.9743899020645401E-031
  -1.7000000000000001E-002     1.2009661791305083E-030
  -1.6950000000000000E-002     1.1578455086115893E-030
  -1.6899999999999998E-002     7.9642709749109349E-031
  -1.6850000000000000E-002     1.0691627662068582E-031
  -1.6799999999999999E-002    -8.3454083426851578E-031
  -1.6750000000000001E-002    -1.8579121180512938E-030
  -1.6700000000000000E-002    -2.7153535476157528E-030
  -1.6649999999999998E-002    -3.1246487574456518E-030
  -1.6600000000000000E-002    -2.8363053643140228E-030
  -1.6549999999999999E-002    -1.7124531697038125E-030
  -1.6500000000000001E-002     2.0137330769311661E-031
  -1.6449999999999999E-002     2.6340023887125529E-030
  -1.6400000000000001E-002     5.0962911162813013E-030
  -1.6350000000000000E-002     6.9505118907164304E-030
  -1.6299999999999999E-002     7.5391023334945034E-030
  -1.6250000000000001E-002     6.3534103901193607E-030
  -1.6199999999999999E-002     3.2072755464280661E-030
  -1.6150000000000001E-002    -1.6294908707845763E-030
  -1.6100000000000000E-002    -7.3825334140939228E-030
  -1.6049999999999998E-002    -1.2842032618283891E-029
  -1.6000000000000000E-002    -1.6559112505157152E-029
  -1.5949999999999999E-002    -1.7149094968539610E-029
  -1.5900000000000001E-002    -1.3650272326543690E-029
  -1.5850000000000000E-002    -5.8628036815347730E-030
  -1.5799999999999998E-002     5.4180730047922206E-030
  -1.5750000000000000E-002     1.8352663619434878E-029
  -1.5699999999999999E-002     3.0242648916486638E-029
  -1.5650000000000001E-002     3.7960654949161071E-029
  -1.5599999999999999E-002     3.8579794774158859E-029
  -1.5550000000000001E-002     3.0106630244896922E-029
  -1.5500000000000000E-002     1.2177982340859804E-029
  -1.5449999999999998E-002    -1.3441486206004883E-029
  -1.5400000000000000E-002    -4.2719839974461999E-029
  -1.5349999999999999E-002    -6.9698237957701161E-029
  -1.5300000000000001E-002    -8.7361175238559180E-029
  -1.5250000000000000E-002    -8.8984807974847539E-029
  -1.5199999999999998E-002    -6.9791223795225523E-029
  -1.5150000000000000E-002    -2.8616292837627108E-029
  -1.5099999999999999E-002     3.0793446625293722E-029
  -1.5050000000000001E-002     9.9272652163075696E-029
  -1.4999999999999999E-002     1.6287922182082251E-028
  -1.4949999999999998E-002     2.0488347508301561E-028
  -1.4900000000000000E-002     2.0903088626055560E-028
  -1.4849999999999999E-002     1.6366067413261864E-028
  -1.4800000000000001E-002     6.5911404100430182E-029
  -1.4749999999999999E-002    -7.5022421565189140E-029
  -1.4700000000000001E-002    -2.3669807504587760E-028
  -1.4650000000000000E-002    -3.8522091593779040E-028
  -1.4599999999999998E-002    -4.8045418452175025E-028
  -1.4550000000000000E-002    -4.8430246668113668E-028
  -1.4499999999999999E-002    -3.7082287316169697E-028
  -1.4450000000000001E-002    -1.3608095598225454E-028
  -1.4400000000000000E-002     1.9485313357692678E-028
  -1.4349999999999998E-002     5.6634776554332464E-028
  -1.4300000000000000E-002     8.9795595589675863E-028
  -1.4249999999999999E-002     1.0979301501561303E-027
  -1.4200000000000001E-002     1.0830928685073259E-027
  -1.4149999999999999E-002     8.0165407362990076E-028
  -1.4099999999999998E-002     2.5397150466436664E-028
  -1.4050000000000000E-002    -4.9445674182266157E-028
  -1.3999999999999999E-002    -1.3128920823204031E-027
  -1.3950000000000001E-002    -2.0212563177347320E-027
  -1.3899999999999999E-002    -2.4218973931679919E-027
  -1.3850000000000001E-002    -2.3431520860624412E-027
  -1.3800000000000000E-002    -1.6868381811392606E-027
  -1.3749999999999998E-002    -4.6913591421983053E-028
  -1.3700000000000000E-002     1.1564203166052357E-027
  -1.3649999999999999E-002     2.9032930111732517E-027
  -1.3600000000000001E-002     4.3886818680531190E-027
  -1.3550000000000000E-002     5.2011991676452050E-027
  -1.3499999999999998E-002     4.9905373592262280E-027
  -1.3450000000000000E-002     3.5632145225024811E-027
  -1.3399999999999999E-002     9.6367622164323386E-028
  -1.3350000000000001E-002    -2.4810887537153586E-027
  -1.3299999999999999E-002    -6.1717470364250055E-027
  -1.3249999999999998E-002    -9.3116064745490060E-027
  -1.3200000000000000E-002    -1.1044001719684029E-026
  -1.3149999999999998E-002    -1.0635131931921489E-026
  -1.3100000000000001E-002    -7.6713428033762659E-027
  -1.3049999999999999E-002    -2.2294323961865255E-027
  -1.3000000000000001E-002     5.0250607596084197E-027
  -1.2950000000000000E-002     1.2851047825586087E-026
  -1.2899999999999998E-002     1.9580206030589215E-026
  -1.2850000000000000E-002     2.3398997585313314E-026
  -1.2799999999999999E-002     2.2732055337079334E-026