  -4.0000000000000001E-002     0.0000000000000000     
  -3.9949999999999999E-002     0.0000000000000000     
  -3.9899999999999998E-002     0.0000000000000000     
  -3.9850000000000003E-002     0.0000000000000000     
  -3.9800000000000002E-002     0.0000000000000000     
  -3.9750000000000001E-002     0.0000000000000000     
  -3.9699999999999999E-002     0.0000000000000000     
  -3.9649999999999998E-002     0.0000000000000000     
  -3.9600000000000003E-002     0.0000000000000000     
  -3.9550000000000002E-002     0.0000000000000000     
  -3.9500000000000000E-002     0.0000000000000000     
  -3.9449999999999999E-002     0.0000000000000000     
  -3.9399999999999998E-002     0.0000000000000000     
  -3.9350000000000003E-002     0.0000000000000000     
  -3.9300000000000002E-002    -7.2570074113236233E-040
  -3.9250000000000000E-002    -1.2257610535589573E-038
  -3.9199999999999999E-002    -8.9386486848272373E-038
  -3.9150000000000004E-002    -1.4233588472525984E-037
  -3.9100000000000003E-002     1.5562536894568196E-036
  -3.9050000000000001E-002     1.6990671305046925E-035
  -3.9000000000000000E-002     9.7145997699248202E-035
  -3.8949999999999999E-002     3.9397361141621987E-034
  -3.8900000000000004E-002     1.2133066290787841E-033
  -3.8850000000000003E-002     2.8152448344166455E-033
  -3.8800000000000001E-002     4.3171196741080150E-033
  -3.8750000000000000E-002     6.9662343286955160E-034
  -3.8699999999999998E-002    -2.2503098822526242E-032
  -3.8650000000000004E-002    -9.3989886216350708E-032
  -3.8600000000000002E-002    -2.5141008227638073E-031
  -3.8550000000000001E-002    -5.0770150447956083E-031
  -3.8500000000000000E-002    -7.6820087863864540E-031
  -3.8449999999999998E-002    -6.9154636888428036E-031
  -3.8400000000000004E-002     4.7743464832147740E-031
  -3.8350000000000002E-002     4.0289532538009013E-030
  -3.8300000000000001E-002     1.1743561229086454E-029
  -3.8249999999999999E-002     2.5463349536613551E-029
  -3.8199999999999998E-002     4.5728724587328128E-029
  -3.8150000000000003E-002     6.8136440953231088E-029
  -3.8100000000000002E-002     7.5029122012604945E-029
  -3.8050000000000000E-002     2.0419450195670585E-029
  -3.7999999999999999E-002    -1.8859798731181896E-028
  -3.7949999999999998E-002    -6.9560687835592188E-028
  -3.7900000000000003E-002    -1.6402650739533766E-027
  -3.7850000000000002E-002    -2.9801157679632044E-027
  -3.7800000000000000E-002    -4.1417823266564434E-027
  -3.7749999999999999E-002    -3.5664190262374679E-027
  -3.7699999999999997E-002     1.5446018618555166E-027
  -3.7650000000000003E-002     1.4661520320852532E-026
  -3.7600000000000001E-002     3.7742825302377682E-026
  -3.7550000000000000E-002     6.7014270611200713E-026
  -3.7499999999999999E-002     8.7602148091920180E-026
  -3.7449999999999997E-002     7.0192745998234023E-026
  -3.7400000000000003E-002    -2.4725700286616008E-026
  -3.7350000000000001E-002    -2.2899655549117309E-025
  -3.7300000000000000E-002    -5.3331466359475509E-025
  -3.7249999999999998E-002    -8.4638098991368026E-025
  -3.7200000000000004E-002    -9.6953916587731758E-025
  -3.7150000000000002E-002    -6.2143072564006872E-025
  -3.7100000000000001E-002     4.5603961308442466E-025
  -3.7050000000000000E-002     2.3087851761635025E-024
  -3.6999999999999998E-002     4.5543484386623427E-024
  -3.6950000000000004E-002     6.2603100493326553E-024
  -3.6900000000000002E-002     6.0729591652786860E-024
  -3.6850000000000001E-002     2.7029784385536806E-024
  -3.6799999999999999E-002    -4.2851890134050720E-024
  -3.6749999999999998E-002    -1.3673372975983331E-023
  -3.6700000000000003E-002    -2.2279074733853359E-023
  -3.6650000000000002E-002    -2.5639097886563915E-023
  -3.6600000000000001E-002    -1.9854124277518581E-023
  -3.6549999999999999E-002    -4.0891679929146796E-024
  -3.6499999999999998E-002     1.7525695761106415E-023
  -3.6450000000000003E-002     3.6200373666471320E-023
  -3.6400000000000002E-002     4.2050122468050715E-023
  -3.6350000000000000E-002     3.0342686386064904E-023
  -3.6299999999999999E-002     7.6115659346282997E-024
  -3.6249999999999998E-002    -6.8202530768720149E-024
  -3.6200000000000003E-002     1.2115295241311313E-023
  -3.6150000000000002E-002     7.9191442069835694E-023
  -3.6100000000000000E-002     1.7943678643038040E-022
  -3.6049999999999999E-002     2.5666142531725873E-022
  -3.6000000000000004E-002     2.2285208939993839E-022
  -3.5950000000000003E-002    -4.9364609608653750E-024
  -3.5900000000000001E-002    -4.4777880549872884E-022
  -3.5850000000000000E-002    -1.0128532484478699E-021
  -3.5799999999999998E-002    -1.4811824443266901E-021
  -3.5750000000000004E-002    -1.5633392298323255E-021
  -3.5700000000000003E-002    -1.0230929876279487E-021
  -3.5650000000000001E-002     1.7318051084260106E-022
  -3.5600000000000000E-002     1.7592056787758052E-021
  -3.5549999999999998E-002     3.2045865609535625E-021
  -3.5500000000000004E-002     3.9173642262552984E-021
  -3.5450000000000002E-002     3.5560423728902414E-021
  -3.5400000000000001E-002     2.2972011790075538E-021
  -3.5349999999999999E-002     8.6294662493740304E-022
  -3.5299999999999998E-002     1.7893219966278379E-022
  -3.5250000000000004E-002     7.1796004136919341E-022
  -3.5200000000000002E-002     1.8242579485049056E-021
  -3.5150000000000001E-002     1.4820998790195983E-021
  -3.5099999999999999E-002    -3.0534245852751172E-021
  -3.5049999999999998E-002    -1.3682272941978974E-020
  -3.5000000000000003E-002    -2.9419957094308126E-020
  -3.4950000000000002E-002    -4.4916922388631921E-020
  -3.4900000000000000E-002    -5.0758795306227049E-020
  -3.4849999999999999E-002    -3.6340520314092257E-020
  -3.4799999999999998E-002     4.9815707636449577E-021
  -3.4750000000000003E-002     7.0171902744172968E-020
  -3.4700000000000002E-002     1.4303107674303289E-019
  -3.4650000000000000E-002     1.9576554283946580E-019
  -3.4599999999999999E-002     1.9695469425200398E-019
  -3.4549999999999997E-002     1.2450093952054151E-019
  -3.4500000000000003E-002    -2.0901146030419276E-020
  -3.4450000000000001E-002    -2.0808819913481884E-019
  -3.4400000000000000E-002    -3.7913564976572951E-019
  -3.4349999999999999E-002    -4.6627867912363829E-019
  -3.4299999999999997E-002    -4.1802650460810996E-019
  -3.4250000000000003E-002    -2.2483994836285888E-019
  -3.4200000000000001E-002     6.7727634862805429E-020
  -3.4150000000000000E-002     3.6771088517048163E-019
  -3.4099999999999998E-002     5.6835220458499631E-019
  -3.4049999999999997E-002     5.9288993984204323E-019
  -3.4000000000000002E-002     4.3385770826130593E-019
  -3.3950000000000001E-002     1.6633766609433524E-019
  -3.3900000000000000E-002    -7.7496252176034070E-020
  -3.3849999999999998E-002    -1.6890211412385909E-019
  -3.3799999999999997E-002    -5.5734676366007925E-020
  -3.3750000000000002E-002     1.8671559960909728E-019
  -3.3700000000000001E-002     3.6056070675901928E-019
  -3.3649999999999999E-002     2.2041757324330783E-019
  -3.3599999999999998E-002    -3.9796474104620858E-019
  -3.3550000000000003E-002    -1.4443364470235390E-018
  -3.3500000000000002E-002    -2.5821617476624940E-018
  -3.3450000000000001E-002    -3.2355462858932055E-018
  -3.3399999999999999E-002    -2.7732430224357475E-018
  -3.3349999999999998E-002    -7.8983102995954291E-019
  -3.3300000000000003E-002     2.6122595239068813E-018
  -3.3250000000000002E-002     6.6651799332087691E-018
  -3.3200000000000000E-002     1.0009900345811634E-017
  -3.3149999999999999E-002     1.1041149578395236E-017
  -3.3099999999999997E-002     8.4601892636859264E-018
  -3.3050000000000003E-002     1.8722812367845884E-018
  -3.3000000000000002E-002    -7.7917659343678667E-018
  -3.2950000000000000E-002    -1.8233357064938899E-017
  -3.2899999999999999E-002    -2.6226773904288964E-017
  -3.2850000000000004E-002    -2.8487736571742463E-017
  -3.2800000000000003E-002    -2.2748168509315925E-017
  -3.2750000000000001E-002    -8.7030633349914804E-018
  -3.2700000000000000E-002     1.1512396954011915E-017
  -3.2649999999999998E-002     3.3542707503300796E-017
  -3.2600000000000004E-002     5.1746428436266091E-017
  -3.2550000000000003E-002     6.0624455648205032E-017
  -3.2500000000000001E-002     5.6339943172910510E-017
  -3.2450000000000000E-002     3.7874257469561282E-017
  -3.2399999999999998E-002     7.4669643587652140E-018
  -3.2350000000000004E-002    -2.9782355034588514E-017
  -3.2300000000000002E-002    -6.6999391089876930E-017
  -3.2250000000000001E-002    -9.6945391555622212E-017
  -3.2199999999999999E-002    -1.1332778758849551E-016
  -3.2149999999999998E-002    -1.1169880811276811E-016
  -3.2100000000000004E-002    -8.9868025955551003E-017
  -3.2050000000000002E-002    -4.8004750512781392E-017
  -3.2000000000000001E-002     1.1261165059649751E-017
  -3.1949999999999999E-002     8.2505232710410236E-017
  -3.1899999999999998E-002     1.5698098088422237E-016
  -3.1850000000000003E-002     2.2230247747331474E-016
  -3.1800000000000002E-002     2.6300238303457997E-016
  -3.1750000000000000E-002     2.6260656658324844E-016
  -3.1699999999999999E-002     2.0745506068219764E-016
  -3.1649999999999998E-002     9.1768619029020065E-017
  -3.1600000000000003E-002    -7.7356575844499032E-017
  -3.1550000000000002E-002    -2.7690392555171434E-016
  -3.1500000000000000E-002    -4.6869677053496947E-016
  -3.1449999999999999E-002    -6.0505496242605054E-016
  -3.1399999999999997E-002    -6.3903388168761107E-016
  -3.1350000000000003E-002    -5.3727332957044053E-016
  -3.1300000000000001E-002    -2.9213432508365928E-016
  -3.1250000000000000E-002     7.0679572633115027E-017
  -3.1199999999999999E-002     4.9210868379891940E-016
  -3.1150000000000001E-002     8.8857749114615060E-016
  -3.1100000000000003E-002     1.1684389344996323E-015
  -3.1050000000000001E-002     1.2524032355184921E-015
  -3.1000000000000000E-002     1.0929021297299438E-015
  -3.0949999999999998E-002     6.8739737545260556E-016
  -3.0900000000000000E-002     8.2242897759552225E-017
  -3.0850000000000002E-002    -6.3365883623427449E-016
  -3.0800000000000001E-002    -1.3434081967638975E-015
  -3.0750000000000000E-002    -1.9209727799138619E-015
  -3.0699999999999998E-002    -2.2500985549775256E-015
  -3.0650000000000000E-002    -2.2402031572279371E-015
  -3.0600000000000002E-002    -1.8383324223248772E-015
  -3.0550000000000001E-002    -1.0382409178664282E-015
  -3.0499999999999999E-002     1.1164252441916987E-016
  -3.0449999999999998E-002     1.5007955256406717E-015
  -3.0400000000000000E-002     2.9519584351919585E-015
  -3.0350000000000002E-002     4.2246749092472444E-015
  -3.0300000000000001E-002     5.0341731446993593E-015
  -3.0249999999999999E-002     5.0913764180195822E-015
  -3.0200000000000001E-002     4.1645746833393331E-015
  -3.0150000000000000E-002     2.1549155392795672E-015
  -3.0100000000000002E-002    -8.3126296397133276E-016
  -3.0050000000000000E-002    -4.4367035341996034E-015
  -2.9999999999999999E-002    -8.0579391868470171E-015
  -2.9950000000000001E-002    -1.0916568528253232E-014
  -2.9899999999999999E-002    -1.2197795137289522E-014
  -2.9850000000000002E-002    -1.1236999060723596E-014
  -2.9800000000000000E-002    -7.7161111964364791E-015
  -2.9749999999999999E-002    -1.8197721875888013E-015
  -2.9700000000000001E-002     5.6982957455756794E-015
  -2.9650000000000003E-002     1.3573572573312943E-014
  -2.9600000000000001E-002     2.0221621152419043E-014
  -2.9550000000000000E-002     2.4036459378896012E-014
  -2.9499999999999998E-002     2.3740627858368224E-014
  -2.9450000000000000E-002     1.8711529794907006E-014
  -2.9400000000000003E-002     9.2062584632302569E-015
  -2.9350000000000001E-002    -3.5761973667133433E-015
  -2.9300000000000000E-002    -1.7624039905497474E-014
  -2.9249999999999998E-002    -3.0421141111726769E-014
  -2.9200000000000000E-002    -3.9383992769951069E-014
  -2.9150000000000002E-002    -4.2347864515193739E-014
  -2.9100000000000001E-002    -3.8011283434963675E-014
  -2.9049999999999999E-002    -2.6254724651857971E-014
  -2.8999999999999998E-002    -8.2716030280369346E-015
  -2.8950000000000000E-002     1.3518244680747959E-014
  -2.8900000000000002E-002     3.5767544638114883E-014
  -2.8850000000000001E-002     5.4676056193209773E-014
  -2.8799999999999999E-002     6.6578016431291521E-014
  -2.8749999999999998E-002     6.8562654458625570E-014
  -2.8700000000000000E-002     5.9038538485170073E-014
  -2.8650000000000002E-002     3.8151707002622561E-014
  -2.8600000000000000E-002     7.9763830943931544E-015
  -2.8549999999999999E-002    -2.7582311155576644E-014
  -2.8500000000000001E-002    -6.3200214533374188E-014
  -2.8450000000000000E-002    -9.2840486622472709E-014
  -2.8400000000000002E-002    -1.1068003326039092E-013
  -2.8350000000000000E-002    -1.1212865708612148E-013
  -2.8299999999999999E-002    -9.4774712237330539E-014
  -2.8250000000000001E-002    -5.9078285649643047E-014
  -2.8200000000000003E-002    -8.6549038131248409E-015
  -2.8150000000000001E-002     4.9950313463686513E-014
  -2.8100000000000000E-002     1.0801437574137775E-013
  -2.8049999999999999E-002     1.5583586165699396E-013
  -2.8000000000000001E-002     1.8421856307818405E-013
  -2.7950000000000003E-002     1.8601775698824443E-013
  -2.7900000000000001E-002     1.5750777974844730E-013
  -2.7850000000000000E-002     9.9349297908463472E-014
  -2.7799999999999998E-002     1.6987638521463496E-014
  -2.7750000000000000E-002    -7.9615615413926203E-014
  -2.7700000000000002E-002    -1.7693697702069573E-013
  -2.7650000000000001E-002    -2.5947481267566401E-013
  -2.7600000000000000E-002    -3.1183363731725162E-013
  -2.7549999999999998E-002    -3.2110771402947808E-013
  -2.7500000000000000E-002    -2.7929028242834228E-013
  -2.7450000000000002E-002    -1.8536471343511680E-013
  -2.7400000000000001E-002    -4.6686326729285492E-014
  -2.7349999999999999E-002     1.2073767610855904E-013
  -2.7299999999999998E-002     2.9338500753661676E-013
  -2.7250000000000000E-002     4.4291068508904273E-013
  -2.7200000000000002E-002     5.4026232810286524E-013
  -2.7150000000000001E-002     5.6075381036225550E-013
  -2.7099999999999999E-002     4.8930751492784733E-013
  -2.7049999999999998E-002     3.2484673542834111E-013
  -2.7000000000000000E-002     8.2776478341477279E-014
  -2.6950000000000002E-002    -2.0531603938455267E-013
  -2.6900000000000000E-002    -4.9516437134294190E-013
  -2.6849999999999999E-002    -7.3632909465820063E-013
  -2.6800000000000001E-002    -8.8081935461413433E-013
  -2.6749999999999999E-002    -8.9235676757218286E-013
  -2.6700000000000002E-002    -7.5447576484553637E-013
  -2.6650000000000000E-002    -4.7569367578726659E-013
  -2.6599999999999999E-002    -9.0418662208938516E-014
  -2.6550000000000001E-002     3.4496977623072446E-013
  -2.6500000000000003E-002     7.6048273059439087E-013
  -2.6450000000000001E-002     1.0840197336245600E-012
  -2.6400000000000000E-002     1.2540018351875018E-012
  -2.6349999999999998E-002     1.2308363085818330E-012
  -2.6300000000000000E-002     1.0050647514939276E-012
  -2.6250000000000002E-002     6.0062481344277271E-013
  -2.6200000000000001E-002     7.2531409909404014E-014
  -2.6150000000000000E-002    -5.0072885384301991E-013
  -2.6099999999999998E-002    -1.0288965265548839E-012
  -2.6050000000000000E-002    -1.4238787255512123E-012
  -2.6000000000000002E-002    -1.6137607965353005E-012
  -2.5950000000000001E-002    -1.5547629147041138E-012
  -2.5899999999999999E-002    -1.2393649191875621E-012
  -2.5849999999999998E-002    -6.9938768402855702E-013
  -2.5800000000000000E-002    -3.5084076727648819E-015
  -2.5750000000000002E-002     7.5060472045441307E-013
  -2.5700000000000001E-002     1.4486846041989967E-012
  -2.5649999999999999E-002     1.9753576810691615E-012
  -2.5599999999999998E-002     2.2308681474935001E-012
  -2.5550000000000000E-002     2.1469006344425494E-012
  -2.5500000000000002E-002     1.6993126840353442E-012
  -2.5450000000000000E-002     9.1579727403682314E-013
  -2.5399999999999999E-002    -1.2303039453353094E-013
  -2.5349999999999998E-002    -1.2898867508946851E-012
  -2.5300000000000000E-002    -2.4242506117695194E-012
  -2.5250000000000002E-002    -3.3517964360146561E-012
  -2.5200000000000000E-002    -3.9077039709497064E-012
  -2.5149999999999999E-002    -3.9609815859331875E-012
  -2.5100000000000001E-002    -3.4365343050965136E-012
  -2.5049999999999999E-002    -2.3317113052026525E-012
  -2.5000000000000001E-002    -7.2453024699523400E-013
  -2.4950000000000000E-002     1.2283917092126378E-012
  -2.4899999999999999E-002     3.3049664165307943E-012
  -2.4850000000000001E-002     5.2411919596337922E-012
  -2.4800000000000003E-002     6.7630047301646876E-012
  -2.4750000000000001E-002     7.6228829677964068E-012
  -2.4700000000000000E-002     7.6365052449451714E-012
  -2.4649999999999998E-002     6.7141117287364747E-012
  -2.4600000000000000E-002     4.8812685913767413E-012
  -2.4550000000000002E-002     2.2846468840006675E-012
  -2.4500000000000001E-002    -8.1974074058842535E-013
  -2.4450000000000000E-002    -4.0957695139197741E-012
  -2.4399999999999998E-002    -7.1707510032502237E-012
  -2.4350000000000000E-002    -9.6871403299793402E-012
  -2.4299999999999999E-002    -1.1353987620377153E-011
  -2.4250000000000001E-002    -1.1988765135001262E-011
  -2.4199999999999999E-002    -1.1541067345874056E-011
  -2.4150000000000001E-002    -1.0092378737568172E-011
  -2.4100000000000000E-002    -7.8303154430269126E-012
  -2.4049999999999998E-002    -5.0007332000030943E-012
  -2.4000000000000000E-002    -1.8457853476078426E-012
  -2.3949999999999999E-002     1.4605681264547633E-012
  -2.3900000000000001E-002     4.8669495697703761E-012
  -2.3850000000000000E-002     8.4775459637352303E-012
  -2.3800000000000002E-002     1.2556190866085344E-011
  -2.3750000000000000E-002     1.7499465414950895E-011
  -2.3699999999999999E-002     2.3782663934486437E-011
  -2.3650000000000001E-002     3.1887689586940049E-011
  -2.3599999999999999E-002     4.2225156263982699E-011
  -2.3550000000000001E-002     5.5063951516806059E-011
  -2.3500000000000000E-002     7.0479735161606232E-011
  -2.3449999999999999E-002     8.8330334006875802E-011
  -2.3400000000000001E-002     1.0826115235134495E-010
  -2.3349999999999999E-002     1.2973892138438514E-010
  -2.3300000000000001E-002     1.5210824008924139E-010
  -2.3250000000000000E-002     1.7466273597316546E-010
  -2.3199999999999998E-002     1.9672152482489371E-010
  -2.3150000000000000E-002     2.1770202519637310E-010
  -2.3099999999999999E-002     2.3718120204123982E-010
  -2.3050000000000001E-002     2.5493912416604579E-010
  -2.3000000000000000E-002     2.7098015710284030E-010
  -2.2950000000000002E-002     2.8552957795840444E-010
  -2.2900000000000000E-002     2.9900515451834344E-010
  -2.2849999999999999E-002     3.1196592693655860E-010
  -2.2800000000000001E-002     3.2504257897280025E-010
  -2.2749999999999999E-002     3.3885750042816521E-010
  -2.2700000000000001E-002     3.5394354381210535E-010
  -2.2650000000000000E-002     3.7067302110355032E-010
  -2.2599999999999999E-002     3.8920666847092629E-010
  -2.2550000000000001E-002     4.0947172610433059E-010
  -2.2499999999999999E-002     4.3117306754336643E-010
  -2.2450000000000001E-002     4.5383713724904340E-010
  -2.2400000000000000E-002     4.7688298407669704E-010
  -2.2349999999999998E-002     4.9971038659455377E-010
  -2.2300000000000000E-002     5.2179235525614781E-010
  -2.2249999999999999E-002     5.4275776741554923E-010
  -2.2200000000000001E-002     5.6245164961793217E-010
  -2.2150000000000000E-002     5.8096493013492088E-010
  -2.2100000000000002E-002     5.9862762548112640E-010
  -2.2050000000000000E-002     6.1596755630042962E-010
  -2.1999999999999999E-002     6.3363839327681888E-010
  -2.1950000000000001E-002     6.5232841960523690E-010
  -2.1899999999999999E-002     6.7266138643081246E-010
  -2.1850000000000001E-002     6.9510423851185770E-010
  -2.1800000000000000E-002     7.1989627477746062E-010
  -2.1749999999999999E-002     7.4701013179323001E-010
  -2.1700000000000001E-002     7.7615341356652057E-010
  -2.1649999999999999E-002     8.0681216046413232E-010
  -2.1600000000000001E-002     8.3833187688998405E-010
  -2.1550000000000000E-002     8.7002378910617436E-010
  -2.1499999999999998E-002     9.0128007980053083E-010
  -2.1450000000000000E-002     9.3167853143031698E-010
  -2.1399999999999999E-002     9.6105720040746289E-010
  -2.1350000000000001E-002     9.8954513552436127E-010
  -2.1299999999999999E-002     1.0175432809449146E-009
  -2.1250000000000002E-002     1.0456568870894447E-009
  -2.1200000000000000E-002     1.0745935265646303E-009
  -2.1149999999999999E-002     1.1050443873257574E-009
  -2.1100000000000001E-002     1.1375730424513981E-009
  -2.1049999999999999E-002     1.1725295976086020E-009
  -2.1000000000000001E-002     1.2100082274326858E-009
  -2.0950000000000000E-002     1.2498511890912779E-009
  -2.0899999999999998E-002     1.2916981726035329E-009
  -2.0850000000000000E-002     1.3350676701332873E-009
  -2.0799999999999999E-002     1.3794541825647120E-009
  -2.0750000000000001E-002     1.4244235977578738E-009
  -2.0700000000000000E-002     1.4696893408987084E-009
  -2.0649999999999998E-002     1.5151595786155939E-009
  -2.0600000000000000E-002     1.5609506870021631E-009
  -2.0549999999999999E-002     1.6073665385941713E-009
  -2.0500000000000001E-002     1.6548503789635247E-009
  -2.0449999999999999E-002     1.7039161419763163E-009
  -2.0400000000000001E-002     1.7550696270212763E-009
  -2.0350000000000000E-002     1.8087307152453201E-009
  -2.0299999999999999E-002     1.8651648187991899E-009
  -2.0250000000000001E-002     1.9244348278219672E-009
  -2.0199999999999999E-002     1.9863834235478391E-009
  -2.0150000000000001E-002     2.0506479312381581E-009
  -2.0100000000000000E-002     2.1167139677124580E-009
  -2.0049999999999998E-002     2.1839972008170318E-009
  -2.0000000000000000E-002     2.2519488149308713E-009
  -1.9949999999999999E-002     2.3201612288872000E-009
  -1.9900000000000001E-002     2.3884604311283925E-009
  -1.9850000000000000E-002     2.4569621140317534E-009
  -1.9799999999999998E-002     2.5260832236349897E-009
  -1.9750000000000000E-002     2.5964982123151718E-009
  -1.9699999999999999E-002     2.6690499830375204E-009
  -1.9650000000000001E-002     2.7446291943238664E-009
  -1.9599999999999999E-002     2.8240426604591290E-009
  -1.9550000000000001E-002     2.9078962961996497E-009
  -1.9500000000000000E-002     2.9965113554771893E-009
  -1.9449999999999999E-002     3.0898875876944671E-009
  -1.9400000000000001E-002     3.1877156969834420E-009
  -1.9349999999999999E-002     3.2894337055861118E-009
  -1.9300000000000001E-002     3.3943139496299765E-009
  -1.9250000000000000E-002     3.5015688454485272E-009
  -1.9199999999999998E-002     3.6104580880618760E-009
  -1.9150000000000000E-002     3.7203861042369868E-009
  -1.9099999999999999E-002     3.8309830617942043E-009
  -1.9050000000000001E-002     3.9421596411155329E-009
  -1.9000000000000000E-002     4.0541382635025246E-009
  -1.8949999999999998E-002     4.1674462907316565E-009
  -1.8900000000000000E-002     4.2828769465888245E-009
  -1.8849999999999999E-002     4.4014099334958955E-009
  -1.8800000000000001E-002     4.5241022408519755E-009
  -1.8749999999999999E-002     4.6519606478410428E-009
  -1.8700000000000001E-002     4.7858066842270854E-009
  -1.8650000000000000E-002     4.9261642832322069E-009
  -1.8599999999999998E-002     5.0731872629405983E-009
  -1.8550000000000001E-002     5.2266392423556139E-009
  -1.8499999999999999E-002     5.3859432283848312E-009
  -1.8450000000000001E-002     5.5502887258869617E-009
  -1.8400000000000000E-002     5.7187772695389002E-009
  -1.8349999999999998E-002     5.8905826055093353E-009
  -1.8300000000000000E-002     6.0650910729753701E-009
  -1.8249999999999999E-002     6.2419993387832675E-009
  -1.8200000000000001E-002     6.4213547190285495E-009
  -1.8149999999999999E-002     6.6035344298460881E-009
  -1.8100000000000002E-002     6.7891787271410014E-009
  -1.8050000000000000E-002     6.9790908042623136E-009
  -1.7999999999999999E-002     7.1741329547427000E-009
  -1.7950000000000001E-002     7.3751271388924226E-009
  -1.7899999999999999E-002     7.5827792874442618E-009
  -1.7850000000000001E-002     7.7976252736504389E-009
  -1.7800000000000000E-002     8.0200014437439632E-009
  -1.7749999999999998E-002     8.2500303139038498E-009
  -1.7700000000000000E-002     8.4876196937047031E-009
  -1.7649999999999999E-002     8.7324883919949102E-009
  -1.7600000000000001E-002     8.9841998742929078E-009
  -1.7550000000000000E-002     9.2422281076330151E-009
  -1.7499999999999998E-002     9.5060402769678264E-009
  -1.7450000000000000E-002     9.7752022969162506E-009
  -1.7399999999999999E-002     1.0049470721831193E-008
  -1.7350000000000001E-002     1.0328876465388473E-008
  -1.7299999999999999E-002     1.0613762048173652E-008
  -1.7250000000000001E-002     1.0904760364735799E-008
  -1.7200000000000000E-002     1.1202723692964715E-008
  -1.7149999999999999E-002     1.1508613259419945E-008
  -1.7100000000000001E-002     1.1823363903268680E-008
  -1.7049999999999999E-002     1.2147774007998840E-008
  -1.7000000000000001E-002     1.2482420886654838E-008
  -1.6950000000000000E-002     1.2827639721907536E-008
  -1.6899999999999998E-002     1.3183550016313970E-008
  -1.6850000000000000E-002     1.3550122922256682E-008
  -1.6799999999999999E-002     1.3927275060476738E-008
  -1.6750000000000001E-002     1.4314937432883896E-008
  -1.6700000000000000E-002     1.4713109495502858E-008
  -1.6649999999999998E-002     1.5121872452907710E-008
  -1.6600000000000000E-002     1.5541362490024187E-008
  -1.6549999999999999E-002     1.5971730962083416E-008
  -1.6500000000000001E-002     1.6413100433171334E-008
  -1.6449999999999999E-002     1.6865535817570634E-008
  -1.6400000000000001E-002     1.7329053467982530E-008
  -1.6350000000000000E-002     1.7803638952475555E-008
  -1.6299999999999999E-002     1.8289288203958458E-008
  -1.6250000000000001E-002     1.8786036957077663E-008
  -1.6199999999999999E-002     1.9293976396107943E-008
  -1.6150000000000001E-002     1.9813258415383885E-008
  -1.6100000000000000E-002     2.0344087389218261E-008
  -1.6049999999999998E-002     2.0886707604434992E-008
  -1.6000000000000000E-002     2.1441410158799498E-008
  -1.5949999999999999E-002     2.2008541614103577E-008
  -1.5900000000000001E-002     2.2588542028926834E-008
  -1.5850000000000000E-002     2.3181968325450941E-008
  -1.5799999999999998E-002     2.3789498694848025E-008
  -1.5750000000000000E-002     2.4411923580996299E-008
  -1.5699999999999999E-002     2.5050083323412319E-008
  -1.5650000000000001E-002     2.5704796799363619E-008
  -1.5599999999999999E-002     2.6376760697462005E-008
  -1.5550000000000001E-002     2.7066472991998302E-008
  -1.5500000000000000E-002     2.7774197243105577E-008
  -1.5449999999999998E-002     2.8499979259343919E-008
  -1.5400000000000000E-002     2.9243736442906397E-008
  -1.5349999999999999E-002     3.0005378077231165E-008
  -1.5300000000000001E-002     3.0784940519602311E-008
  -1.5250000000000000E-002     3.1582706651983247E-008
  -1.5199999999999998E-002     3.2399281746620975E-008
  -1.5150000000000000E-002     3.3235579459279914E-008
  -1.5099999999999999E-002     3.4092753544867559E-008
  -1.5050000000000001E-002     3.4972089714686388E-008
  -1.4999999999999999E-002     3.5874874327493756E-008
  -1.4949999999999998E-002     3.6802263391601340E-008
  -1.4900000000000000E-002     3.7755206873513132E-008
  -1.4849999999999999E-002     3.8734412090422997E-008
  -1.4800000000000001E-002     3.9740335739780492E-008
  -1.4749999999999999E-002     4.0773193808999119E-008
  -1.4700000000000001E-002     4.1833021183262392E-008
  -1.4650000000000000E-002     4.2919682012145779E-008
  -1.4599999999999998E-002     4.4032907857897033E-008
  -1.4550000000000000E-002     4.5172315398850252E-008
  -1.4499999999999999E-002     4.6337422247756246E-008
  -1.4450000000000001E-002     4.7527672747475688E-008
  -1.4400000000000000E-002     4.8742495405855211E-008
  -1.4349999999999998E-002     4.9981334636696339E-008
  -1.4300000000000000E-002     5.1243739239086522E-008
  -1.4249999999999999E-002     5.2529419643224834E-008
  -1.4200000000000001E-002     5.3838295772496066E-008
  -1.4149999999999999E-002     5.5170546311920100E-008
  -1.4099999999999998E-002     5.6526599257851475E-008
  -1.4050000000000000E-002     5.7907159241323205E-008
  -1.3999999999999999E-002     5.9313176666839869E-008
  -1.3950000000000001E-002     6.0745873930971261E-008
  -1.3899999999999999E-002     6.2206730885777620E-008
  -1.3850000000000001E-002     6.3697518953481819E-008
  -1.3800000000000000E-002     6.5220254486100316E-008
  -1.3749999999999998E-002     6.6777157162097029E-008
  -1.3700000000000000E-002     6.8370560842723392E-008
  -1.3649999999999999E-002     7.0002838051759155E-008
  -1.3600000000000001E-002     7.1676253176701916E-008
  -1.3550000000000000E-002     7.3392874968933304E-008
  -1.3499999999999998E-002     7.5154479791779681E-008
  -1.3450000000000000E-002     7.6962538386782115E-008
  -1.3399999999999999E-002     7.8818255212224896E-008
  -1.3350000000000001E-002     8.0722643490701502E-008
  -1.3299999999999999E-002     8.2676642152306084E-008
  -1.3249999999999998E-002     8.4681224380459507E-008
  -1.3200000000000000E-002     8.6737407796141168E-008
  -1.3149999999999998E-002     8.8846251569375598E-008
  -1.3100000000000001E-002     9.1008815063965912E-008
  -1.3049999999999999E-002     9.3226085907062471E-008
  -1.3000000000000001E-002     9.5498917383257385E-008
  -1.2950000000000000E-002     9.7827987716856808E-008
  -1.2899999999999998E-002     1.0021379186292574E-007
  -1.2850000000000000E-002     1.0265660632027464E-007
  -1.2799999999999999E-002     1.0515648585779425E-007