  -4.0000000000000001E-002     0.0000000000000000     
  -3.9949999999999999E-002     0.0000000000000000     
  -3.9899999999999998E-002     0.0000000000000000     
  -3.9850000000000003E-002     0.0000000000000000     
  -3.9800000000000002E-002     0.0000000000000000     
  -3.9750000000000001E-002     0.0000000000000000     
  -3.9699999999999999E-002     0.0000000000000000     
  -3.9649999999999998E-002     0.0000000000000000     
  -3.9600000000000003E-002     0.0000000000000000     
  -3.9550000000000002E-002     0.0000000000000000     
  -3.9500000000000000E-002     0.0000000000000000     
  -3.9449999999999999E-002     0.0000000000000000     
  -3.9399999999999998E-002     0.0000000000000000     
  -3.9350000000000003E-002     0.0000000000000000     
  -3.9300000000000002E-002     0.0000000000000000     
  -3.9250000000000000E-002     0.0000000000000000     
  -3.9199999999999999E-002     0.0000000000000000     
  -3.9150000000000004E-002     0.0000000000000000     
  -3.9100000000000003E-002     0.0000000000000000     
  -3.9050000000000001E-002     0.0000000000000000     
  -3.9000000000000000E-002     0.0000000000000000     
  -3.8949999999999999E-002     0.0000000000000000     
  -3.8900000000000004E-002     0.0000000000000000     
  -3.8850000000000003E-002     0.0000000000000000     
  -3.8800000000000001E-002     0.0000000000000000     
  -3.8750000000000000E-002     0.0000000000000000     
  -3.8699999999999998E-002     0.0000000000000000     
  -3.8650000000000004E-002     0.0000000000000000     
  -3.8600000000000002E-002     0.0000000000000000     
  -3.8550000000000001E-002     0.0000000000000000     
  -3.8500000000000000E-002     0.0000000000000000     
  -3.8449999999999998E-002     0.0000000000000000     
  -3.8400000000000004E-002     0.0000000000000000     
  -3.8350000000000002E-002     0.0000000000000000     
  -3.8300000000000001E-002     0.0000000000000000     
  -3.8249999999999999E-002     0.0000000000000000     
  -3.8199999999999998E-002     0.0000000000000000     
  -3.8150000000000003E-002     0.0000000000000000     
  -3.8100000000000002E-002     0.0000000000000000     
  -3.8050000000000000E-002     0.0000000000000000     
  -3.7999999999999999E-002     0.0000000000000000     
  -3.7949999999999998E-002     0.0000000000000000     
  -3.7900000000000003E-002     0.0000000000000000     
  -3.7850000000000002E-002     0.0000000000000000     
  -3.7800000000000000E-002     0.0000000000000000     
  -3.7749999999999999E-002     0.0000000000000000     
  -3.7699999999999997E-002     0.0000000000000000     
  -3.7650000000000003E-002     0.0000000000000000     
  -3.7600000000000001E-002     0.0000000000000000     
  -3.7550000000000000E-002     0.0000000000000000     
  -3.7499999999999999E-002     0.0000000000000000     
  -3.7449999999999997E-002     0.0000000000000000     
  -3.7400000000000003E-002     0.0000000000000000     
  -3.7350000000000001E-002     0.0000000000000000     
  -3.7300000000000000E-002     0.0000000000000000     
  -3.7249999999999998E-002     0.0000000000000000     
  -3.7200000000000004E-002     0.0000000000000000     
  -3.7150000000000002E-002     0.0000000000000000     
  -3.7100000000000001E-002     0.0000000000000000     
  -3.7050000000000000E-002     0.0000000000000000     
  -3.6999999999999998E-002     0.0000000000000000     
  -3.6950000000000004E-002     0.0000000000000000     
  -3.6900000000000002E-002     0.0000000000000000     
  -3.6850000000000001E-002     0.0000000000000000     
  -3.6799999999999999E-002     0.0000000000000000     
  -3.6749999999999998E-002     0.0000000000000000     
  -3.6700000000000003E-002     0.0000000000000000     
  -3.6650000000000002E-002     0.0000000000000000     
  -3.6600000000000001E-002     0.0000000000000000     
  -3.6549999999999999E-002     0.0000000000000000     
  -3.6499999999999998E-002     0.0000000000000000     
  -3.6450000000000003E-002     0.0000000000000000     
  -3.6400000000000002E-002     0.0000000000000000     
  -3.6350000000000000E-002     0.0000000000000000     
  -3.6299999999999999E-002     0.0000000000000000     
  -3.6249999999999998E-002     0.0000000000000000     
  -3.6200000000000003E-002     0.0000000000000000     
  -3.6150000000000002E-002     0.0000000000000000     
  -3.6100000000000000E-002     0.0000000000000000     
  -3.6049999999999999E-002     0.0000000000000000     
  -3.6000000000000004E-002     0.0000000000000000     
  -3.5950000000000003E-002     0.0000000000000000     
  -3.5900000000000001E-002     0.0000000000000000     
  -3.5850000000000000E-002     0.0000000000000000     
  -3.5799999999999998E-002     0.0000000000000000     
  -3.5750000000000004E-002     0.0000000000000000     
  -3.5700000000000003E-002     0.0000000000000000     
  -3.5650000000000001E-002     0.0000000000000000     
  -3.5600000000000000E-002     0.0000000000000000     
  -3.5549999999999998E-002     0.0000000000000000     
  -3.5500000000000004E-002     0.0000000000000000     
  -3.5450000000000002E-002     0.0000000000000000     
  -3.5400000000000001E-002     0.0000000000000000     
  -3.5349999999999999E-002     0.0000000000000000     
  -3.5299999999999998E-002     0.0000000000000000     
  -3.5250000000000004E-002     0.0000000000000000     
  -3.5200000000000002E-002     0.0000000000000000     
  -3.5150000000000001E-002     0.0000000000000000     
  -3.5099999999999999E-002     0.0000000000000000     
  -3.5049999999999998E-002     0.0000000000000000     
  -3.5000000000000003E-002     0.0000000000000000     
  -3.4950000000000002E-002     0.0000000000000000     
  -3.4900000000000000E-002     0.0000000000000000     
  -3.4849999999999999E-002     0.0000000000000000     
  -3.4799999999999998E-002     0.0000000000000000     
  -3.4750000000000003E-002     0.0000000000000000     
  -3.4700000000000002E-002     0.0000000000000000     
  -3.4650000000000000E-002     0.0000000000000000     
  -3.4599999999999999E-002     0.0000000000000000     
  -3.4549999999999997E-002     0.0000000000000000     
  -3.4500000000000003E-002     0.0000000000000000     
  -3.4450000000000001E-002     0.0000000000000000     
  -3.4400000000000000E-002     0.0000000000000000     
  -3.4349999999999999E-002     0.0000000000000000     
  -3.4299999999999997E-002     0.0000000000000000     
  -3.4250000000000003E-002     0.0000000000000000     
  -3.4200000000000001E-002     0.0000000000000000     
  -3.4150000000000000E-002     0.0000000000000000     
  -3.4099999999999998E-002     0.0000000000000000     
  -3.4049999999999997E-002     0.0000000000000000     
  -3.4000000000000002E-002     0.0000000000000000     
  -3.3950000000000001E-002     0.0000000000000000     
  -3.3900000000000000E-002     0.0000000000000000     
  -3.3849999999999998E-002     0.0000000000000000     
  -3.3799999999999997E-002     0.0000000000000000     
  -3.3750000000000002E-002     0.0000000000000000     
  -3.3700000000000001E-002     0.0000000000000000     
  -3.3649999999999999E-002     0.0000000000000000     
  -3.3599999999999998E-002     0.0000000000000000     
  -3.3550000000000003E-002     0.0000000000000000     
  -3.3500000000000002E-002     0.0000000000000000     
  -3.3450000000000001E-002     0.0000000000000000     
  -3.3399999999999999E-002     0.0000000000000000     
  -3.3349999999999998E-002     0.0000000000000000     
  -3.3300000000000003E-002     0.0000000000000000     
  -3.3250000000000002E-002     0.0000000000000000     
  -3.3200000000000000E-002     0.0000000000000000     
  -3.3149999999999999E-002     0.0000000000000000     
  -3.3099999999999997E-002     0.0000000000000000     
  -3.3050000000000003E-002     0.0000000000000000     
  -3.3000000000000002E-002     0.0000000000000000     
  -3.2950000000000000E-002     0.0000000000000000     
  -3.2899999999999999E-002     0.0000000000000000     
  -3.2850000000000004E-002     0.0000000000000000     
  -3.2800000000000003E-002     0.0000000000000000     
  -3.2750000000000001E-002     0.0000000000000000     
  -3.2700000000000000E-002     0.0000000000000000     
  -3.2649999999999998E-002     0.0000000000000000     
  -3.2600000000000004E-002     0.0000000000000000     
  -3.2550000000000003E-002     0.0000000000000000     
  -3.2500000000000001E-002     0.0000000000000000     
  -3.2450000000000000E-002     0.0000000000000000     
  -3.2399999999999998E-002     0.0000000000000000     
  -3.2350000000000004E-002     0.0000000000000000     
  -3.2300000000000002E-002     0.0000000000000000     
  -3.2250000000000001E-002     0.0000000000000000     
  -3.2199999999999999E-002     0.0000000000000000     
  -3.2149999999999998E-002     0.0000000000000000     
  -3.2100000000000004E-002     0.0000000000000000     
  -3.2050000000000002E-002     0.0000000000000000     
  -3.2000000000000001E-002     0.0000000000000000     
  -3.1949999999999999E-002     0.0000000000000000     
  -3.1899999999999998E-002     0.0000000000000000     
  -3.1850000000000003E-002     0.0000000000000000     
  -3.1800000000000002E-002     0.0000000000000000     
  -3.1750000000000000E-002     0.0000000000000000     
  -3.1699999999999999E-002     0.0000000000000000     
  -3.1649999999999998E-002     0.0000000000000000     
  -3.1600000000000003E-002     0.0000000000000000     
  -3.1550000000000002E-002     0.0000000000000000     
  -3.1500000000000000E-002     0.0000000000000000     
  -3.1449999999999999E-002     0.0000000000000000     
  -3.1399999999999997E-002     0.0000000000000000     
  -3.1350000000000003E-002     0.0000000000000000     
  -3.1300000000000001E-002     0.0000000000000000     
  -3.1250000000000000E-002     0.0000000000000000     
  -3.1199999999999999E-002     0.0000000000000000     
  -3.1150000000000001E-002     0.0000000000000000     
  -3.1100000000000003E-002     0.0000000000000000     
  -3.1050000000000001E-002     0.0000000000000000     
  -3.1000000000000000E-002     0.0000000000000000     
  -3.0949999999999998E-002     0.0000000000000000     
  -3.0900000000000000E-002     0.0000000000000000     
  -3.0850000000000002E-002     0.0000000000000000     
  -3.0800000000000001E-002     0.0000000000000000     
  -3.0750000000000000E-002     0.0000000000000000     
  -3.0699999999999998E-002     0.0000000000000000     
  -3.0650000000000000E-002     0.0000000000000000     
  -3.0600000000000002E-002     0.0000000000000000     
  -3.0550000000000001E-002     0.0000000000000000     
  -3.0499999999999999E-002     0.0000000000000000     
  -3.0449999999999998E-002     0.0000000000000000     
  -3.0400000000000000E-002     0.0000000000000000     
  -3.0350000000000002E-002     0.0000000000000000     
  -3.0300000000000001E-002     0.0000000000000000     
  -3.0249999999999999E-002     0.0000000000000000     
  -3.0200000000000001E-002     0.0000000000000000     
  -3.0150000000000000E-002     0.0000000000000000     
  -3.0100000000000002E-002     0.0000000000000000     
  -3.0050000000000000E-002     0.0000000000000000     
  -2.9999999999999999E-002     0.0000000000000000     
  -2.9950000000000001E-002     0.0000000000000000     
  -2.9899999999999999E-002     0.0000000000000000     
  -2.9850000000000002E-002     0.0000000000000000     
  -2.9800000000000000E-002     0.0000000000000000     
  -2.9749999999999999E-002     0.0000000000000000     
  -2.9700000000000001E-002     0.0000000000000000     
  -2.9650000000000003E-002     0.0000000000000000     
  -2.9600000000000001E-002     0.0000000000000000     
  -2.9550000000000000E-002     0.0000000000000000     
  -2.9499999999999998E-002     0.0000000000000000     
  -2.9450000000000000E-002     0.0000000000000000     
  -2.9400000000000003E-002     0.0000000000000000     
  -2.9350000000000001E-002     0.0000000000000000     
  -2.9300000000000000E-002     0.0000000000000000     
  -2.9249999999999998E-002     0.0000000000000000     
  -2.9200000000000000E-002     0.0000000000000000     
  -2.9150000000000002E-002     0.0000000000000000     
  -2.9100000000000001E-002     0.0000000000000000     
  -2.9049999999999999E-002     0.0000000000000000     
  -2.8999999999999998E-002     0.0000000000000000     
  -2.8950000000000000E-002     0.0000000000000000     
  -2.8900000000000002E-002     0.0000000000000000     
  -2.8850000000000001E-002     0.0000000000000000     
  -2.8799999999999999E-002     0.0000000000000000     
  -2.8749999999999998E-002     0.0000000000000000     
  -2.8700000000000000E-002     0.0000000000000000     
  -2.8650000000000002E-002     0.0000000000000000     
  -2.8600000000000000E-002     0.0000000000000000     
  -2.8549999999999999E-002     0.0000000000000000     
  -2.8500000000000001E-002     0.0000000000000000     
  -2.8450000000000000E-002     0.0000000000000000     
  -2.8400000000000002E-002     0.0000000000000000     
  -2.8350000000000000E-002     0.0000000000000000     
  -2.8299999999999999E-002     0.0000000000000000     
  -2.8250000000000001E-002     0.0000000000000000     
  -2.8200000000000003E-002     0.0000000000000000     
  -2.8150000000000001E-002     0.0000000000000000     
  -2.8100000000000000E-002     0.0000000000000000     
  -2.8049999999999999E-002     0.0000000000000000     
  -2.8000000000000001E-002     0.0000000000000000     
  -2.7950000000000003E-002     0.0000000000000000     
  -2.7900000000000001E-002     0.0000000000000000     
  -2.7850000000000000E-002     0.0000000000000000     
  -2.7799999999999998E-002     0.0000000000000000     
  -2.7750000000000000E-002     0.0000000000000000     
  -2.7700000000000002E-002     0.0000000000000000     
  -2.7650000000000001E-002     0.0000000000000000     
  -2.7600000000000000E-002     0.0000000000000000     
  -2.7549999999999998E-002     0.0000000000000000     
  -2.7500000000000000E-002     0.0000000000000000     
  -2.7450000000000002E-002     0.0000000000000000     
  -2.7400000000000001E-002     0.0000000000000000     
  -2.7349999999999999E-002     0.0000000000000000     
  -2.7299999999999998E-002     0.0000000000000000     
  -2.7250000000000000E-002     0.0000000000000000     
  -2.7200000000000002E-002     0.0000000000000000     
  -2.7150000000000001E-002     0.0000000000000000     
  -2.7099999999999999E-002     0.0000000000000000     
  -2.7049999999999998E-002     0.0000000000000000     
  -2.7000000000000000E-002     0.0000000000000000     
  -2.6950000000000002E-002     0.0000000000000000     
  -2.6900000000000000E-002     0.0000000000000000     
  -2.6849999999999999E-002     0.0000000000000000     
  -2.6800000000000001E-002     0.0000000000000000     
  -2.6749999999999999E-002     0.0000000000000000     
  -2.6700000000000002E-002     0.0000000000000000     
  -2.6650000000000000E-002     0.0000000000000000     
  -2.6599999999999999E-002     1.9172666883861992E-040
  -2.6550000000000001E-002     4.6732159209568952E-040
  -2.6500000000000003E-002     6.4615894092786343E-040
  -2.6450000000000001E-002     1.7555512042505310E-040
  -2.6400000000000000E-002    -8.5920287413862086E-040
  -2.6349999999999998E-002    -2.6438051468055604E-039
  -2.6300000000000000E-002    -3.5158190770123530E-039
  -2.6250000000000002E-002    -3.1581087245496094E-039
  -2.6200000000000001E-002    -1.7795199580684545E-040
  -2.6150000000000000E-002     4.8982297787992136E-039
  -2.6099999999999998E-002     1.0488910693422693E-038
  -2.6050000000000000E-002    -6.1698822848440301E-039
  -2.6000000000000002E-002    -3.1806634446594728E-038
  -2.5950000000000001E-002    -5.5437707244795841E-038
  -2.5899999999999999E-002    -5.1886857797160918E-038
  -2.5849999999999998E-002    -4.4389244088335297E-039
  -2.5800000000000000E-002     6.5991080840472195E-038
  -2.5750000000000002E-002     1.5045442697873560E-037
  -2.5700000000000001E-002     1.7503761286007800E-037
  -2.5649999999999999E-002     1.1224878623847110E-037
  -2.5599999999999998E-002    -4.0051557348150901E-038
  -2.5550000000000000E-002    -2.4532192212165975E-037
  -2.5500000000000002E-002    -4.3282964283070870E-037
  -2.5450000000000000E-002    -5.2050535711908692E-037
  -2.5399999999999999E-002    -4.3653795761201700E-037
  -2.5349999999999998E-002    -1.4920167137027642E-037
  -2.5300000000000000E-002     3.1343356802154525E-037
  -2.5250000000000002E-002     8.5593624552231210E-037
  -2.5200000000000000E-002     1.3248954929822256E-036
  -2.5149999999999999E-002     1.5438886360427133E-036
  -2.5100000000000001E-002     1.3720585496125401E-036
  -2.5049999999999999E-002     7.1072276210161679E-037
  -2.5000000000000001E-002    -3.9059602797830939E-037
  -2.4950000000000000E-002    -1.7640317722644957E-036
  -2.4899999999999999E-002    -3.1391874952081186E-036
  -2.4850000000000001E-002    -4.1341860595921958E-036
  -2.4800000000000003E-002    -4.3899720976604570E-036
  -2.4750000000000001E-002    -3.5883554356047336E-036
  -2.4700000000000000E-002    -1.5352900641047480E-036
  -2.4649999999999998E-002     1.7630965208381249E-036
  -2.4600000000000000E-002     6.0201717937807860E-036
  -2.4550000000000002E-002     1.0590416398907679E-035
  -2.4500000000000001E-002     1.4417669705463778E-035
  -2.4450000000000000E-002     1.6059886418321915E-035
  -2.4399999999999998E-002     1.3862885531721560E-035
  -2.4350000000000000E-002     6.3542949212727416E-036
  -2.4299999999999999E-002    -7.1207697730842565E-036
  -2.4250000000000001E-002    -2.5607129003167810E-035
  -2.4199999999999999E-002    -4.5826472715435648E-035
  -2.4150000000000001E-002    -6.1914980955584791E-035
  -2.4100000000000000E-002    -6.6037935467204998E-035
  -2.4049999999999998E-002    -5.0178222018924006E-035
  -2.4000000000000000E-002    -9.0737847223246561E-036
  -2.3949999999999999E-002     5.6249480903107009E-035
  -2.3900000000000001E-002     1.3545059797944198E-034
  -2.3850000000000000E-002     2.0783978907684899E-034
  -2.3800000000000002E-002     2.4477664710408391E-034
  -2.3750000000000000E-002     2.1627393554554616E-034
  -2.3699999999999999E-002     1.0128519741512326E-034
  -2.3650000000000001E-002    -1.0052361023206470E-034
  -2.3599999999999999E-002    -3.5927943690947172E-034
  -2.3550000000000001E-002    -6.1220513276435542E-034
  -2.3500000000000000E-002    -7.7158073418572054E-034
  -2.3449999999999999E-002    -7.4483773599890314E-034
  -2.3400000000000001E-002    -4.6439279520068120E-034
  -2.3349999999999999E-002     7.9589459337857889E-035
  -2.3300000000000001E-002     8.1384769901928148E-034
  -2.3250000000000000E-002     1.5754579198987503E-033
  -2.3199999999999998E-002     2.1327652587109129E-033
  -2.3150000000000000E-002     2.2359822460641534E-033
  -2.3099999999999999E-002     1.6903490922823038E-033
  -2.3050000000000001E-002     4.3519267625531206E-034
  -2.3000000000000000E-002    -1.3944191383597799E-033
  -2.2950000000000002E-002    -3.4475034710437393E-033
  -2.2900000000000000E-002    -5.1958248101624620E-033
  -2.2849999999999999E-002    -6.0351145541467327E-033
  -2.2800000000000001E-002    -5.4350125498010219E-033
  -2.2749999999999999E-002    -3.1071298983437756E-033
  -2.2700000000000001E-002     8.5019363402112286E-034
  -2.2650000000000000E-002     5.8730207393899801E-033
  -2.2599999999999999E-002     1.0951777399450982E-032
  -2.2550000000000001E-002     1.4764658707219736E-032
  -2.2499999999999999E-002     1.5916514361640039E-032
  -2.2450000000000001E-002     1.3253383160633050E-032
  -2.2400000000000000E-002     6.2054127254152168E-033
  -2.2349999999999998E-002    -4.9012929216062697E-033
  -2.2300000000000000E-002    -1.8631245068190028E-032
  -2.2249999999999999E-002    -3.2396878237092062E-032
  -2.2200000000000001E-002    -4.2658807050895993E-032
  -2.2150000000000000E-002    -4.5428664011048633E-032
  -2.2100000000000002E-002    -3.7097326413302196E-032
  -2.2050000000000000E-002    -1.5538390772965768E-032
  -2.1999999999999999E-002     1.8674660013003694E-032
  -2.1950000000000001E-002     6.1232816894383580E-032
  -2.1899999999999999E-002     1.0364853497823532E-031
  -2.1850000000000001E-002     1.3385301154914879E-031
  -2.1800000000000000E-002     1.3817391501751705E-031
  -2.1749999999999999E-002     1.0473879251621496E-031
  -2.1700000000000001E-002     2.7879385912587979E-032
  -2.1649999999999999E-002    -8.7443327784672030E-032
  -2.1600000000000001E-002    -2.2264593451777222E-031
  -2.1550000000000000E-002    -3.4558539500204729E-031
  -2.1499999999999998E-002    -4.1497393726134445E-031
  -2.1450000000000000E-002    -3.8951464032147935E-031
  -2.1399999999999999E-002    -2.4068600443176607E-031
  -2.1350000000000001E-002     3.3545498610691661E-032
  -2.1299999999999999E-002     3.9816180198038621E-031
  -2.1250000000000002E-002     7.7823765305113272E-031
  -2.1200000000000000E-002     1.0674813279112393E-030
  -2.1149999999999999E-002     1.1494621042034916E-030
  -2.1100000000000001E-002     9.2918839933304584E-031
  -2.1049999999999999E-002     3.6865117857415919E-031
  -2.1000000000000001E-002    -4.8332160745438568E-031
  -2.0950000000000000E-002    -1.4777515651167029E-030
  -2.0899999999999998E-002    -2.3777370104555027E-030
  -2.0850000000000000E-002    -2.9000631181042949E-030
  -2.0799999999999999E-002    -2.7823129061124887E-030
  -2.0750000000000001E-002    -1.8630359370405585E-030
  -2.0700000000000000E-002    -1.5552518293237978E-031
  -2.0649999999999998E-002     2.1072547023511874E-030
  -2.0600000000000000E-002     4.4763010450107871E-030
  -2.0549999999999999E-002     6.3495996243562182E-030
  -2.0500000000000001E-002     7.0916966895824531E-030
  -2.0449999999999999E-002     6.1913504976288285E-030
  -2.0400000000000001E-002     3.4251656175478562E-030
  -2.0350000000000000E-002    -1.0127900844159772E-030
  -2.0299999999999999E-002    -6.4547035304532076E-030
  -2.0250000000000001E-002    -1.1805285209995701E-029
  -2.0199999999999999E-002    -1.5701507067171131E-029
  -2.0150000000000001E-002    -1.6773365464968975E-029
  -2.0100000000000000E-002    -1.3968960886544065E-029
  -2.0049999999999998E-002    -6.8864837750881581E-030
  -2.0000000000000000E-002     3.9576731847686411E-030
  -1.9949999999999999E-002     1.6998525722830775E-029
  -1.9900000000000001E-002     2.9694211932221030E-029
  -1.9850000000000000E-002     3.8840808712549891E-029
  -1.9799999999999998E-002     4.1133102547795288E-029
  -1.9750000000000000E-002     3.3922518560268749E-029
  -1.9699999999999999E-002     1.6062333065289215E-029
  -1.9650000000000001E-002    -1.1330270667875739E-029
  -1.9599999999999999E-002    -4.4410722877225980E-029
  -1.9550000000000001E-002    -7.6666440103548665E-029
  -1.9500000000000000E-002    -9.9675903393329160E-029
  -1.9449999999999999E-002    -1.0462690451265780E-028
  -1.9400000000000001E-002    -8.4469516934885938E-029
  -1.9349999999999999E-002    -3.6354038008850710E-029
  -1.9300000000000001E-002     3.6209365574238180E-029
  -1.9250000000000000E-002     1.2216532453832190E-028
  -1.9199999999999998E-002     2.0337426048919529E-028
  -1.9150000000000000E-002     2.5716013968798281E-028
  -1.9099999999999999E-002     2.6093862129588043E-028
  -1.9050000000000001E-002     1.9831925771050865E-028
  -1.9000000000000000E-002     6.5450573780237344E-029
  -1.8949999999999998E-002    -1.2408832105459371E-028
  -1.8900000000000000E-002    -3.3766304173209213E-028
  -1.8849999999999999E-002    -5.2666293954976735E-028
  -1.8800000000000001E-002    -6.3481654917250697E-028
  -1.8749999999999999E-002    -6.1095940992662997E-028
  -1.8700000000000001E-002    -4.2400980630980314E-028
  -1.8650000000000000E-002    -7.6687233163332775E-029
  -1.8599999999999998E-002     3.8605640173692879E-028
  -1.8550000000000001E-002     8.7751639397514386E-028
  -1.8499999999999999E-002     1.2807490930020083E-027
  -1.8450000000000001E-002     1.4708136486081869E-027
  -1.8400000000000000E-002     1.3445391494634841E-027
  -1.8349999999999998E-002     8.5193235201502817E-028
  -1.8300000000000000E-002     2.1622171579229429E-029
  -1.8249999999999999E-002    -1.0273765143653673E-027
  -1.8200000000000001E-002    -2.0934881152324579E-027
  -1.8149999999999999E-002    -2.9222821471559050E-027
  -1.8100000000000002E-002    -3.2555151059656856E-027
  -1.8050000000000000E-002    -2.8918762480103221E-027
  -1.7999999999999999E-002    -1.7476124066158803E-027
  -1.7950000000000001E-002     9.6991456553227961E-029
  -1.7899999999999999E-002     2.3787661152621375E-027
  -1.7850000000000001E-002     4.6703597494910944E-027
  -1.7800000000000000E-002     6.4401515381264343E-027
  -1.7749999999999998E-002     7.1489330470569809E-027
  -1.7700000000000000E-002     6.3702535728822895E-027
  -1.7649999999999999E-002     3.9136559121488900E-027
  -1.7600000000000001E-002    -7.5138375544390534E-029
  -1.7550000000000000E-002    -5.0641479101343755E-027
  -1.7499999999999998E-002    -1.0158296392269183E-026
  -1.7450000000000000E-002    -1.4209341110370481E-026
  -1.7399999999999999E-002    -1.6011124373855781E-026
  -1.7350000000000001E-002    -1.4559743188631983E-026
  -1.7299999999999999E-002    -9.3380030627291571E-027
  -1.7250000000000001E-002    -5.6614304817055851E-028
  -1.7200000000000000E-002     1.0648825850020835E-026
  -1.7149999999999999E-002     2.2329531897209554E-026
  -1.7100000000000001E-002     3.1854901296471712E-026
  -1.7049999999999999E-002     3.6404270389823990E-026
  -1.7000000000000001E-002     3.3574966726003505E-026
  -1.6950000000000000E-002     2.2073084308549994E-026
  -1.6899999999999998E-002     2.3286934151716466E-027
  -1.6850000000000000E-002    -2.3138375258434287E-026
  -1.6799999999999999E-002    -4.9763646913504457E-026
  -1.6750000000000001E-002    -7.1497585297952938E-026
  -1.6700000000000000E-002    -8.1881482065488571E-026
  -1.6649999999999998E-002    -7.5510585014902544E-026
  -1.6600000000000000E-002    -4.9621969504459841E-026
  -1.6549999999999999E-002    -5.4433191196333977E-027
  -1.6500000000000001E-002     5.1094683637471798E-026
  -1.6449999999999999E-002     1.0961970452286379E-025
  -1.6400000000000001E-002     1.5672867235602298E-025
  -1.6350000000000000E-002     1.7847898997501561E-025
  -1.6299999999999999E-002     1.6360527023617745E-025
  -1.6250000000000001E-002     1.0684576114176777E-025
  -1.6199999999999999E-002     1.1596168617136568E-026
  -1.6150000000000001E-002    -1.0889989875242264E-025
  -1.6100000000000000E-002    -2.3243157777880890E-025
  -1.6049999999999998E-002    -3.3101219355202561E-025
  -1.6000000000000000E-002    -3.7612123101150426E-025
  -1.5949999999999999E-002    -3.4520121801793986E-025
  -1.5900000000000001E-002    -2.2816139311659328E-025
  -1.5850000000000000E-002    -3.2392505105100968E-026
  -1.5799999999999998E-002     2.1515410670050403E-025
  -1.5750000000000000E-002     4.6988548717096339E-025
  -1.5699999999999999E-002     6.7585419091072811E-025
  -1.5650000000000001E-002     7.7588735930536395E-025
  -1.5599999999999999E-002     7.2408772197852174E-025
  -1.5550000000000001E-002     4.9843762623105536E-025
  -1.5500000000000000E-002     1.1077905041178709E-025
  -1.5449999999999998E-002    -3.8853117872531505E-025
  -1.5400000000000000E-002    -9.1339177407290629E-025
  -1.5349999999999999E-002    -1.3531044556465694E-024
  -1.5300000000000001E-002    -1.5912725016126301E-024
  -1.5250000000000000E-002    -1.5300555398441654E-024
  -1.5199999999999998E-002    -1.1157308822921921E-024
  -1.5150000000000000E-002    -3.6034611820239687E-025
  -1.5099999999999999E-002     6.4610169164120078E-025
  -1.5050000000000001E-002     1.7377661351425189E-024
  -1.4999999999999999E-002     2.6921826303102953E-024
  -1.4949999999999998E-002     3.2664256694352635E-024
  -1.4900000000000000E-002     3.2462239564561854E-024
  -1.4849999999999999E-002     2.5002238457431304E-024
  -1.4800000000000001E-002     1.0285271183253394E-024
  -1.4749999999999999E-002    -1.0067669432806675E-024
  -1.4700000000000001E-002    -3.2802323775318105E-024
  -1.4650000000000000E-002    -5.3383284778969768E-024
  -1.4599999999999998E-002    -6.6718874867901594E-024
  -1.4550000000000000E-002    -6.8182043088277733E-024
  -1.4499999999999999E-002    -5.4763402800240502E-024
  -1.4450000000000001E-002    -2.6122381873144941E-024
  -1.4400000000000000E-002     1.4729319755760012E-024
  -1.4349999999999998E-002     6.1354520993964911E-024
  -1.4300000000000000E-002     1.0458382373206422E-023
  -1.4249999999999999E-002     1.3398840381172284E-023
  -1.4200000000000001E-002     1.3996645632672848E-023
  -1.4149999999999999E-002     1.1609752275127641E-023
  -1.4099999999999998E-002     6.1281304423089910E-024
  -1.4050000000000000E-002    -1.8876184855288252E-024
  -1.3999999999999999E-002    -1.1190570225803003E-023
  -1.3950000000000001E-002    -1.9983920186297568E-023
  -1.3899999999999999E-002    -2.6209789888579658E-023
  -1.3850000000000001E-002    -2.7955840536005751E-023
  -1.3800000000000000E-002    -2.3911470478467130E-023
  -1.3749999999999998E-002    -1.3780758908026686E-023
  -1.3700000000000000E-002     1.4486696243258201E-024
  -1.3649999999999999E-002     1.9468734271996133E-023
  -1.3600000000000001E-002     3.6898471696917619E-023
  -1.3550000000000000E-002     4.9815473445360299E-023
  -1.3499999999999998E-002     5.4507867963330077E-023
  -1.3450000000000000E-002     4.8323819502695852E-023
  -1.3399999999999999E-002     3.0451835712977725E-023
  -1.3350000000000001E-002     2.4503164335426681E-024
  -1.3299999999999999E-002    -3.1634165114633559E-023
  -1.3249999999999998E-002    -6.5661020863123799E-023
  -1.3200000000000000E-002    -9.2312565629922944E-023
  -1.3149999999999998E-002    -1.0443503558383382E-022
  -1.3100000000000001E-002    -9.6597584812257267E-023
  -1.3049999999999999E-002    -6.6579731802882657E-023
  -1.3000000000000001E-002    -1.6459526098431578E-023
  -1.2950000000000000E-002     4.7002152816524820E-023
  -1.2899999999999998E-002     1.1289535860034497E-022
  -1.2850000000000000E-002     1.6767527653475496E-022
  -1.2799999999999999E-002     1.9752577441478600E-022