  -4.0000000000000001E-002     0.0000000000000000     
  -3.9949999999999999E-002     0.0000000000000000     
  -3.9899999999999998E-002     0.0000000000000000     
  -3.9850000000000003E-002     0.0000000000000000     
  -3.9800000000000002E-002     0.0000000000000000     
  -3.9750000000000001E-002     0.0000000000000000     
  -3.9699999999999999E-002     0.0000000000000000     
  -3.9649999999999998E-002     0.0000000000000000     
  -3.9600000000000003E-002     0.0000000000000000     
  -3.9550000000000002E-002     0.0000000000000000     
  -3.9500000000000000E-002     0.0000000000000000     
  -3.9449999999999999E-002     0.0000000000000000     
  -3.9399999999999998E-002    -6.3623444618712265E-035
  -3.9350000000000003E-002    -1.4140482452598499E-033
  -3.9300000000000002E-002    -1.5773114945931719E-032
  -3.9250000000000000E-002    -1.1695317760072197E-031
  -3.9199999999999999E-002    -6.4291407464954922E-031
  -3.9150000000000004E-002    -2.7609996356230759E-030
  -3.9100000000000003E-002    -9.4639867309066162E-030
  -3.9050000000000001E-002    -2.5693229451025118E-029
  -3.9000000000000000E-002    -5.1773368156347443E-029
  -3.8949999999999999E-002    -5.5287883785643494E-029
  -3.8900000000000004E-002     1.0226149038227418E-028
  -3.8850000000000003E-002     7.9413923915614245E-028
  -3.8800000000000001E-002     2.7382352933147003E-027
  -3.8750000000000000E-002     6.8001568361798447E-027
  -3.8699999999999998E-002     1.2868446436492774E-026
  -3.8650000000000004E-002     1.6968499406182048E-026
  -3.8600000000000002E-002     6.3345400015900105E-027
  -3.8550000000000001E-002    -4.5527337463333723E-026
  -3.8500000000000000E-002    -1.7699218816212146E-025
  -3.8449999999999998E-002    -4.1685735925818633E-025
  -3.8400000000000004E-002    -7.2817601278917667E-025
  -3.8350000000000002E-002    -9.1349215284409052E-025
  -3.8300000000000001E-002    -5.1326656878200818E-025
  -3.8249999999999999E-002     1.2084309614165264E-024
  -3.8199999999999998E-002     5.0305470341464689E-024
  -3.8150000000000003E-002     1.1123095443065636E-023
  -3.8100000000000002E-002     1.7940760852932157E-023
  -3.8050000000000000E-002     2.0979670685669825E-023
  -3.7999999999999999E-002     1.2254712698066529E-023
  -3.7949999999999998E-002    -1.8153380482626445E-023
  -3.7900000000000003E-002    -7.7152273124902970E-023
  -3.7850000000000002E-002    -1.6005151093385772E-022
  -3.7800000000000000E-002    -2.4052986585615579E-022
  -3.7749999999999999E-002    -2.6465490211945749E-022
  -3.7699999999999997E-002    -1.5702175813665972E-022
  -3.7650000000000003E-002     1.5360746705282165E-022
  -3.7600000000000001E-002     6.8807224339125907E-022
  -3.7550000000000000E-002     1.3611282671921752E-021
  -3.7499999999999999E-002     1.9420798964078368E-021
  -3.7449999999999997E-002     2.0667186324718772E-021
  -3.7400000000000003E-002     1.3295760414276498E-021
  -3.7350000000000001E-002    -5.4202035893523753E-022
  -3.7300000000000000E-002    -3.4760300109378556E-021
  -3.7249999999999998E-002    -6.8956046919229417E-021
  -3.7200000000000004E-002    -9.7185612713814976E-021
  -3.7150000000000002E-002    -1.0588601280778039E-020
  -3.7100000000000001E-002    -8.3163377400302320E-021
  -3.7050000000000000E-002    -2.3862257168257313E-021
  -3.6999999999999998E-002     6.6996614768066432E-021
  -3.6950000000000004E-002     1.7446533752888272E-020
  -3.6900000000000002E-002     2.7801317447267806E-020
  -3.6850000000000001E-002     3.5782316945186593E-020
  -3.6799999999999999E-002     3.9886025232877014E-020
  -3.6749999999999998E-002     3.8879431009257873E-020
  -3.6700000000000003E-002     3.0947970103634321E-020
  -3.6650000000000002E-002     1.2777591894503589E-020
  -3.6600000000000001E-002    -2.0323680349908144E-020
  -3.6549999999999999E-002    -7.2178537286946479E-020
  -3.6499999999999998E-002    -1.4118853094775075E-019
  -3.6450000000000003E-002    -2.1499156078058650E-019
  -3.6400000000000002E-002    -2.6759204716148534E-019
  -3.6350000000000000E-002    -2.6282820073020562E-019
  -3.6299999999999999E-002    -1.6637992489645361E-019
  -3.6249999999999998E-002     3.5608026278530162E-020
  -3.6200000000000003E-002     3.1847963140431257E-019
  -3.6150000000000002E-002     6.1239141231247696E-019
  -3.6100000000000000E-002     8.1653776205842968E-019
  -3.6049999999999999E-002     8.3597585415101588E-019
  -3.6000000000000004E-002     6.2998176845200293E-019
  -3.5950000000000003E-002     2.4873935274559721E-019
  -3.5900000000000001E-002    -1.6843560438958994E-019
  -3.5850000000000000E-002    -4.4888658235818988E-019
  -3.5799999999999998E-002    -4.8579780082585321E-019
  -3.5750000000000004E-002    -3.3817370530708514E-019
  -3.5700000000000003E-002    -2.6816569228984761E-019
  -3.5650000000000001E-002    -6.6043391376722276E-019
  -3.5600000000000000E-002    -1.8138344725074183E-018
  -3.5549999999999998E-002    -3.6686586588553447E-018
  -3.5500000000000004E-002    -5.6021861648665528E-018
  -3.5450000000000002E-002    -6.4494423769040849E-018
  -3.5400000000000001E-002    -4.8511022095206184E-018
  -3.5349999999999999E-002     1.0613127399266085E-019
  -3.5299999999999998E-002     8.1674387851152936E-018
  -3.5250000000000004E-002     1.7451720191415059E-017
  -3.5200000000000002E-002     2.4607462076578935E-017
  -3.5150000000000001E-002     2.5754920178163799E-017
  -3.5099999999999999E-002     1.8053309830389917E-017
  -3.5049999999999998E-002     1.3603743562099519E-018
  -3.5000000000000003E-002    -2.0779455965745751E-017
  -3.4950000000000002E-002    -4.1509388582749114E-017
  -3.4900000000000000E-002    -5.2650681398616474E-017
  -3.4849999999999999E-002    -4.7866563632298290E-017
  -3.4799999999999998E-002    -2.5869010641297313E-017
  -3.4750000000000003E-002     7.8012314075556868E-018
  -3.4700000000000002E-002     4.1618114196091394E-017
  -3.4650000000000000E-002     6.1815961932349324E-017
  -3.4599999999999999E-002     5.8026126695837274E-017
  -3.4549999999999997E-002     2.8656425687254428E-017
  -3.4500000000000003E-002    -1.6536808040054005E-017
  -3.4450000000000001E-002    -5.8530907826982373E-017
  -3.4400000000000000E-002    -7.5881139499132137E-017
  -3.4349999999999999E-002    -5.4239510631978581E-017
  -3.4299999999999997E-002     5.2641490295530425E-018
  -3.4250000000000003E-002     8.2932496794819221E-017
  -3.4200000000000001E-002     1.4534814789741604E-016
  -3.4150000000000000E-002     1.5774047617937687E-016
  -3.4099999999999998E-002     9.9908325615697517E-017
  -3.4049999999999997E-002    -2.0774789529958083E-017
  -3.4000000000000002E-002    -1.6586410563082421E-016
  -3.3950000000000001E-002    -2.7562469121624363E-016
  -3.3900000000000000E-002    -2.9075609935774084E-016
  -3.3849999999999998E-002    -1.7914533018724108E-016
  -3.3799999999999997E-002     4.2971741482239041E-017
  -3.3750000000000002E-002     3.0590851930773624E-016
  -3.3700000000000001E-002     5.0326871526033675E-016
  -3.3649999999999999E-002     5.2823582012420600E-016
  -3.3599999999999998E-002     3.1843176782135393E-016
  -3.3550000000000003E-002    -1.0740324805458947E-016
  -3.3500000000000002E-002    -6.3759199228126012E-016
  -3.3450000000000001E-002    -1.0903523343972716E-015
  -3.3399999999999999E-002    -1.2689843661108980E-015
  -3.3349999999999998E-002    -1.0338492161125976E-015
  -3.3300000000000003E-002    -3.6626002526968488E-016
  -3.3250000000000002E-002     6.0162678785826874E-016
  -3.3200000000000000E-002     1.6078708907323103E-015
  -3.3149999999999999E-002     2.3327675551326050E-015
  -3.3099999999999997E-002     2.5023895060990798E-015
  -3.3050000000000003E-002     1.9894853550313990E-015
  -3.3000000000000002E-002     8.7400915254190817E-016
  -3.2950000000000000E-002    -5.6394370577052420E-016
  -3.2899999999999999E-002    -1.9236602339330942E-015
  -3.2850000000000004E-002    -2.8136352026173361E-015
  -3.2800000000000003E-002    -2.9878534023172186E-015
  -3.2750000000000001E-002    -2.4375426174751005E-015
  -3.2700000000000000E-002    -1.3994289442799936E-015
  -3.2649999999999998E-002    -2.7031872248198385E-016
  -3.2600000000000004E-002     5.4608299425778547E-016
  -3.2550000000000003E-002     8.0438612505582231E-016
  -3.2500000000000001E-002     5.2827856153412920E-016
  -3.2450000000000000E-002     1.5376130809441273E-017
  -3.2399999999999998E-002    -2.7744726123119208E-016
  -3.2350000000000004E-002     6.6239775602089516E-017
  -3.2300000000000002E-002     1.2120928897596236E-015
  -3.2250000000000001E-002     2.9427358270196513E-015
  -3.2199999999999999E-002     4.6718383468857721E-015
  -3.2149999999999998E-002     5.6214158080864062E-015
  -3.2100000000000004E-002     5.1139841801585156E-015
  -3.2050000000000002E-002     2.8768966007696092E-015
  -3.2000000000000001E-002    -7.6366083700266788E-016
  -3.1949999999999999E-002    -4.8944551273862415E-015
  -3.1899999999999998E-002    -8.2591125946450952E-015
  -3.1850000000000003E-002    -9.6718577590986378E-015
  -3.1800000000000002E-002    -8.4636868341857463E-015
  -3.1750000000000000E-002    -4.7932618451176410E-015
  -3.1699999999999999E-002     3.1314661235759028E-016
  -3.1649999999999998E-002     5.2396926766824897E-015
  -3.1600000000000003E-002     8.3069853565353085E-015
  -3.1550000000000002E-002     8.3735655063858718E-015
  -3.1500000000000000E-002     5.2935899626987540E-015
  -3.1449999999999999E-002     4.4762591249912129E-017
  -3.1399999999999997E-002    -5.5510631978847706E-015
  -3.1350000000000003E-002    -9.4432916181811196E-015
  -3.1300000000000001E-002    -1.0097229895371020E-014
  -3.1250000000000000E-002    -7.0931287941693803E-015
  -3.1199999999999999E-002    -1.3373826874916053E-015
  -3.1150000000000001E-002     5.2261934267268607E-015
  -3.1100000000000003E-002     1.0330522668989328E-014
  -3.1050000000000001E-002     1.2275108342039339E-014
  -3.1000000000000000E-002     1.0648024461090259E-014
  -3.0949999999999998E-002     6.5693592709269692E-015
  -3.0900000000000000E-002     2.3059337956940297E-015
  -3.0850000000000002E-002     3.4515604716247935E-016
  -3.0800000000000001E-002     2.2469105631533144E-015
  -3.0750000000000000E-002     7.7234815006802998E-015
  -3.0699999999999998E-002     1.4366314888329475E-014
  -3.0650000000000000E-002     1.8236818179929799E-014
  -3.0600000000000002E-002     1.5225303288658817E-014
  -3.0550000000000001E-002     2.7653213809866980E-015
  -3.0499999999999999E-002    -1.8708582712662135E-014
  -3.0449999999999998E-002    -4.5162365320458426E-014
  -3.0400000000000000E-002    -6.9587591873097386E-014
  -3.0350000000000002E-002    -8.3810552804239250E-014
  -3.0300000000000001E-002    -8.1008337311680852E-014
  -3.0249999999999999E-002    -5.8142107628453775E-014
  -3.0200000000000001E-002    -1.7457868011251316E-014
  -3.0150000000000000E-002     3.3556808937633892E-014
  -3.0100000000000002E-002     8.3893353180342014E-014
  -3.0050000000000000E-002     1.2198697516922941E-013
  -2.9999999999999999E-002     1.3903371583640391E-013
  -2.9950000000000001E-002     1.3158759497016920E-013
  -2.9899999999999999E-002     1.0254712027972470E-013
  -2.9850000000000002E-002     6.0143117166420643E-014
  -2.9800000000000000E-002     1.5204335295780818E-014
  -2.9749999999999999E-002    -2.2421535668760861E-014
  -2.9700000000000001E-002    -4.7090204205485662E-014
  -2.9650000000000003E-002    -5.9106101777730496E-014
  -2.9600000000000001E-002    -6.4343804220279351E-014
  -2.9550000000000000E-002    -7.1811421081994116E-014
  -2.9499999999999998E-002    -8.9935466721830058E-014
  -2.9450000000000000E-002    -1.2280827057270871E-013
  -2.9400000000000003E-002    -1.6768377199273642E-013
  -2.9350000000000001E-002    -2.1461436505584968E-013
  -2.9300000000000000E-002    -2.4842235362960654E-013
  -2.9249999999999998E-002    -2.5243874103159831E-013
  -2.9200000000000000E-002    -2.1288641849736081E-013
  -2.9150000000000002E-002    -1.2262406210611739E-013
  -2.9100000000000001E-002     1.6751302196765245E-014
  -2.9049999999999999E-002     1.9484191970608932E-013
  -2.8999999999999998E-002     3.9413513635190481E-013
  -2.8950000000000000E-002     5.9263606184273910E-013
  -2.8900000000000002E-002     7.6650454371445306E-013
  -2.8850000000000001E-002     8.9202082447268947E-013
  -2.8799999999999999E-002     9.4674792018139969E-013
  -2.8749999999999998E-002     9.1032751961544499E-013
  -2.8700000000000000E-002     7.6567132464041137E-013
  -2.8650000000000002E-002     5.0121723087122254E-013
  -2.8600000000000000E-002     1.1440450278946322E-013
  -2.8549999999999999E-002    -3.8422309228348927E-013
  -2.8500000000000001E-002    -9.6754701231966952E-013
  -2.8450000000000000E-002    -1.5905706791041731E-012
  -2.8400000000000002E-002    -2.1925114797445432E-012
  -2.8350000000000000E-002    -2.7026585561779661E-012
  -2.8299999999999999E-002    -3.0492145090035401E-012
  -2.8250000000000001E-002    -3.1693127076275911E-012
  -2.8200000000000003E-002    -3.0178920301834232E-012
  -2.8150000000000001E-002    -2.5733783711079084E-012
  -2.8100000000000000E-002    -1.8391442358567518E-012
  -2.8049999999999999E-002    -8.4115731868890000E-013
  -2.8000000000000001E-002     3.7642552381467935E-013
  -2.7950000000000003E-002     1.7552344481143038E-012
  -2.7900000000000001E-002     3.2240045715728257E-012
  -2.7850000000000000E-002     4.6962568476896513E-012
  -2.7799999999999998E-002     6.0652201738361189E-012
  -2.7750000000000000E-002     7.1987254585746699E-012
  -2.7700000000000002E-002     7.9379229602298511E-012
  -2.7650000000000001E-002     8.1035558762245842E-012
  -2.7600000000000000E-002     7.5120140800983943E-012
  -2.7549999999999998E-002     6.0008953618684942E-012
  -2.7500000000000000E-002     3.4609797928403208E-012
  -2.7450000000000002E-002    -1.3066323211035368E-013
  -2.7400000000000001E-002    -4.6825973363099997E-012
  -2.7349999999999999E-002    -9.9713214013588953E-012
  -2.7299999999999998E-002    -1.5637050210999257E-011
  -2.7250000000000000E-002    -2.1193028373178371E-011
  -2.7200000000000002E-002    -2.6045651591515602E-011
  -2.7150000000000001E-002    -2.9520956284109477E-011
  -2.7099999999999999E-002    -3.0892889661415482E-011
  -2.7049999999999998E-002    -2.9410265029356326E-011
  -2.7000000000000000E-002    -2.4321542018564823E-011
  -2.6950000000000002E-002    -1.4898889176225815E-011
  -2.6900000000000000E-002    -4.6426739189519602E-013
  -2.6849999999999999E-002     1.9580132556262713E-011
  -2.6800000000000001E-002     4.5716652561200975E-011
  -2.6749999999999999E-002     7.8274362794942892E-011
  -2.6700000000000002E-002     1.1739400888187952E-010
  -2.6650000000000000E-002     1.6300247915379448E-010
  -2.6599999999999999E-002     2.1480321886473741E-010
  -2.6550000000000001E-002     2.7228700028643845E-010
  -2.6500000000000003E-002     3.3476358827600625E-010
  -2.6450000000000001E-002     4.0141105702331501E-010
  -2.6400000000000000E-002     4.7133587281008645E-010
  -2.6349999999999998E-002     5.4363589213957120E-010
  -2.6300000000000000E-002     6.1745860698035677E-010
  -2.6250000000000002E-002     6.9204925591273693E-010
  -2.6200000000000001E-002     7.6678621176802470E-010
  -2.6150000000000000E-002     8.4120357367378045E-010
  -2.6099999999999998E-002     9.1500282970965654E-010
  -2.6050000000000000E-002     9.8805432730283469E-010
  -2.6000000000000002E-002     1.0603892660572781E-009
  -2.5950000000000001E-002     1.1321814299390762E-009
  -2.5899999999999999E-002     1.2037175974295750E-009
  -2.5849999999999998E-002     1.2753557619597219E-009
  -2.5800000000000000E-002     1.3474752856728043E-009
  -2.5750000000000002E-002     1.4204230780086979E-009
  -2.5700000000000001E-002     1.4944655964991654E-009
  -2.5649999999999999E-002     1.5697555575892868E-009
  -2.5599999999999998E-002     1.6463212713969273E-009
  -2.5550000000000000E-002     1.7240805855836542E-009
  -2.5500000000000002E-002     1.8028773823059506E-009
  -2.5450000000000000E-002     1.8825317699112215E-009
  -2.5399999999999999E-002     1.9628910284928379E-009
  -2.5349999999999998E-002     2.0438681214616672E-009
  -2.5300000000000000E-002     2.1254612837631711E-009
  -2.5250000000000002E-002     2.2077501506947556E-009
  -2.5200000000000000E-002     2.2908745507663102E-009
  -2.5149999999999999E-002     2.3750077259259999E-009
  -2.5100000000000001E-002     2.4603349021456637E-009
  -2.5049999999999999E-002     2.5470475453469675E-009
  -2.5000000000000001E-002     2.6353581410282313E-009
  -2.4950000000000000E-002     2.7255278541365498E-009
  -2.4899999999999999E-002     2.8178972646896626E-009
  -2.4850000000000001E-002     2.9129047079881977E-009
  -2.4800000000000003E-002     3.0110775518985172E-009
  -2.4750000000000001E-002     3.1129917294606713E-009
  -2.4700000000000000E-002     3.2192002422149614E-009
  -2.4649999999999998E-002     3.3301481283951036E-009
  -2.4600000000000000E-002     3.4460879743930382E-009
  -2.4550000000000002E-002     3.5670221566461690E-009
  -2.4500000000000001E-002     3.6926821841158674E-009
  -2.4450000000000000E-002     3.8225553748672762E-009
  -2.4399999999999998E-002     3.9559530116845936E-009
  -2.4350000000000000E-002     4.0921059229193552E-009
  -2.4299999999999999E-002     4.2302680682456645E-009
  -2.4250000000000001E-002     4.3698146700284415E-009
  -2.4199999999999999E-002     4.5103124295193454E-009
  -2.4150000000000001E-002     4.6515708961831353E-009
  -2.4100000000000000E-002     4.7936619705254748E-009
  -2.4049999999999998E-002     4.9369246425403957E-009
  -2.4000000000000000E-002     5.0819513848376138E-009
  -2.3949999999999999E-002     5.2295661646475234E-009
  -2.3900000000000001E-002     5.3807857784021569E-009
  -2.3850000000000000E-002     5.5367595602506907E-009
  -2.3800000000000002E-002     5.6986848795381894E-009
  -2.3750000000000000E-002     5.8676987067520817E-009
  -2.3699999999999999E-002     6.0447537134206661E-009
  -2.3650000000000001E-002     6.2305008796854841E-009
  -2.3599999999999999E-002     6.4252000416444647E-009
  -2.3550000000000001E-002     6.6286801553989507E-009
  -2.3500000000000000E-002     6.8403673372545075E-009
  -2.3449999999999999E-002     7.0593728617243334E-009
  -2.3400000000000001E-002     7.2846366283006235E-009
  -2.3349999999999999E-002     7.5150832975166846E-009
  -2.3300000000000001E-002     7.7497732409061033E-009
  -2.3250000000000000E-002     7.9880129104994938E-009
  -2.3199999999999998E-002     8.2294069268887626E-009
  -2.3150000000000000E-002     8.4738603789452214E-009
  -2.3099999999999999E-002     8.7215437241299392E-009
  -2.3050000000000001E-002     8.9728477174535901E-009
  -2.3000000000000000E-002     9.2283532087453158E-009
  -2.2950000000000002E-002     9.4888205525721525E-009
  -2.2900000000000000E-002     9.7552043704213408E-009
  -2.2849999999999999E-002     1.0028666218672311E-008
  -2.2800000000000001E-002     1.0310565232822394E-008
  -2.2749999999999999E-002     1.0602390997235354E-008
  -2.2700000000000001E-002     1.0905637754669026E-008
  -2.2650000000000000E-002     1.1221625920852956E-008
  -2.2599999999999999E-002     1.1551303644735694E-008
  -2.2550000000000001E-002     1.1895081499203372E-008
  -2.2499999999999999E-002     1.2252743669452852E-008
  -2.2450000000000001E-002     1.2623472500876428E-008
  -2.2400000000000000E-002     1.3005992499654063E-008
  -2.2349999999999998E-002     1.3398807662905826E-008
  -2.2300000000000000E-002     1.3800481787070382E-008
  -2.2249999999999999E-002     1.4209901273304085E-008
  -2.2200000000000001E-002     1.4626455152713215E-008
  -2.2150000000000000E-002     1.5050090797619045E-008
  -2.2100000000000002E-002     1.5481259852854312E-008
  -2.2050000000000000E-002     1.5920769739197140E-008
  -2.1999999999999999E-002     1.6369589938138453E-008
  -2.1950000000000001E-002     1.6828689850601902E-008
  -2.1899999999999999E-002     1.7298935428783772E-008
  -2.1850000000000001E-002     1.7781075548470873E-008
  -2.1800000000000000E-002     1.8275811356121133E-008
  -2.1749999999999999E-002     1.8783904010753262E-008
  -2.1700000000000001E-002     1.9306250117095596E-008
  -2.1649999999999999E-002     1.9843925197843922E-008
  -2.1600000000000001E-002     2.0398117862563822E-008
  -2.1550000000000000E-002     2.0969995598835244E-008
  -2.1499999999999998E-002     2.1560522020377783E-008
  -2.1450000000000000E-002     2.2170282326051804E-008
  -2.1399999999999999E-002     2.2799386184171031E-008
  -2.1350000000000001E-002     2.3447457539496726E-008
  -2.1299999999999999E-002     2.4113755972939767E-008
  -2.1250000000000002E-002     2.4797376939984154E-008
  -2.1200000000000000E-002     2.5497505426319887E-008
  -2.1149999999999999E-002     2.6213638478625810E-008
  -2.1100000000000001E-002     2.6945741239857637E-008
  -2.1049999999999999E-002     2.7694290906631975E-008
  -2.1000000000000001E-002     2.8460206066684546E-008
  -2.0950000000000000E-002     2.9244699443401222E-008
  -2.0899999999999998E-002     3.0049093106165402E-008
  -2.0850000000000000E-002     3.0874642301458313E-008
  -2.0799999999999999E-002     3.1722421399585678E-008
  -2.0750000000000001E-002     3.2593299407992430E-008
  -2.0700000000000000E-002     3.3487965644591101E-008
  -2.0649999999999998E-002     3.4407024002084303E-008
  -2.0600000000000000E-002     3.5351073865225187E-008
  -2.0549999999999999E-002     3.6320788562753811E-008
  -2.0500000000000001E-002     3.7316902178935781E-008
  -2.0449999999999999E-002     3.8340150215861264E-008
  -2.0400000000000001E-002     3.9391154067295617E-008
  -2.0350000000000000E-002     4.0470293266734535E-008
  -2.0299999999999999E-002     4.1577609239667008E-008
  -2.0250000000000001E-002     4.2712759274017110E-008
  -2.0199999999999999E-002     4.3875072753125697E-008
  -2.0150000000000001E-002     4.5063691433508541E-008
  -2.0100000000000000E-002     4.6277827462972136E-008
  -2.0049999999999998E-002     4.7517026933064154E-008
  -2.0000000000000000E-002     4.8781447234160457E-008
  -1.9949999999999999E-002     5.0072031389354847E-008
  -1.9900000000000001E-002     5.1390566992080484E-008
  -1.9850000000000000E-002     5.2739587195293338E-008
  -1.9799999999999998E-002     5.4122076308891235E-008
  -1.9750000000000000E-002     5.5541098961059641E-008
  -1.9699999999999999E-002     5.6999355066371050E-008
  -1.9650000000000001E-002     5.8498811592352112E-008
  -1.9599999999999999E-002     6.0040482577306557E-008
  -1.9550000000000001E-002     6.1624446832747683E-008
  -1.9500000000000000E-002     6.3250061524203303E-008
  -1.9449999999999999E-002     6.4916404589552726E-008
  -1.9400000000000001E-002     6.6622760996278727E-008
  -1.9349999999999999E-002     6.8369109041382794E-008
  -1.9300000000000001E-002     7.0156395923359020E-008
  -1.9250000000000000E-002     7.1986543173740491E-008
  -1.9199999999999998E-002     7.3862199989488494E-008
  -1.9150000000000000E-002     7.5786257305067168E-008
  -1.9099999999999999E-002     7.7761289044501543E-008
  -1.9050000000000001E-002     7.9789067966212765E-008
  -1.9000000000000000E-002     8.1870344971764116E-008
  -1.8949999999999998E-002     8.4004918240933741E-008
  -1.8900000000000000E-002     8.6192004281239525E-008
  -1.8849999999999999E-002     8.8430841330570184E-008
  -1.8800000000000001E-002     9.0721280046985624E-008
  -1.8749999999999999E-002     9.3064183747526581E-008
  -1.8700000000000001E-002     9.5461512116879391E-008
  -1.8650000000000000E-002     9.7916030306178764E-008
  -1.8599999999999998E-002     1.0043063360734435E-007
  -1.8550000000000001E-002     1.0300758291870468E-007
  -1.8499999999999999E-002     1.0564779931140087E-007
  -1.8450000000000001E-002     1.0835054758337172E-007
  -1.8400000000000000E-002     1.1111354101943345E-007
  -1.8349999999999998E-002     1.1393359156262519E-007
  -1.8300000000000000E-002     1.1680759888076690E-007
  -1.8249999999999999E-002     1.1973357988967533E-007
  -1.8200000000000001E-002     1.2271154270248000E-007
  -1.8149999999999999E-002     1.2574384453646787E-007
  -1.8100000000000002E-002     1.2883503271735158E-007
  -1.8050000000000000E-002     1.3199099118545442E-007
  -1.7999999999999999E-002     1.3521794165258135E-007
  -1.7950000000000001E-002     1.3852128827917021E-007
  -1.7899999999999999E-002     1.4190486343133351E-007
  -1.7850000000000001E-002     1.4537060161612165E-007
  -1.7800000000000000E-002     1.4891894117972912E-007
  -1.7749999999999998E-002     1.5254960416907997E-007
  -1.7700000000000000E-002     1.5626264648757050E-007
  -1.7649999999999999E-002     1.6005939172135791E-007
  -1.7600000000000001E-002     1.6394296819474488E-007
  -1.7550000000000000E-002     1.6791819581313559E-007
  -1.7499999999999998E-002     1.7199095031008674E-007
  -1.7450000000000000E-002     1.7616714225222680E-007
  -1.7399999999999999E-002     1.8045163916199274E-007
  -1.7350000000000001E-002     1.8484739909356369E-007
  -1.7299999999999999E-002     1.8935526725754194E-007
  -1.7250000000000001E-002     1.9397435618472265E-007
  -1.7200000000000000E-002     1.9870293487042689E-007
  -1.7149999999999999E-002     2.0353970923616061E-007
  -1.7100000000000001E-002     2.0848485954810160E-007
  -1.7049999999999999E-002     2.1354072903901824E-007
  -1.7000000000000001E-002     2.1871177400339804E-007
  -1.6950000000000000E-002     2.2400380582172988E-007
  -1.6899999999999998E-002     2.2942281271595506E-007
  -1.6850000000000000E-002     2.3497338757749806E-007
  -1.6799999999999999E-002     2.4065768868088565E-007
  -1.6750000000000001E-002     2.4647474168077536E-007
  -1.6700000000000000E-002     2.5242057197416104E-007
  -1.6649999999999998E-002     2.5848908194208035E-007
  -1.6600000000000000E-002     2.6467343185224162E-007
  -1.6549999999999999E-002     2.7096755092981046E-007
  -1.6500000000000001E-002     2.7736735885619896E-007
  -1.6449999999999999E-002     2.8387148835471618E-007
  -1.6400000000000001E-002     2.9048108021068366E-007
  -1.6350000000000000E-002     2.9719916239773186E-007
  -1.6299999999999999E-002     3.0402951963561607E-007
  -1.6250000000000001E-002     3.1097527394249510E-007
  -1.6199999999999999E-002     3.1803807249983224E-007
  -1.6150000000000001E-002     3.2521750695745836E-007
  -1.6100000000000000E-002     3.3251168610903371E-007
  -1.6049999999999998E-002     3.3991783460179808E-007
  -1.6000000000000000E-002     3.4743382138559706E-007
  -1.5949999999999999E-002     3.5505929514809803E-007
  -1.5900000000000001E-002     3.6279669412265844E-007
  -1.5850000000000000E-002     3.7065154267925995E-007
  -1.5799999999999998E-002     3.7863192491938633E-007
  -1.5750000000000000E-002     3.8674736831731773E-007
  -1.5699999999999999E-002     3.9500753651343267E-007
  -1.5650000000000001E-002     4.0342070604788866E-007
  -1.5599999999999999E-002     4.1199298781014351E-007
  -1.5550000000000001E-002     4.2072796677554746E-007
  -1.5500000000000000E-002     4.2962724648094873E-007
  -1.5449999999999998E-002     4.3869161487280710E-007
  -1.5400000000000000E-002     4.4792256841375876E-007
  -1.5349999999999999E-002     4.5732346041448755E-007
  -1.5300000000000001E-002     4.6690038334444970E-007
  -1.5250000000000000E-002     4.7666217582153401E-007
  -1.5199999999999998E-002     4.8661962097028593E-007
  -1.5150000000000000E-002     4.9678424668758395E-007
  -1.5099999999999999E-002     5.0716674738556809E-007
  -1.5050000000000001E-002     5.1777539363858739E-007
  -1.4999999999999999E-002     5.2861552081358497E-007
  -1.4949999999999998E-002     5.3968935288949938E-007
  -1.4900000000000000E-002     5.5099679038793611E-007
  -1.4849999999999999E-002     5.6253683028515840E-007
  -1.4800000000000001E-002     5.7430898962454052E-007
  -1.4749999999999999E-002     5.8631463051642977E-007
  -1.4700000000000001E-002     5.9855751023479277E-007
  -1.4650000000000000E-002     6.1104380232906385E-007
  -1.4599999999999998E-002     6.2378073067167706E-007
  -1.4550000000000000E-002     6.3677537844048236E-007
  -1.4499999999999999E-002     6.5003312238817614E-007
  -1.4450000000000001E-002     6.6355648357952670E-007
  -1.4400000000000000E-002     6.7734509962598241E-007
  -1.4349999999999998E-002     6.9139605945565381E-007
  -1.4300000000000000E-002     7.0570555026200411E-007
  -1.4249999999999999E-002     7.2027045913611883E-007
  -1.4200000000000001E-002     7.3508990253005539E-007
  -1.4149999999999999E-002     7.5016606022260974E-007
  -1.4099999999999998E-002     7.6550418808392028E-007
  -1.4050000000000000E-002     7.8111200543254611E-007
  -1.3999999999999999E-002     7.9699764295868743E-007
  -1.3950000000000001E-002     8.1316848181925410E-007
  -1.3899999999999999E-002     8.2962940559124372E-007
  -1.3850000000000001E-002     8.4638231934373781E-007
  -1.3800000000000000E-002     8.6342660379797122E-007
  -1.3749999999999998E-002     8.8075989409687060E-007
  -1.3700000000000000E-002     8.9837977421564300E-007
  -1.3649999999999999E-002     9.1628535901992513E-007
  -1.3600000000000001E-002     9.3447822638304282E-007
  -1.3550000000000000E-002     9.5296290013751423E-007
  -1.3499999999999998E-002     9.7174631469731397E-007
  -1.3450000000000000E-002     9.9083672528263629E-007
  -1.3399999999999999E-002     1.0102421450504696E-006
  -1.3350000000000001E-002     1.0299692669871783E-006
  -1.3299999999999999E-002     1.0500227936506667E-006
  -1.3249999999999998E-002     1.0704050486376833E-006
  -1.3200000000000000E-002     1.0911170970492589E-006
  -1.3149999999999998E-002     1.1121593290618362E-006
  -1.3100000000000001E-002     1.1335329583534950E-006
  -1.3049999999999999E-002     1.1552405278022136E-006
  -1.3000000000000001E-002     1.1772863712023582E-006
  -1.2950000000000000E-002     1.1996759336076161E-006
  -1.2899999999999998E-002     1.2224147970866203E-006
  -1.2850000000000000E-002     1.2455077291210196E-006
  -1.2799999999999999E-002     1.2689579679072648E-006