  -4.0000000000000001E-002     0.0000000000000000     
  -3.9949999999999999E-002     0.0000000000000000     
  -3.9899999999999998E-002     0.0000000000000000     
  -3.9850000000000003E-002     0.0000000000000000     
  -3.9800000000000002E-002     0.0000000000000000     
  -3.9750000000000001E-002     0.0000000000000000     
  -3.9699999999999999E-002     0.0000000000000000     
  -3.9649999999999998E-002     0.0000000000000000     
  -3.9600000000000003E-002     0.0000000000000000     
  -3.9550000000000002E-002     0.0000000000000000     
  -3.9500000000000000E-002     0.0000000000000000     
  -3.9449999999999999E-002     0.0000000000000000     
  -3.9399999999999998E-002     0.0000000000000000     
  -3.9350000000000003E-002     0.0000000000000000     
  -3.9300000000000002E-002     0.0000000000000000     
  -3.9250000000000000E-002     0.0000000000000000     
  -3.9199999999999999E-002     0.0000000000000000     
  -3.9150000000000004E-002     0.0000000000000000     
  -3.9100000000000003E-002     0.0000000000000000     
  -3.9050000000000001E-002     0.0000000000000000     
  -3.9000000000000000E-002     0.0000000000000000     
  -3.8949999999999999E-002     0.0000000000000000     
  -3.8900000000000004E-002     0.0000000000000000     
  -3.8850000000000003E-002     0.0000000000000000     
  -3.8800000000000001E-002     0.0000000000000000     
  -3.8750000000000000E-002     0.0000000000000000     
  -3.8699999999999998E-002     0.0000000000000000     
  -3.8650000000000004E-002     0.0000000000000000     
  -3.8600000000000002E-002     0.0000000000000000     
  -3.8550000000000001E-002     0.0000000000000000     
  -3.8500000000000000E-002     0.0000000000000000     
  -3.8449999999999998E-002     0.0000000000000000     
  -3.8400000000000004E-002     0.0000000000000000     
  -3.8350000000000002E-002     0.0000000000000000     
  -3.8300000000000001E-002     0.0000000000000000     
  -3.8249999999999999E-002     0.0000000000000000     
  -3.8199999999999998E-002     0.0000000000000000     
  -3.8150000000000003E-002     0.0000000000000000     
  -3.8100000000000002E-002     0.0000000000000000     
  -3.8050000000000000E-002     0.0000000000000000     
  -3.7999999999999999E-002     0.0000000000000000     
  -3.7949999999999998E-002     0.0000000000000000     
  -3.7900000000000003E-002     0.0000000000000000     
  -3.7850000000000002E-002     0.0000000000000000     
  -3.7800000000000000E-002     0.0000000000000000     
  -3.7749999999999999E-002     0.0000000000000000     
  -3.7699999999999997E-002     0.0000000000000000     
  -3.7650000000000003E-002     0.0000000000000000     
  -3.7600000000000001E-002     0.0000000000000000     
  -3.7550000000000000E-002     0.0000000000000000     
  -3.7499999999999999E-002     0.0000000000000000     
  -3.7449999999999997E-002     0.0000000000000000     
  -3.7400000000000003E-002     0.0000000000000000     
  -3.7350000000000001E-002     0.0000000000000000     
  -3.7300000000000000E-002     0.0000000000000000     
  -3.7249999999999998E-002     0.0000000000000000     
  -3.7200000000000004E-002     0.0000000000000000     
  -3.7150000000000002E-002     0.0000000000000000     
  -3.7100000000000001E-002     0.0000000000000000     
  -3.7050000000000000E-002     0.0000000000000000     
  -3.6999999999999998E-002     0.0000000000000000     
  -3.6950000000000004E-002     0.0000000000000000     
  -3.6900000000000002E-002     0.0000000000000000     
  -3.6850000000000001E-002     0.0000000000000000     
  -3.6799999999999999E-002     0.0000000000000000     
  -3.6749999999999998E-002     0.0000000000000000     
  -3.6700000000000003E-002     0.0000000000000000     
  -3.6650000000000002E-002     0.0000000000000000     
  -3.6600000000000001E-002     0.0000000000000000     
  -3.6549999999999999E-002     0.0000000000000000     
  -3.6499999999999998E-002     0.0000000000000000     
  -3.6450000000000003E-002     0.0000000000000000     
  -3.6400000000000002E-002     0.0000000000000000     
  -3.6350000000000000E-002     0.0000000000000000     
  -3.6299999999999999E-002     0.0000000000000000     
  -3.6249999999999998E-002     0.0000000000000000     
  -3.6200000000000003E-002     0.0000000000000000     
  -3.6150000000000002E-002     0.0000000000000000     
  -3.6100000000000000E-002     0.0000000000000000     
  -3.6049999999999999E-002     0.0000000000000000     
  -3.6000000000000004E-002     0.0000000000000000     
  -3.5950000000000003E-002     0.0000000000000000     
  -3.5900000000000001E-002     0.0000000000000000     
  -3.5850000000000000E-002     0.0000000000000000     
  -3.5799999999999998E-002     0.0000000000000000     
  -3.5750000000000004E-002     0.0000000000000000     
  -3.5700000000000003E-002     0.0000000000000000     
  -3.5650000000000001E-002     0.0000000000000000     
  -3.5600000000000000E-002     0.0000000000000000     
  -3.5549999999999998E-002     0.0000000000000000     
  -3.5500000000000004E-002     0.0000000000000000     
  -3.5450000000000002E-002     0.0000000000000000     
  -3.5400000000000001E-002     0.0000000000000000     
  -3.5349999999999999E-002     0.0000000000000000     
  -3.5299999999999998E-002     0.0000000000000000     
  -3.5250000000000004E-002     0.0000000000000000     
  -3.5200000000000002E-002     0.0000000000000000     
  -3.5150000000000001E-002     0.0000000000000000     
  -3.5099999999999999E-002     0.0000000000000000     
  -3.5049999999999998E-002     0.0000000000000000     
  -3.5000000000000003E-002     0.0000000000000000     
  -3.4950000000000002E-002     0.0000000000000000     
  -3.4900000000000000E-002     0.0000000000000000     
  -3.4849999999999999E-002     0.0000000000000000     
  -3.4799999999999998E-002     0.0000000000000000     
  -3.4750000000000003E-002     0.0000000000000000     
  -3.4700000000000002E-002     0.0000000000000000     
  -3.4650000000000000E-002     0.0000000000000000     
  -3.4599999999999999E-002     0.0000000000000000     
  -3.4549999999999997E-002     0.0000000000000000     
  -3.4500000000000003E-002     0.0000000000000000     
  -3.4450000000000001E-002     0.0000000000000000     
  -3.4400000000000000E-002     0.0000000000000000     
  -3.4349999999999999E-002     0.0000000000000000     
  -3.4299999999999997E-002     0.0000000000000000     
  -3.4250000000000003E-002     0.0000000000000000     
  -3.4200000000000001E-002     0.0000000000000000     
  -3.4150000000000000E-002     0.0000000000000000     
  -3.4099999999999998E-002     0.0000000000000000     
  -3.4049999999999997E-002     0.0000000000000000     
  -3.4000000000000002E-002     0.0000000000000000     
  -3.3950000000000001E-002     0.0000000000000000     
  -3.3900000000000000E-002     0.0000000000000000     
  -3.3849999999999998E-002     0.0000000000000000     
  -3.3799999999999997E-002     0.0000000000000000     
  -3.3750000000000002E-002     0.0000000000000000     
  -3.3700000000000001E-002     0.0000000000000000     
  -3.3649999999999999E-002     0.0000000000000000     
  -3.3599999999999998E-002     0.0000000000000000     
  -3.3550000000000003E-002     0.0000000000000000     
  -3.3500000000000002E-002     0.0000000000000000     
  -3.3450000000000001E-002     0.0000000000000000     
  -3.3399999999999999E-002     0.0000000000000000     
  -3.3349999999999998E-002     0.0000000000000000     
  -3.3300000000000003E-002     0.0000000000000000     
  -3.3250000000000002E-002     0.0000000000000000     
  -3.3200000000000000E-002     0.0000000000000000     
  -3.3149999999999999E-002     0.0000000000000000     
  -3.3099999999999997E-002     0.0000000000000000     
  -3.3050000000000003E-002     0.0000000000000000     
  -3.3000000000000002E-002     0.0000000000000000     
  -3.2950000000000000E-002     0.0000000000000000     
  -3.2899999999999999E-002     0.0000000000000000     
  -3.2850000000000004E-002     0.0000000000000000     
  -3.2800000000000003E-002     0.0000000000000000     
  -3.2750000000000001E-002     0.0000000000000000     
  -3.2700000000000000E-002     0.0000000000000000     
  -3.2649999999999998E-002     0.0000000000000000     
  -3.2600000000000004E-002     0.0000000000000000     
  -3.2550000000000003E-002     0.0000000000000000     
  -3.2500000000000001E-002     0.0000000000000000     
  -3.2450000000000000E-002    -1.6668249755294915E-040
  -3.2399999999999998E-002    -1.6668249755294915E-040
  -3.2350000000000004E-002     1.2313808884880024E-040
  -3.2300000000000002E-002     1.2327505833938903E-040
  -3.2250000000000001E-002    -4.9822954349894721E-040
  -3.2199999999999999E-002    -1.3704042266913470E-039
  -3.2149999999999998E-002    -1.3566456682338871E-039
  -3.2100000000000004E-002     7.2792799531034150E-040
  -3.2050000000000002E-002     5.8705831977876343E-039
  -3.2000000000000001E-002     1.2439148846458555E-038
  -3.1949999999999999E-002     1.5941252162360741E-038
  -3.1899999999999998E-002     1.0308313226405126E-038
  -3.1850000000000003E-002    -4.8484501202221346E-038
  -3.1800000000000002E-002    -1.4825577338642235E-037
  -3.1750000000000000E-002    -2.5206933667152082E-037
  -3.1699999999999999E-002    -2.7894319320580188E-037
  -3.1649999999999998E-002    -1.3863512205055742E-037
  -3.1600000000000003E-002     2.1459618931687444E-037
  -3.1550000000000002E-002     7.3650259864942108E-037
  -3.1500000000000000E-002     1.2732011803116203E-036
  -3.1449999999999999E-002     1.5844061314862083E-036
  -3.1399999999999997E-002     1.3909507304881972E-036
  -3.1350000000000003E-002     4.6344894588801787E-037
  -3.1300000000000001E-002    -1.2638928339745702E-036
  -3.1250000000000000E-002    -3.5841168288138268E-036
  -3.1199999999999999E-002    -5.9372051712888533E-036
  -3.1150000000000001E-002    -7.4129332269129297E-036
  -3.1100000000000003E-002    -6.8902947908203516E-036
  -3.1050000000000001E-002    -3.3505974585071401E-036
  -3.1000000000000000E-002     3.6613251562963927E-036
  -3.0949999999999998E-002     1.3521245896524601E-035
  -3.0900000000000000E-002     2.4132558006498419E-035
  -3.0850000000000002E-002     3.1878277403842153E-035
  -3.0800000000000001E-002     3.2140302585407659E-035
  -3.0750000000000000E-002     2.0519434348007324E-035
  -3.0699999999999998E-002    -5.3020106227905322E-036
  -3.0650000000000000E-002    -4.3434157414399736E-035
  -3.0600000000000002E-002    -8.6138194416638760E-035
  -3.0550000000000001E-002    -1.1969866892484360E-034
  -3.0499999999999999E-002    -1.2678910430799321E-034
  -3.0449999999999998E-002    -9.1710010307715917E-035
  -3.0400000000000000E-002    -7.6750814212450492E-036
  -3.0350000000000002E-002     1.1619327389394963E-034
  -3.0300000000000001E-002     2.5164541127192930E-034
  -3.0249999999999999E-002     3.5523314299946218E-034
  -3.0200000000000001E-002     3.8069880844600375E-034
  -3.0150000000000000E-002     2.9724279025241471E-034
  -3.0100000000000002E-002     1.0664461613951406E-034
  -3.0050000000000000E-002    -1.5038360501346701E-034
  -2.9999999999999999E-002    -4.0636558505197414E-034
  -2.9950000000000001E-002    -5.9781484257661309E-034
  -2.9899999999999999E-002    -7.0267865000224669E-034
  -2.9850000000000002E-002    -7.6156270743513179E-034
  -2.9800000000000000E-002    -8.5751871067256667E-034
  -2.9749999999999999E-002    -1.0425256368299396E-033
  -2.9700000000000001E-002    -1.2290054194156770E-033
  -2.9650000000000003E-002    -1.1029683656092747E-033
  -2.9600000000000001E-002    -1.4218346161742450E-034
  -2.9550000000000000E-002     2.1865648057739277E-033
  -2.9499999999999998E-002     6.0404449575165390E-033
  -2.9450000000000000E-002     1.0726777073021620E-032
  -2.9400000000000003E-002     1.4373294493828333E-032
  -2.9350000000000001E-002     1.4048797825414771E-032
  -2.9300000000000000E-002     6.5874482845142856E-033
  -2.9249999999999998E-002    -9.8599484415057349E-033
  -2.9200000000000000E-002    -3.3908764788190016E-032
  -2.9150000000000002E-002    -5.9438416277899396E-032
  -2.9100000000000001E-002    -7.5537455220240334E-032
  -2.9049999999999999E-002    -6.8787125083361452E-032
  -2.8999999999999998E-002    -2.8103160276902082E-032
  -2.8950000000000000E-002     4.8781742406802870E-032
  -2.8900000000000002E-002     1.4938636567150659E-031
  -2.8850000000000001E-002     2.4414472836303135E-031
  -2.8799999999999999E-002     2.9053034403366304E-031
  -2.8749999999999998E-002     2.4490157245644017E-031
  -2.8700000000000000E-002     8.0417784246155039E-032
  -2.8650000000000002E-002    -1.9406064107396633E-031
  -2.8600000000000000E-002    -5.2177964351947337E-031
  -2.8549999999999999E-002    -8.0055295185375345E-031
  -2.8500000000000001E-002    -9.0469459117783104E-031
  -2.8450000000000000E-002    -7.2483360705556683E-031
  -2.8400000000000002E-002    -2.1596762399052562E-031
  -2.8350000000000000E-002     5.6265391741651274E-031
  -2.8299999999999999E-002     1.4343258808718735E-030
  -2.8250000000000001E-002     2.1318874043353643E-030
  -2.8200000000000003E-002     2.3663117328200261E-030
  -2.8150000000000001E-002     1.9220629713733225E-030
  -2.8100000000000000E-002     7.4987054763949286E-031
  -2.8049999999999999E-002    -9.7852923941041140E-031
  -2.8000000000000001E-002    -2.8820058516294006E-030
  -2.7950000000000003E-002    -4.4557199945005568E-030
  -2.7900000000000001E-002    -5.2103191821207329E-030
  -2.7850000000000000E-002    -4.8189883386961894E-030
  -2.7799999999999998E-002    -3.2170143866176859E-030
  -2.7750000000000000E-002    -6.1242658828433327E-031
  -2.7700000000000002E-002     2.5972532428650425E-030
  -2.7650000000000001E-002     5.9605967736003680E-030
  -2.7600000000000000E-002     9.0834850678630195E-030
  -2.7549999999999998E-002     1.1637938494471623E-029
  -2.7500000000000000E-002     1.3235605596384363E-029
  -2.7450000000000002E-002     1.3216979991423133E-029
  -2.7400000000000001E-002     1.0499354889090160E-029
  -2.7349999999999999E-002     3.6782406969769629E-030
  -2.7299999999999998E-002    -8.4595572765726889E-030
  -2.7250000000000000E-002    -2.6001489649627465E-029
  -2.7200000000000002E-002    -4.6782067606915793E-029
  -2.7150000000000001E-002    -6.5543260001637658E-029
  -2.7099999999999999E-002    -7.4009993475949632E-029
  -2.7049999999999998E-002    -6.2429207005257274E-029
  -2.7000000000000000E-002    -2.2744002457059378E-029
  -2.6950000000000002E-002     4.7071186556887304E-029
  -2.6900000000000000E-002     1.3874036831295597E-028
  -2.6849999999999999E-002     2.3129107438257197E-028
  -2.6800000000000001E-002     2.9244325386758992E-028
  -2.6749999999999999E-002     2.8505267142203359E-028
  -2.6700000000000002E-002     1.7846051082685976E-028
  -2.6650000000000000E-002    -3.7361423501371784E-029
  -2.6599999999999999E-002    -3.3893270178836947E-028
  -2.6550000000000001E-002    -6.6291363813748349E-028
  -2.6500000000000003E-002    -9.1124517917343312E-028
  -2.6450000000000001E-002    -9.7051443189218392E-028
  -2.6400000000000000E-002    -7.4423905471938748E-028
  -2.6349999999999998E-002    -1.9173540401950297E-028
  -2.6300000000000000E-002     6.3731753920535174E-028
  -2.6250000000000002E-002     1.5858293528500935E-027
  -2.6200000000000001E-002     2.4015120508247646E-027
  -2.6150000000000000E-002     2.7841737409485656E-027
  -2.6099999999999998E-002     2.4641463353446151E-027
  -2.6050000000000000E-002     1.2964737510481089E-027
  -2.6000000000000002E-002    -6.5426608862797121E-028
  -2.5950000000000001E-002    -3.0679895221372768E-027
  -2.5899999999999999E-002    -5.3875056446666123E-027
  -2.5849999999999998E-002    -6.9136310464689330E-027
  -2.5800000000000000E-002    -6.9689092122966762E-027
  -2.5750000000000002E-002    -5.0988440457994551E-027
  -2.5700000000000001E-002    -1.2608200880267102E-027
  -2.5649999999999999E-002     4.0568479128540540E-027
  -2.5599999999999998E-002     9.8353014189703539E-027
  -2.5550000000000000E-002     1.4670310688531514E-026
  -2.5500000000000002E-002     1.7051667891199504E-026
  -2.5450000000000000E-002     1.5727597904085150E-026
  -2.5399999999999999E-002     1.0074743965273647E-026
  -2.5349999999999998E-002     3.8225243765601487E-028
  -2.5300000000000000E-002    -1.2030403690713799E-026
  -2.5250000000000002E-002    -2.4909761636400478E-026
  -2.5200000000000000E-002    -3.5381837499952772E-026
  -2.5149999999999999E-002    -4.0440886923881835E-026
  -2.5100000000000001E-002    -3.7539039333082566E-026
  -2.5049999999999999E-002    -2.5188118616943071E-026
  -2.5000000000000001E-002    -3.4873715576387454E-027
  -2.4950000000000000E-002     2.5500616004335746E-026
  -2.4899999999999999E-002     5.7600094050917252E-026
  -2.4850000000000001E-002     8.6681453031597862E-026
  -2.4800000000000003E-002     1.0522660411762260E-025
  -2.4750000000000001E-002     1.0539475494156133E-025
  -2.4700000000000000E-002     8.0630986082985052E-026
  -2.4649999999999998E-002     2.7730956025689827E-026
  -2.4600000000000000E-002    -5.0935348028784201E-026
  -2.4550000000000002E-002    -1.4559237961221971E-025
  -2.4500000000000001E-002    -2.3838608134118564E-025
  -2.4450000000000000E-002    -3.0468963007540609E-025
  -2.4399999999999998E-002    -3.1698714797886352E-025
  -2.4350000000000000E-002    -2.5137318978377416E-025
  -2.4299999999999999E-002    -9.5846463981461858E-026
  -2.4250000000000001E-002     1.4140446855886163E-025
  -2.4199999999999999E-002     4.2632323663107728E-025
  -2.4150000000000001E-002     6.9876553829544076E-025
  -2.4100000000000000E-002     8.7997970135293547E-025
  -2.4049999999999998E-002     8.8843533447371977E-025
  -2.4000000000000000E-002     6.6224413939755759E-025
  -2.3949999999999999E-002     1.8370933605927219E-025
  -2.3900000000000001E-002    -5.0066258239464669E-025
  -2.3850000000000000E-002    -1.2721870962981225E-024
  -2.3800000000000002E-002    -1.9503041553598759E-024
  -2.3750000000000000E-002    -2.3238222337992144E-024
  -2.3699999999999999E-002    -2.2003114797651042E-024
  -2.3650000000000001E-002    -1.4646921932795204E-024
  -2.3599999999999999E-002    -1.3288611368843301E-025
  -2.3550000000000001E-002     1.6159584574100607E-024
  -2.3500000000000000E-002     3.4432886131804324E-024
  -2.3449999999999999E-002     4.8991008636397715E-024
  -2.3400000000000001E-002     5.5117410434728476E-024
  -2.3349999999999999E-002     4.9052498494306424E-024
  -2.3300000000000001E-002     2.9193260991502725E-024
  -2.3250000000000000E-002    -2.9894538849851888E-025
  -2.3199999999999998E-002    -4.2612327732046122E-024
  -2.3150000000000000E-002    -8.1823191846084747E-024
  -2.3099999999999999E-002    -1.1106880753985444E-023
  -2.3050000000000001E-002    -1.2103072067326874E-023
  -2.3000000000000000E-002    -1.0488421223453316E-023
  -2.2950000000000002E-002    -6.0404306511806773E-024
  -2.2900000000000000E-002     8.5920885364793563E-025
  -2.2849999999999999E-002     9.1901117608786040E-024
  -2.2800000000000001E-002     1.7393418163213986E-023
  -2.2749999999999999E-002     2.3606403509359521E-023
  -2.2700000000000001E-002     2.6003584078978219E-023
  -2.2650000000000000E-002     2.3192027004143313E-023
  -2.2599999999999999E-002     1.4591698021315542E-023
  -2.2550000000000001E-002     7.2537591697161121E-025
  -2.2499999999999999E-002    -1.6652363523374984E-023
  -2.2450000000000001E-002    -3.4641384471890978E-023
  -2.2400000000000000E-002    -4.9525663291228943E-023
  -2.2349999999999998E-002    -5.7339760670717486E-023
  -2.2300000000000000E-002    -5.4623438395106841E-023
  -2.2249999999999999E-002    -3.9269431136559825E-023
  -2.2200000000000001E-002    -1.1323817768289494E-023
  -2.2150000000000000E-002     2.6437358060052739E-023
  -2.2100000000000002E-002     6.8345036449080042E-023
  -2.2050000000000000E-002     1.0625422884406224E-022
  -2.1999999999999999E-002     1.3063636086199652E-022
  -2.1950000000000001E-002     1.3231839567420550E-022
  -2.1899999999999999E-002     1.0467486047951750E-022
  -2.1850000000000001E-002     4.5900284309266860E-023
  -2.1800000000000000E-002    -3.9160461602925709E-023
  -2.1749999999999999E-002    -1.3821115207718828E-022
  -2.1700000000000001E-002    -2.3225362765545801E-022
  -2.1649999999999999E-002    -2.9818035441055953E-022
  -2.1600000000000001E-002    -3.1312207887361082E-022
  -2.1550000000000000E-002    -2.5998428721727500E-022
  -2.1499999999999998E-002    -1.3313130353845812E-022
  -2.1450000000000000E-002     5.7163223948199856E-023
  -2.1399999999999999E-002     2.8295362119678984E-022
  -2.1350000000000001E-002     5.0071171022633004E-022
  -2.1299999999999999E-002     6.5776046141537592E-022
  -2.1250000000000002E-002     7.0256691060529881E-022
  -2.1200000000000000E-002     5.9731065871299858E-022
  -2.1149999999999999E-002     3.3018571874632486E-022
  -2.1100000000000001E-002    -7.5643759103267881E-023
  -2.1049999999999999E-002    -5.5938831847297948E-022
  -2.1000000000000001E-002    -1.0283367847481719E-021
  -2.0950000000000000E-002    -1.3723721822389462E-021
  -2.0899999999999998E-002    -1.4857035684297798E-021
  -2.0850000000000000E-002    -1.2921537864736959E-021
  -2.0799999999999999E-002    -7.6877208093101136E-022
  -2.0750000000000001E-002     3.8054392427484198E-023
  -2.0700000000000000E-002     1.0091297500110615E-021
  -2.0649999999999998E-002     1.9647401612041795E-021
  -2.0600000000000000E-002     2.6927567525598033E-021
  -2.0549999999999999E-002     2.9890304247034276E-021
  -2.0500000000000001E-002     2.7032641621705395E-021
  -2.0449999999999999E-002     1.7812911937783836E-021
  -2.0400000000000001E-002     2.9410205486075566E-022
  -2.0350000000000000E-002    -1.5546051056307333E-021
  -2.0299999999999999E-002    -3.4472724186586223E-021
  -2.0250000000000001E-002    -4.9979197986163310E-021
  -2.0199999999999999E-002    -5.8190625999206648E-021
  -2.0150000000000001E-002    -5.6000947808094064E-021
  -2.0100000000000000E-002    -4.1835650430552543E-021
  -2.0049999999999998E-002    -1.6243115450438635E-021
  -2.0000000000000000E-002     1.7825536865417748E-021
  -1.9949999999999999E-002     5.5152011181995148E-021
  -1.9900000000000001E-002     8.8847638009545638E-021
  -1.9850000000000000E-002     1.1138264916953919E-020
  -1.9799999999999998E-002     1.1593739187244184E-020
  -1.9750000000000000E-002     9.7886513669970923E-021
  -1.9699999999999999E-002     5.6164622171688444E-021
  -1.9650000000000001E-002    -5.7712720108058039E-022
  -1.9599999999999999E-002    -7.9657407208419017E-021
  -1.9550000000000001E-002    -1.5302865799675423E-020
  -1.9500000000000000E-002    -2.1080421253590524E-020
  -1.9449999999999999E-002    -2.3777089082870020E-020
  -1.9400000000000001E-002    -2.2167536230928279E-020
  -1.9349999999999999E-002    -1.5643329615626633E-020
  -1.9300000000000001E-002    -4.4807929082979685E-021
  -1.9250000000000000E-002     1.0014531344132200E-020
  -1.9199999999999998E-002     2.5548464088297500E-020
  -1.9150000000000000E-002     3.9100316389087948E-020
  -1.9099999999999999E-002     4.7402765999049173E-020
  -1.9050000000000001E-002     4.7585619839706373E-020
  -1.9000000000000000E-002     3.7879378142539367E-020
  -1.8949999999999998E-002     1.8236122028733563E-020
  -1.8900000000000000E-002    -9.2891240171592768E-021
  -1.8849999999999999E-002    -4.0534400469413937E-020
  -1.8800000000000001E-002    -6.9686594271569273E-020
  -1.8749999999999999E-002    -9.0192702657838292E-020
  -1.8700000000000001E-002    -9.6018058204429917E-020
  -1.8650000000000000E-002    -8.3042881943799786E-020
  -1.8599999999999998E-002    -5.0316272087298335E-020
  -1.8550000000000001E-002    -8.6519144666871803E-022
  -1.8499999999999999E-002     5.8200960388803263E-020
  -1.8450000000000001E-002     1.1644035193858657E-019
  -1.8400000000000000E-002     1.6167213057763302E-019
  -1.8349999999999998E-002     1.8221630232743964E-019
  -1.8300000000000000E-002     1.6941184093822491E-019
  -1.8249999999999999E-002     1.1992647807882540E-019
  -1.8200000000000001E-002     3.7341622728607548E-020
  -1.8149999999999999E-002    -6.7429210385710095E-020
  -1.8100000000000002E-002    -1.7715161468995759E-019
  -1.8050000000000000E-002    -2.7071824586938008E-019
  -1.7999999999999999E-002    -3.2675027162028920E-019
  -1.7950000000000001E-002    -3.2780015795733148E-019
  -1.7899999999999999E-002    -2.6441190321479563E-019
  -1.7850000000000001E-002    -1.3822661222079130E-019
  -1.7800000000000000E-002     3.6600359440495116E-020
  -1.7749999999999998E-002     2.3417712140051028E-019
  -1.7700000000000000E-002     4.2000870282425197E-019
  -1.7649999999999999E-002     5.5623281594902943E-019
  -1.7600000000000001E-002     6.0828581441278245E-019
  -1.7550000000000000E-002     5.5197790487532116E-019
  -1.7499999999999998E-002     3.7974072804622738E-019
  -1.7450000000000000E-002     1.0477883054356378E-019
  -1.7399999999999999E-002    -2.3796143321626925E-019
  -1.7350000000000001E-002    -5.9469936840341176E-019
  -1.7299999999999999E-002    -8.9972006728547547E-019
  -1.7250000000000001E-002    -1.0856910863580265E-018
  -1.7200000000000000E-002    -1.0961009343056153E-018
  -1.7149999999999999E-002    -8.9789779619329779E-019
  -1.7100000000000001E-002    -4.9200559933746874E-019
  -1.7049999999999999E-002     8.0668177056038122E-020
  -1.7000000000000001E-002     7.3974268230205053E-019
  -1.6950000000000000E-002     1.3735667275820551E-018
  -1.6899999999999998E-002     1.8550388223683258E-018
  -1.6850000000000000E-002     2.0634574430371319E-018
  -1.6799999999999999E-002     1.9092948117741862E-018
  -1.6750000000000001E-002     1.3575468209895002E-018
  -1.6700000000000000E-002     4.4471816930344055E-019
  -1.6649999999999998E-002    -7.1522296750153552E-019
  -1.6600000000000000E-002    -1.9392561634672330E-018
  -1.6549999999999999E-002    -2.9991285668946109E-018
  -1.6500000000000001E-002    -3.6586376012355031E-018
  -1.6449999999999999E-002    -3.7192709092048418E-018
  -1.6400000000000001E-002    -3.0663923226686067E-018
  -1.6350000000000000E-002    -1.7066298788583731E-018
  -1.6299999999999999E-002     2.1273512359768729E-019
  -1.6250000000000001E-002     2.4094367849230077E-018
  -1.6199999999999999E-002     4.5000102072095790E-018
  -1.6150000000000001E-002     6.0594367718359577E-018
  -1.6100000000000000E-002     6.6986908163762287E-018
  -1.6049999999999998E-002     6.1472936457243619E-018
  -1.6000000000000000E-002     4.3249928541751713E-018
  -1.5949999999999999E-002     1.3865558845259848E-018
  -1.5900000000000001E-002    -2.2731973969759537E-018
  -1.5850000000000000E-002    -6.0607908232208216E-018
  -1.5799999999999998E-002    -9.2702147425555662E-018
  -1.5750000000000000E-002    -1.1202986768053983E-017
  -1.5699999999999999E-002    -1.1303284295570748E-017
  -1.5650000000000001E-002    -9.2840369500480884E-018
  -1.5599999999999999E-002    -5.2186081365423772E-018
  -1.5550000000000001E-002     4.2368447605839062E-019
  -1.5500000000000000E-002     6.8119253858837256E-018
  -1.5449999999999998E-002     1.2860018874410182E-017
  -1.5400000000000000E-002     1.7394247103696216E-017
  -1.5349999999999999E-002     1.9358609499576840E-017
  -1.5300000000000001E-002     1.8025064834333695E-017
  -1.5250000000000000E-002     1.3171176764228609E-017
  -1.5199999999999998E-002     5.1891513667473414E-018
  -1.5150000000000000E-002    -4.9018524990395836E-018
  -1.5099999999999999E-002    -1.5554676898218707E-017
  -1.5050000000000001E-002    -2.4901286991243798E-017
  -1.4999999999999999E-002    -3.1045772284706865E-017
  -1.4949999999999998E-002    -3.2403098463688213E-017
  -1.4900000000000000E-002    -2.8030090176166820E-017
  -1.4849999999999999E-002    -1.7888869442002394E-017
  -1.4800000000000001E-002    -2.9860888559220689E-018
  -1.4749999999999999E-002     1.4655444619704759E-017
  -1.4700000000000001E-002     3.2213181768771661E-017
  -1.4650000000000000E-002     4.6459415292926951E-017
  -1.4599999999999998E-002     5.4290443242027623E-017
  -1.4550000000000000E-002     5.3315099578068344E-017
  -1.4499999999999999E-002     4.2403817840373703E-017
  -1.4450000000000001E-002     2.2090316187126489E-017
  -1.4400000000000000E-002    -5.2729522951980662E-018
  -1.4349999999999998E-002    -3.5674492403628007E-017
  -1.4300000000000000E-002    -6.3939326468457458E-017
  -1.4249999999999999E-002    -8.4520380876863759E-017
  -1.4200000000000001E-002    -9.2482048864510693E-017
  -1.4149999999999999E-002    -8.4518205878723582E-017
  -1.4099999999999998E-002    -5.9815003499117522E-017
  -1.4050000000000000E-002    -2.0568928863760891E-017
  -1.3999999999999999E-002     2.7991521856260877E-017
  -1.3950000000000001E-002     7.8158176811473431E-017
  -1.3899999999999999E-002     1.2084641821244845E-016
  -1.3850000000000001E-002     1.4711521985723026E-016
  -1.3800000000000000E-002     1.4986942478597409E-016
  -1.3749999999999998E-002     1.2544190355430917E-016
  -1.3700000000000000E-002     7.4735997123856909E-017
  -1.3649999999999999E-002     3.6527148702909535E-018
  -1.3600000000000001E-002    -7.7370008005455413E-017
  -1.3550000000000000E-002    -1.5472859799133635E-016
  -1.3499999999999998E-002    -2.1378625911608274E-016
  -1.3450000000000000E-002    -2.4145512770536729E-016
  -1.3399999999999999E-002    -2.2879596721144348E-016
  -1.3350000000000001E-002    -1.7315235919985945E-016
  -1.3299999999999999E-002    -7.9372758801833306E-017
  -1.3249999999999998E-002     4.0204354858395792E-017
  -1.3200000000000000E-002     1.6713077056656900E-016
  -1.3149999999999998E-002     2.7948674631329063E-016
  -1.3100000000000001E-002     3.5543042327379658E-016
  -1.3049999999999999E-002     3.7711510901822187E-016
  -1.3000000000000001E-002     3.3431347238646824E-016
  -1.2950000000000000E-002     2.2707760925418908E-016
  -1.2899999999999998E-002     6.6869763215564864E-017
  -1.2850000000000000E-002    -1.2418926372808617E-016
  -1.2799999999999999E-002    -3.1601562860218547E-016