  -4.0000000000000001E-002     0.0000000000000000     
  -3.9949999999999999E-002     0.0000000000000000     
  -3.9899999999999998E-002     0.0000000000000000     
  -3.9850000000000003E-002     0.0000000000000000     
  -3.9800000000000002E-002     0.0000000000000000     
  -3.9750000000000001E-002     0.0000000000000000     
  -3.9699999999999999E-002     0.0000000000000000     
  -3.9649999999999998E-002     0.0000000000000000     
  -3.9600000000000003E-002     0.0000000000000000     
  -3.9550000000000002E-002     0.0000000000000000     
  -3.9500000000000000E-002     0.0000000000000000     
  -3.9449999999999999E-002     0.0000000000000000     
  -3.9399999999999998E-002     0.0000000000000000     
  -3.9350000000000003E-002     0.0000000000000000     
  -3.9300000000000002E-002     0.0000000000000000     
  -3.9250000000000000E-002     0.0000000000000000     
  -3.9199999999999999E-002     0.0000000000000000     
  -3.9150000000000004E-002     0.0000000000000000     
  -3.9100000000000003E-002     0.0000000000000000     
  -3.9050000000000001E-002     0.0000000000000000     
  -3.9000000000000000E-002     0.0000000000000000     
  -3.8949999999999999E-002     0.0000000000000000     
  -3.8900000000000004E-002     0.0000000000000000     
  -3.8850000000000003E-002     0.0000000000000000     
  -3.8800000000000001E-002     0.0000000000000000     
  -3.8750000000000000E-002     0.0000000000000000     
  -3.8699999999999998E-002     0.0000000000000000     
  -3.8650000000000004E-002     0.0000000000000000     
  -3.8600000000000002E-002     0.0000000000000000     
  -3.8550000000000001E-002     0.0000000000000000     
  -3.8500000000000000E-002     0.0000000000000000     
  -3.8449999999999998E-002     0.0000000000000000     
  -3.8400000000000004E-002     0.0000000000000000     
  -3.8350000000000002E-002     0.0000000000000000     
  -3.8300000000000001E-002     0.0000000000000000     
  -3.8249999999999999E-002     0.0000000000000000     
  -3.8199999999999998E-002     0.0000000000000000     
  -3.8150000000000003E-002     0.0000000000000000     
  -3.8100000000000002E-002     0.0000000000000000     
  -3.8050000000000000E-002     0.0000000000000000     
  -3.7999999999999999E-002     0.0000000000000000     
  -3.7949999999999998E-002     0.0000000000000000     
  -3.7900000000000003E-002     0.0000000000000000     
  -3.7850000000000002E-002     0.0000000000000000     
  -3.7800000000000000E-002     0.0000000000000000     
  -3.7749999999999999E-002     0.0000000000000000     
  -3.7699999999999997E-002     0.0000000000000000     
  -3.7650000000000003E-002     0.0000000000000000     
  -3.7600000000000001E-002     0.0000000000000000     
  -3.7550000000000000E-002     0.0000000000000000     
  -3.7499999999999999E-002     0.0000000000000000     
  -3.7449999999999997E-002     0.0000000000000000     
  -3.7400000000000003E-002     0.0000000000000000     
  -3.7350000000000001E-002     0.0000000000000000     
  -3.7300000000000000E-002     0.0000000000000000     
  -3.7249999999999998E-002     0.0000000000000000     
  -3.7200000000000004E-002     0.0000000000000000     
  -3.7150000000000002E-002     0.0000000000000000     
  -3.7100000000000001E-002     0.0000000000000000     
  -3.7050000000000000E-002     0.0000000000000000     
  -3.6999999999999998E-002     0.0000000000000000     
  -3.6950000000000004E-002     0.0000000000000000     
  -3.6900000000000002E-002     0.0000000000000000     
  -3.6850000000000001E-002     0.0000000000000000     
  -3.6799999999999999E-002    -1.1029839139396246E-040
  -3.6749999999999998E-002    -3.8067043479773762E-040
  -3.6700000000000003E-002    -8.6093172563124380E-040
  -3.6650000000000002E-002    -1.3636175334090348E-039
  -3.6600000000000001E-002    -1.3683434013813252E-039
  -3.6549999999999999E-002     6.7310839920364854E-040
  -3.6499999999999998E-002    -6.6203505967015709E-039
  -3.6450000000000003E-002    -1.4731053883924256E-038
  -3.6400000000000002E-002    -5.6024085901075189E-039
  -3.6350000000000000E-002     4.5463226966446116E-038
  -3.6299999999999999E-002     1.2208821386185181E-037
  -3.6249999999999998E-002     2.4335112195377187E-037
  -3.6200000000000003E-002     3.7435566937548105E-037
  -3.6150000000000002E-002     4.2160685667920037E-037
  -3.6100000000000000E-002     2.1682733798620835E-037
  -3.6049999999999999E-002    -4.4436329264685910E-037
  -3.6000000000000004E-002    -1.6951827663832685E-036
  -3.5950000000000003E-002    -3.4233590140034749E-036
  -3.5900000000000001E-002    -5.0680403301935451E-036
  -3.5850000000000000E-002    -5.4966194752682585E-036
  -3.5799999999999998E-002    -3.0896778785768245E-036
  -3.5750000000000004E-002     3.8160382972435372E-036
  -3.5700000000000003E-002     1.6044720345594332E-035
  -3.5650000000000001E-002     3.2345646236019596E-035
  -3.5600000000000000E-002     4.8113600334800821E-035
  -3.5549999999999998E-002     5.4638009560415340E-035
  -3.5500000000000004E-002     3.9652602011505667E-035
  -3.5450000000000002E-002    -9.9852511606832223E-036
  -3.5400000000000001E-002    -1.0284099501127472E-034
  -3.5349999999999999E-002    -2.3459772016939626E-034
  -3.5299999999999998E-002    -3.7799582245788246E-034
  -3.5250000000000004E-002    -4.7413880840816710E-034
  -3.5200000000000002E-002    -4.3113909149011404E-034
  -3.5150000000000001E-002    -1.3889876484778524E-034
  -3.5099999999999999E-002     4.9066587546411647E-034
  -3.5049999999999998E-002     1.4541323533696588E-033
  -3.5000000000000003E-002     2.5690736320963642E-033
  -3.4950000000000002E-002     3.4046508672056999E-033
  -3.4900000000000000E-002     3.2931558831714412E-033
  -3.4849999999999999E-002     1.4956168589823511E-033
  -3.4799999999999998E-002    -2.4372985371619001E-033
  -3.4750000000000003E-002    -8.1613645362621778E-033
  -3.4700000000000002E-002    -1.4090705403748660E-032
  -3.4650000000000000E-002    -1.7346063785996206E-032
  -3.4599999999999999E-002    -1.4467842678493723E-032
  -3.4549999999999997E-002    -3.0525352479453481E-033
  -3.4500000000000003E-002     1.6032864891493125E-032
  -3.4450000000000001E-002     3.6889338300162286E-032
  -3.4400000000000000E-002     4.8830259244626505E-032
  -3.4349999999999999E-002     4.0028616720759227E-032
  -3.4299999999999997E-002     4.6848543893922796E-033
  -3.4250000000000003E-002    -4.8558077192963816E-032
  -3.4200000000000001E-002    -9.1903140066839454E-032
  -3.4150000000000000E-002    -8.3621772855705318E-032
  -3.4099999999999998E-002     1.2669294657574428E-032
  -3.4049999999999997E-002     1.9717344525283016E-031
  -3.4000000000000002E-002     4.0392677042127310E-031
  -3.3950000000000001E-002     4.9286189595662569E-031
  -3.3900000000000000E-002     2.8598802125147730E-031
  -3.3849999999999998E-002    -3.4358265334665627E-031
  -3.3799999999999997E-002    -1.3495600831275611E-030
  -3.3750000000000002E-002    -2.4123582063695804E-030
  -3.3700000000000001E-002    -2.9391260927249332E-030
  -3.3649999999999999E-002    -2.2303091085797603E-030
  -3.3599999999999998E-002     1.8250233870751001E-031
  -3.3550000000000003E-002     4.1257648328910148E-030
  -3.3500000000000002E-002     8.5025530108124517E-030
  -3.3450000000000001E-002     1.1382216561280882E-029
  -3.3399999999999999E-002     1.0614209456491064E-029
  -3.3349999999999998E-002     4.8845838837285783E-030
  -3.3300000000000003E-002    -5.1818501783752225E-030
  -3.3250000000000002E-002    -1.6512410773006083E-029
  -3.3200000000000000E-002    -2.4281577639855819E-029
  -3.3149999999999999E-002    -2.3990890021144127E-029
  -3.3099999999999997E-002    -1.4330904382753488E-029
  -3.3050000000000003E-002     6.1014403968577501E-031
  -3.3000000000000002E-002     1.1601337246502858E-029
  -3.2950000000000000E-002     8.2169329974222617E-030
  -3.2899999999999999E-002    -1.4001762464306927E-029
  -3.2850000000000004E-002    -4.6038170620084124E-029
  -3.2800000000000003E-002    -6.2363655434071087E-029
  -3.2750000000000001E-002    -2.7236139833083477E-029
  -3.2700000000000000E-002     8.7753727955040300E-029
  -3.2649999999999998E-002     2.7879450176417321E-028
  -3.2600000000000004E-002     4.8829397260367074E-028
  -3.2550000000000003E-002     6.0155445752553794E-028
  -3.2500000000000001E-002     4.7452174108918142E-028
  -3.2450000000000000E-002    -4.9729656940229137E-030
  -3.2399999999999998E-002    -8.3716005335011440E-028
  -3.2350000000000004E-002    -1.8437679827566963E-027
  -3.2300000000000002E-002    -2.6561399809257986E-027
  -3.2250000000000001E-002    -2.7907627228773149E-027
  -3.2199999999999999E-002    -1.8160938708000674E-027
  -3.2149999999999998E-002     4.2827732907428873E-028
  -3.2100000000000004E-002     3.6398350215977486E-027
  -3.2050000000000002E-002     6.9860358554143182E-027
  -3.2000000000000001E-002     9.2369907914033917E-027
  -3.1949999999999999E-002     9.1085218897562714E-027
  -3.1899999999999998E-002     5.7373323695130719E-027
  -3.1850000000000003E-002    -8.6822254862373595E-028
  -3.1800000000000002E-002    -9.5861775533655582E-027
  -3.1750000000000000E-002    -1.8285060801538322E-026
  -3.1699999999999999E-002    -2.4295281459434405E-026
  -3.1649999999999998E-002    -2.5126192126042395E-026
  -3.1600000000000003E-002    -1.9201566900053213E-026
  -3.1550000000000002E-002    -6.3741735104775178E-027
  -3.1500000000000000E-002     1.1922003032355078E-026
  -3.1449999999999999E-002     3.2858293148336411E-026
  -3.1399999999999997E-002     5.2571590151241747E-026
  -3.1350000000000003E-002     6.6510970567230198E-026
  -3.1300000000000001E-002     6.9721624054269147E-026
  -3.1250000000000000E-002     5.7258072902856559E-026
  -3.1199999999999999E-002     2.5106558442313557E-026
  -3.1150000000000001E-002    -2.8058655525000782E-026
  -3.1100000000000003E-002    -9.8369596546757343E-026
  -3.1050000000000001E-002    -1.7428553720311188E-025
  -3.1000000000000000E-002    -2.3559284715336987E-025
  -3.0949999999999998E-002    -2.5555627260537579E-025
  -3.0900000000000000E-002    -2.0727429347252275E-025
  -3.0850000000000002E-002    -7.3750849435914215E-026
  -3.0800000000000001E-002     1.4087160974344748E-025
  -3.0750000000000000E-002     4.0321339694777950E-025
  -3.0699999999999998E-002     6.5039384901133541E-025
  -3.0650000000000000E-002     8.0066363155883092E-025
  -3.0600000000000002E-002     7.7440159650674778E-025
  -3.0550000000000001E-002     5.2049085524997151E-025
  -3.0499999999999999E-002     3.9646119813715753E-026
  -3.0449999999999998E-002    -6.0427839533045661E-025
  -3.0400000000000000E-002    -1.2906554687610189E-024
  -3.0350000000000002E-002    -1.8653785120626907E-024
  -3.0300000000000001E-002    -2.1734331581050509E-024
  -3.0249999999999999E-002    -2.0892187429390291E-024
  -3.0200000000000001E-002    -1.5350140224106384E-024
  -3.0150000000000000E-002    -4.8593353625504996E-025
  -3.0100000000000002E-002     1.0296489898832357E-024
  -3.0050000000000000E-002     2.9181817341268206E-024
  -2.9999999999999999E-002     4.9845870257318751E-024
  -2.9950000000000001E-002     6.8749212495564760E-024
  -2.9899999999999999E-002     8.0274461993150316E-024
  -2.9850000000000002E-002     7.6855468098047133E-024
  -2.9800000000000000E-002     5.0318121553269855E-024
  -2.9749999999999999E-002    -5.2412744566438318E-025
  -2.9700000000000001E-002    -8.9343587145135782E-024
  -2.9650000000000003E-002    -1.9093842352530937E-023
  -2.9600000000000001E-002    -2.8605743989361835E-023
  -2.9550000000000000E-002    -3.3946942562549947E-023
  -2.9499999999999998E-002    -3.1185549839009946E-023
  -2.9450000000000000E-002    -1.7238585562264439E-023
  -2.9400000000000003E-002     8.5758954186243772E-024
  -2.9350000000000001E-002     4.3169953621153008E-023
  -2.9300000000000000E-002     7.9108872223027275E-023
  -2.9249999999999998E-002     1.0537210191847596E-022
  -2.9200000000000000E-002     1.0969653638308343E-022
  -2.9150000000000002E-002     8.2243221052700505E-023
  -2.9100000000000001E-002     1.9753285133292502E-023
  -2.9049999999999999E-002    -7.1092552035746485E-023
  -2.8999999999999998E-002    -1.7251530259619304E-022
  -2.8950000000000000E-002    -2.5773568040883962E-022
  -2.8900000000000002E-002    -2.9656819034742887E-022
  -2.8850000000000001E-002    -2.6364405870253533E-022
  -2.8799999999999999E-002    -1.4731672780967559E-022
  -2.8749999999999998E-002     4.3362559136818737E-023
  -2.8700000000000000E-002     2.7615952587996412E-022
  -2.8650000000000002E-002     4.9933126591595002E-022
  -2.8600000000000000E-002     6.5155645990517130E-022
  -2.8549999999999999E-002     6.7637596081390980E-022
  -2.8500000000000001E-002     5.3784123850489359E-022
  -2.8450000000000000E-002     2.3332903396204616E-022
  -2.8400000000000002E-002    -2.0014477925159373E-022
  -2.8350000000000000E-002    -6.8833513128520068E-022
  -2.8299999999999999E-002    -1.1310147379475543E-021
  -2.8250000000000001E-002    -1.4200349364954114E-021
  -2.8200000000000003E-002    -1.4606515372971921E-021
  -2.8150000000000001E-002    -1.1920578877396703E-021
  -2.8100000000000000E-002    -6.0359323416719678E-022
  -2.8049999999999999E-002     2.5574278714029552E-022
  -2.8000000000000001E-002     1.2756306592919548E-021
  -2.7950000000000003E-002     2.2910733792735031E-021
  -2.7900000000000001E-002     3.0977482054488483E-021
  -2.7850000000000000E-002     3.4767712693681742E-021
  -2.7799999999999998E-002     3.2294578871994772E-021
  -2.7750000000000000E-002     2.2212599278727735E-021
  -2.7700000000000002E-002     4.3090802000263804E-022
  -2.7650000000000001E-002    -2.0037999804869123E-021
  -2.7600000000000000E-002    -4.7568368616538408E-021
  -2.7549999999999998E-002    -7.3174217001030493E-021
  -2.7500000000000000E-002    -9.0406611786089666E-021
  -2.7450000000000002E-002    -9.2526414028511271E-021
  -2.7400000000000001E-002    -7.4042414760497121E-021
  -2.7349999999999999E-002    -3.2512467099868776E-021
  -2.7299999999999998E-002     2.9780086021270589E-021
  -2.7250000000000000E-002     1.0477035214627494E-020
  -2.7200000000000002E-002     1.7867414964407774E-020
  -2.7150000000000001E-002     2.3352903441201937E-020
  -2.7099999999999999E-002     2.5029602858048523E-020
  -2.7049999999999998E-002     2.1321910213746473E-020
  -2.7000000000000000E-002     1.1472085515298945E-020
  -2.6950000000000002E-002    -4.0238644559001986E-021
  -2.6900000000000000E-002    -2.3159318291821453E-020
  -2.6849999999999999E-002    -4.2456080796990813E-020
  -2.6800000000000001E-002    -5.7376408416079713E-020
  -2.6749999999999999E-002    -6.3114770188164428E-020
  -2.6700000000000002E-002    -5.5684306813424855E-020
  -2.6650000000000000E-002    -3.3115213583563436E-020
  -2.6599999999999999E-002     3.4977292066974446E-021
  -2.6550000000000001E-002     4.9399907566283718E-020
  -2.6500000000000003E-002     9.6308915441471414E-020
  -2.6450000000000001E-002     1.3344551153561729E-019
  -2.6400000000000000E-002     1.4945782555084362E-019
  -2.6349999999999998E-002     1.3500604641201315E-019
  -2.6300000000000000E-002     8.5542650998824122E-020
  -2.6250000000000002E-002     3.6480847794623588E-021
  -2.6200000000000001E-002    -9.9776223951196919E-020
  -2.6150000000000000E-002    -2.0604513266739368E-019
  -2.6099999999999998E-002    -2.9125315613499771E-019
  -2.6050000000000000E-002    -3.3071678067346598E-019
  -2.6000000000000002E-002    -3.0463790524063700E-019
  -2.5950000000000001E-002    -2.0387165386726853E-019
  -2.5899999999999999E-002    -3.4412417318509380E-020
  -2.5849999999999998E-002     1.8075947777307003E-019
  -2.5800000000000000E-002     4.0344401718016702E-019
  -2.5750000000000002E-002     5.8587394725290530E-019
  -2.5700000000000001E-002     6.7963324814440335E-019
  -2.5649999999999999E-002     6.4633436338376486E-019
  -2.5599999999999998E-002     4.6789887489676842E-019
  -2.5550000000000000E-002     1.5406267867700083E-019
  -2.5500000000000002E-002    -2.5495925442943915E-019
  -2.5450000000000000E-002    -6.9188806394436311E-019
  -2.5399999999999999E-002    -1.0719328808693865E-018
  -2.5349999999999998E-002    -1.3072477176170453E-018
  -2.5300000000000000E-002    -1.3239565753561129E-018
  -2.5250000000000002E-002    -1.0787223301047500E-018
  -2.5200000000000000E-002    -5.7172176152059609E-019
  -2.5149999999999999E-002     1.4666542059274193E-019
  -2.5100000000000001E-002     9.7724749074848544E-019
  -2.5049999999999999E-002     1.7821236180047291E-018
  -2.5000000000000001E-002     2.4029088899594488E-018
  -2.4950000000000000E-002     2.6853338478840628E-018
  -2.4899999999999999E-002     2.5074437072658972E-018
  -2.4850000000000001E-002     1.8077407426734649E-018
  -2.4800000000000003E-002     6.0887767383563076E-019
  -2.4750000000000001E-002    -9.6794648599603037E-019
  -2.4700000000000000E-002    -2.7027130244306841E-018
  -2.4649999999999998E-002    -4.2943934586896117E-018
  -2.4600000000000000E-002    -5.3987891111081312E-018
  -2.4550000000000002E-002    -5.6850250959137228E-018
  -2.4500000000000001E-002    -4.9048901816767876E-018
  -2.4450000000000000E-002    -2.9643917998157087E-018
  -2.4399999999999998E-002     1.7212888271927474E-020
  -2.4350000000000000E-002     3.6775805830962534E-018
  -2.4299999999999999E-002     7.4257571372190422E-018
  -2.4250000000000001E-002     1.0510215443908353E-017
  -2.4199999999999999E-002     1.2139758646300876E-017
  -2.4150000000000001E-002     1.1643828644454923E-017
  -2.4100000000000000E-002     8.6458499628897668E-018
  -2.4049999999999998E-002     3.2133402338678350E-018
  -2.4000000000000000E-002    -4.0550134380823668E-018
  -2.3949999999999999E-002    -1.2039803853304636E-017
  -2.3900000000000001E-002    -1.9228570597811593E-017
  -2.3850000000000000E-002    -2.3957587550034540E-017
  -2.3800000000000002E-002    -2.4737736523603561E-017
  -2.3750000000000000E-002    -2.0609044729909492E-017
  -2.3699999999999999E-002    -1.1450919878804160E-017
  -2.3650000000000001E-002     1.8288792705402009E-018
  -2.3599999999999999E-002     1.7290751827305248E-017
  -2.3550000000000001E-002     3.2179795211093126E-017
  -2.3500000000000000E-002     4.3354548866134006E-017
  -2.3449999999999999E-002     4.7872408697414347E-017
  -2.3400000000000001E-002     4.3633079791790173E-017
  -2.3349999999999999E-002     2.9953281348710682E-017
  -2.3300000000000001E-002     7.9412018182218829E-018
  -2.3250000000000000E-002    -1.9438278375370776E-017
  -2.3199999999999998E-002    -4.7667073641229211E-017
  -2.3150000000000000E-002    -7.1337340075212626E-017
  -2.3099999999999999E-002    -8.5090540774421997E-017
  -2.3050000000000001E-002    -8.4680526162910021E-017
  -2.3000000000000000E-002    -6.7964951075466862E-017
  -2.2950000000000002E-002    -3.5620045384699962E-017
  -2.2900000000000000E-002     8.5951086560718063E-018
  -2.2849999999999999E-002     5.8129811302134342E-017
  -2.2800000000000001E-002     1.0449761871985391E-016
  -2.2749999999999999E-002     1.3859959003244501E-016
  -2.2700000000000001E-002     1.5232125803182882E-016
  -2.2650000000000000E-002     1.4014146994863199E-016
  -2.2599999999999999E-002     1.0046635057022463E-016
  -2.2550000000000001E-002     3.6425416790997907E-017
  -2.2499999999999999E-002    -4.4062936694601997E-017
  -2.2450000000000001E-002    -1.2904360437517588E-016
  -2.2400000000000000E-002    -2.0405596098425553E-016
  -2.2349999999999998E-002    -2.5427963002703173E-016
  -2.2300000000000000E-002    -2.6702057695471394E-016
  -2.2249999999999999E-002    -2.3418394857909848E-016
  -2.2200000000000001E-002    -1.5434176792719090E-016
  -2.2150000000000000E-002    -3.4011740564291093E-017
  -2.2100000000000002E-002     1.1217671570212844E-016
  -2.2050000000000000E-002     2.6264205541561856E-016
  -2.1999999999999999E-002     3.9138458824385341E-016
  -2.1950000000000001E-002     4.7173674002786616E-016
  -2.1899999999999999E-002     4.8093738499576279E-016
  -2.1850000000000001E-002     4.0490682571820706E-016
  -2.1800000000000000E-002     2.4241531608537899E-016
  -2.1749999999999999E-002     7.7525245251897159E-018
  -2.1700000000000001E-002    -2.6893043747445583E-016
  -2.1649999999999999E-002    -5.4418450235158536E-016
  -2.1600000000000001E-002    -7.6687430867989145E-016
  -2.1550000000000000E-002    -8.8639871264675160E-016
  -2.1499999999999998E-002    -8.6244567068385556E-016
  -2.1450000000000000E-002    -6.7464692610223234E-016
  -2.1399999999999999E-002    -3.3016378648776744E-016
  -2.1350000000000001E-002     1.3274553806466753E-016
  -2.1299999999999999E-002     6.4667556059239253E-016
  -2.1250000000000002E-002     1.1231683087106206E-015
  -2.1200000000000000E-002     1.4664024424545025E-015
  -2.1149999999999999E-002     1.5906476123550089E-015
  -2.1100000000000001E-002     1.4385524524285848E-015
  -2.1049999999999999E-002     9.9667836633274121E-016
  -2.1000000000000001E-002     3.0470693482595415E-016
  -2.0950000000000000E-002    -5.4447035582022906E-016
  -2.0899999999999998E-002    -1.4150828782934371E-015
  -2.0850000000000000E-002    -2.1485765789425739E-015
  -2.0799999999999999E-002    -2.5907520997506349E-015
  -2.0750000000000001E-002    -2.6214739800110354E-015
  -2.0700000000000000E-002    -2.1814608216852305E-015
  -2.0649999999999998E-002    -1.2906558530813009E-015
  -2.0600000000000000E-002    -5.3770906678170939E-017
  -2.0549999999999999E-002     1.3493377403503913E-015
  -2.0500000000000001E-002     2.6881187045043057E-015
  -2.0449999999999999E-002     3.7174367598714256E-015
  -2.0400000000000001E-002     4.2197777410840729E-015
  -2.0350000000000000E-002     4.0464633536841477E-015
  -2.0299999999999999E-002     3.1505020878603002E-015
  -2.0250000000000001E-002     1.6047100251053914E-015
  -2.0199999999999999E-002    -3.9910371430318451E-016
  -2.0150000000000001E-002    -2.5711071955335017E-015
  -2.0100000000000000E-002    -4.5625412313510536E-015
  -2.0049999999999998E-002    -6.0178647445764190E-015
  -2.0000000000000000E-002    -6.6325545877584218E-015
  -1.9949999999999999E-002    -6.2078802021030544E-015
  -1.9900000000000001E-002    -4.6939351815766379E-015
  -1.9850000000000000E-002    -2.2133775017565867E-015
  -1.9799999999999998E-002     9.3941613855013922E-016
  -1.9750000000000000E-002     4.3260229090161953E-015
  -1.9699999999999999E-002     7.4171249742748483E-015
  -1.9650000000000001E-002     9.6660802474551981E-015
  -1.9599999999999999E-002     1.0594360300677342E-014
  -1.9550000000000001E-002     9.8774731838279051E-015
  -1.9500000000000000E-002     7.4182339930307901E-015
  -1.9449999999999999E-002     3.3940634618564516E-015
  -1.9400000000000001E-002    -1.7332853536489008E-015
  -1.9349999999999999E-002    -7.2532450219436967E-015
  -1.9300000000000001E-002    -1.2288921956831593E-014
  -1.9250000000000000E-002    -1.5920690904862231E-014
  -1.9199999999999998E-002    -1.7336800480302806E-014
  -1.9150000000000000E-002    -1.5989431550272106E-014
  -1.9099999999999999E-002    -1.1729501489472691E-014
  -1.9050000000000001E-002    -4.8923439569784523E-015
  -1.9000000000000000E-002     3.6896237945626613E-015
  -1.8949999999999998E-002     1.2761781048058839E-014
  -1.8900000000000000E-002     2.0810169941940326E-014
  -1.8849999999999999E-002     2.6296001283441405E-014
  -1.8800000000000001E-002     2.7928905757153136E-014
  -1.8749999999999999E-002     2.4933291692195053E-014
  -1.8700000000000001E-002     1.7256487652611818E-014
  -1.8650000000000000E-002     5.6711384498311344E-015
  -1.8599999999999998E-002    -8.2617016635185190E-015
  -1.8550000000000001E-002    -2.2379657851888885E-014
  -1.8499999999999999E-002    -3.4239304955750854E-014
  -1.8450000000000001E-002    -4.1524697554656372E-014
  -1.8400000000000000E-002    -4.2477086642209934E-014
  -1.8349999999999998E-002    -3.6267499996917026E-014
  -1.8300000000000000E-002    -2.3237061867741249E-014
  -1.8249999999999999E-002    -4.9482947529440444E-015
  -1.8200000000000001E-002     1.5978515228082250E-014
  -1.8149999999999999E-002     3.6231351823963704E-014
  -1.8100000000000002E-002     5.2323901598596676E-014
  -1.8050000000000000E-002     6.1182236595698631E-014
  -1.7999999999999999E-002     6.0701281032551328E-014
  -1.7950000000000001E-002     5.0171988357490783E-014
  -1.7899999999999999E-002     3.0498568191439466E-014
  -1.7850000000000001E-002     4.1586288219277541E-015
  -1.7800000000000000E-002    -2.5098744560286919E-014
  -1.7749999999999998E-002    -5.2778205550918865E-014
  -1.7700000000000000E-002    -7.4310793119122392E-014
  -1.7649999999999999E-002    -8.5773240679221123E-014
  -1.7600000000000001E-002    -8.4544538074411724E-014
  -1.7550000000000000E-002    -6.9798135141466367E-014
  -1.7499999999999998E-002    -4.2750590045521637E-014
  -1.7450000000000000E-002    -6.6201084718209802E-015
  -1.7399999999999999E-002     3.3712974706851440E-014
  -1.7350000000000001E-002     7.2312680538529611E-014
  -1.7299999999999999E-002     1.0299367214129465E-013
  -1.7250000000000001E-002     1.2023073375805032E-013
  -1.7200000000000000E-002     1.2005421427900881E-013
  -1.7149999999999999E-002     1.0080483422593128E-013
  -1.7100000000000001E-002     6.3625638457257196E-014
  -1.7049999999999999E-002     1.2588782817090859E-014
  -1.7000000000000001E-002    -4.5608624174990127E-014
  -1.6950000000000000E-002    -1.0239210986308273E-013
  -1.6899999999999998E-002    -1.4844807981780704E-013
  -1.6850000000000000E-002    -1.7512928527323870E-013
  -1.6799999999999999E-002    -1.7593954798358698E-013
  -1.6750000000000001E-002    -1.4786426079573806E-013
  -1.6700000000000000E-002    -9.2300180212749754E-014
  -1.6649999999999998E-002    -1.5367091904295112E-014
  -1.6600000000000000E-002     7.2541560969109118E-014
  -1.6549999999999999E-002     1.5799766704849074E-013
  -1.6500000000000001E-002     2.2645659817692920E-013
  -1.6449999999999999E-002     2.6460395241502505E-013
  -1.6400000000000001E-002     2.6276758725459491E-013
  -1.6350000000000000E-002     2.1697057283048086E-013
  -1.6299999999999999E-002     1.3021644901429035E-013
  -1.6250000000000001E-002     1.2690333347405928E-014
  -1.6199999999999999E-002    -1.1927304597549828E-013
  -1.6150000000000001E-002    -2.4539120936982388E-013
  -1.6100000000000000E-002    -3.4451957649163650E-013
  -1.6049999999999998E-002    -3.9814641840918909E-013
  -1.6000000000000000E-002    -3.9370727545235292E-013
  -1.5949999999999999E-002    -3.2711902029852862E-013
  -1.5900000000000001E-002    -2.0403360640981716E-013
  -1.5850000000000000E-002    -3.9514903347802306E-014
  -1.5799999999999998E-002     1.4389038977514548E-013
  -1.5750000000000000E-002     3.1942871121237685E-013
  -1.5699999999999999E-002     4.6025372261906654E-013
  -1.5650000000000001E-002     5.4370515193445066E-013
  -1.5599999999999999E-002     5.5503208843464735E-013
  -1.5550000000000001E-002     4.8992496885325827E-013
  -1.5500000000000000E-002     3.5541685094645104E-013
  -1.5449999999999998E-002     1.6898917421647942E-013
  -1.5400000000000000E-002    -4.3983454892545629E-014
  -1.5349999999999999E-002    -2.5404170488863496E-013
  -1.5300000000000001E-002    -4.3210055785816852E-013
  -1.5250000000000000E-002    -5.5386246252837217E-013
  -1.5199999999999998E-002    -6.0351177924882295E-013
  -1.5150000000000000E-002    -5.7613891028663612E-013
  -1.5099999999999999E-002    -4.7854039079720838E-013
  -1.5050000000000001E-002    -3.2827485931138828E-013
  -1.4999999999999999E-002    -1.5109150006436991E-013
  -1.4949999999999998E-002     2.2939878242169731E-014
  -1.4900000000000000E-002     1.6410200521656972E-013
  -1.4849999999999999E-002     2.4789963693929113E-013
  -1.4800000000000001E-002     2.5946599706394323E-013
  -1.4749999999999999E-002     1.9685565860604803E-013
  -1.4700000000000001E-002     7.2650973611607085E-014
  -1.4650000000000000E-002    -8.6542048349532314E-014
  -1.4599999999999998E-002    -2.4290660377610391E-013
  -1.4550000000000000E-002    -3.5243993966306602E-013
  -1.4499999999999999E-002    -3.7175045623000950E-013
  -1.4450000000000001E-002    -2.6583670271016036E-013
  -1.4400000000000000E-002    -1.5762359170299935E-014
  -1.4349999999999998E-002     3.7503566286147945E-013
  -1.4300000000000000E-002     8.7705961382469378E-013
  -1.4249999999999999E-002     1.4347065289607933E-012
  -1.4200000000000001E-002     1.9704319172794657E-012
  -1.4149999999999999E-002     2.3930512083282298E-012
  -1.4099999999999998E-002     2.6093895052956525E-012
  -1.4050000000000000E-002     2.5378167200650872E-012
  -1.3999999999999999E-002     2.1217159472379648E-012
  -1.3950000000000001E-002     1.3407486531695117E-012
  -1.3899999999999999E-002     2.1797631625709750E-013
  -1.3850000000000001E-002    -1.1785436414465421E-012
  -1.3800000000000000E-002    -2.7401984450249601E-012
  -1.3749999999999998E-002    -4.3277975550156868E-012
  -1.3700000000000000E-002    -5.7856128867861056E-012
  -1.3649999999999999E-002    -6.9572654065857552E-012
  -1.3600000000000001E-002    -7.7008774354088498E-012
  -1.3550000000000000E-002    -7.9010205104527640E-012
  -1.3499999999999998E-002    -7.4755833758633183E-012
  -1.3450000000000000E-002    -6.3765816312583306E-012
  -1.3399999999999999E-002    -4.5850707756431265E-012
  -1.3350000000000001E-002    -2.1014107176231181E-012
  -1.3299999999999999E-002     1.0670554207740359E-012
  -1.3249999999999998E-002     4.9183557208032499E-012
  -1.3200000000000000E-002     9.4658164492214301E-012
  -1.3149999999999998E-002     1.4743546279759841E-011
  -1.3100000000000001E-002     2.0806341066714822E-011
  -1.3049999999999999E-002     2.7723929233017333E-011
  -1.3000000000000001E-002     3.5570407727176618E-011
  -1.2950000000000000E-002     4.4410702637631500E-011
  -1.2899999999999998E-002     5.4286235321494142E-011
  -1.2850000000000000E-002     6.5202258093979327E-011
  -1.2799999999999999E-002     7.7118850628989750E-011