  -4.0000000000000001E-002     0.0000000000000000     
  -3.9949999999999999E-002     0.0000000000000000     
  -3.9899999999999998E-002     0.0000000000000000     
  -3.9850000000000003E-002     0.0000000000000000     
  -3.9800000000000002E-002     0.0000000000000000     
  -3.9750000000000001E-002     0.0000000000000000     
  -3.9699999999999999E-002     0.0000000000000000     
  -3.9649999999999998E-002     0.0000000000000000     
  -3.9600000000000003E-002     0.0000000000000000     
  -3.9550000000000002E-002     0.0000000000000000     
  -3.9500000000000000E-002     0.0000000000000000     
  -3.9449999999999999E-002     0.0000000000000000     
  -3.9399999999999998E-002     0.0000000000000000     
  -3.9350000000000003E-002     0.0000000000000000     
  -3.9300000000000002E-002     0.0000000000000000     
  -3.9250000000000000E-002     0.0000000000000000     
  -3.9199999999999999E-002     0.0000000000000000     
  -3.9150000000000004E-002     0.0000000000000000     
  -3.9100000000000003E-002     0.0000000000000000     
  -3.9050000000000001E-002     0.0000000000000000     
  -3.9000000000000000E-002     0.0000000000000000     
  -3.8949999999999999E-002     0.0000000000000000     
  -3.8900000000000004E-002     0.0000000000000000     
  -3.8850000000000003E-002     0.0000000000000000     
  -3.8800000000000001E-002     0.0000000000000000     
  -3.8750000000000000E-002     0.0000000000000000     
  -3.8699999999999998E-002     0.0000000000000000     
  -3.8650000000000004E-002     0.0000000000000000     
  -3.8600000000000002E-002     0.0000000000000000     
  -3.8550000000000001E-002     0.0000000000000000     
  -3.8500000000000000E-002     0.0000000000000000     
  -3.8449999999999998E-002     0.0000000000000000     
  -3.8400000000000004E-002     0.0000000000000000     
  -3.8350000000000002E-002     0.0000000000000000     
  -3.8300000000000001E-002     0.0000000000000000     
  -3.8249999999999999E-002     0.0000000000000000     
  -3.8199999999999998E-002     0.0000000000000000     
  -3.8150000000000003E-002     0.0000000000000000     
  -3.8100000000000002E-002     0.0000000000000000     
  -3.8050000000000000E-002     0.0000000000000000     
  -3.7999999999999999E-002     0.0000000000000000     
  -3.7949999999999998E-002     0.0000000000000000     
  -3.7900000000000003E-002     0.0000000000000000     
  -3.7850000000000002E-002     0.0000000000000000     
  -3.7800000000000000E-002     0.0000000000000000     
  -3.7749999999999999E-002     0.0000000000000000     
  -3.7699999999999997E-002     0.0000000000000000     
  -3.7650000000000003E-002     0.0000000000000000     
  -3.7600000000000001E-002     0.0000000000000000     
  -3.7550000000000000E-002     0.0000000000000000     
  -3.7499999999999999E-002     0.0000000000000000     
  -3.7449999999999997E-002     0.0000000000000000     
  -3.7400000000000003E-002     0.0000000000000000     
  -3.7350000000000001E-002     0.0000000000000000     
  -3.7300000000000000E-002     0.0000000000000000     
  -3.7249999999999998E-002     0.0000000000000000     
  -3.7200000000000004E-002     0.0000000000000000     
  -3.7150000000000002E-002     0.0000000000000000     
  -3.7100000000000001E-002     0.0000000000000000     
  -3.7050000000000000E-002     0.0000000000000000     
  -3.6999999999999998E-002     0.0000000000000000     
  -3.6950000000000004E-002     0.0000000000000000     
  -3.6900000000000002E-002     0.0000000000000000     
  -3.6850000000000001E-002     0.0000000000000000     
  -3.6799999999999999E-002     0.0000000000000000     
  -3.6749999999999998E-002     0.0000000000000000     
  -3.6700000000000003E-002     0.0000000000000000     
  -3.6650000000000002E-002     0.0000000000000000     
  -3.6600000000000001E-002     0.0000000000000000     
  -3.6549999999999999E-002     0.0000000000000000     
  -3.6499999999999998E-002     0.0000000000000000     
  -3.6450000000000003E-002     0.0000000000000000     
  -3.6400000000000002E-002     0.0000000000000000     
  -3.6350000000000000E-002     0.0000000000000000     
  -3.6299999999999999E-002     0.0000000000000000     
  -3.6249999999999998E-002     0.0000000000000000     
  -3.6200000000000003E-002     0.0000000000000000     
  -3.6150000000000002E-002     0.0000000000000000     
  -3.6100000000000000E-002     0.0000000000000000     
  -3.6049999999999999E-002     0.0000000000000000     
  -3.6000000000000004E-002     0.0000000000000000     
  -3.5950000000000003E-002     0.0000000000000000     
  -3.5900000000000001E-002     0.0000000000000000     
  -3.5850000000000000E-002     0.0000000000000000     
  -3.5799999999999998E-002     0.0000000000000000     
  -3.5750000000000004E-002     0.0000000000000000     
  -3.5700000000000003E-002     0.0000000000000000     
  -3.5650000000000001E-002     0.0000000000000000     
  -3.5600000000000000E-002     0.0000000000000000     
  -3.5549999999999998E-002     0.0000000000000000     
  -3.5500000000000004E-002     0.0000000000000000     
  -3.5450000000000002E-002     0.0000000000000000     
  -3.5400000000000001E-002     0.0000000000000000     
  -3.5349999999999999E-002     0.0000000000000000     
  -3.5299999999999998E-002     0.0000000000000000     
  -3.5250000000000004E-002     0.0000000000000000     
  -3.5200000000000002E-002     0.0000000000000000     
  -3.5150000000000001E-002     0.0000000000000000     
  -3.5099999999999999E-002     0.0000000000000000     
  -3.5049999999999998E-002     0.0000000000000000     
  -3.5000000000000003E-002     0.0000000000000000     
  -3.4950000000000002E-002     0.0000000000000000     
  -3.4900000000000000E-002     0.0000000000000000     
  -3.4849999999999999E-002     0.0000000000000000     
  -3.4799999999999998E-002     0.0000000000000000     
  -3.4750000000000003E-002     0.0000000000000000     
  -3.4700000000000002E-002     0.0000000000000000     
  -3.4650000000000000E-002     0.0000000000000000     
  -3.4599999999999999E-002     0.0000000000000000     
  -3.4549999999999997E-002     0.0000000000000000     
  -3.4500000000000003E-002     0.0000000000000000     
  -3.4450000000000001E-002     0.0000000000000000     
  -3.4400000000000000E-002     0.0000000000000000     
  -3.4349999999999999E-002     0.0000000000000000     
  -3.4299999999999997E-002     0.0000000000000000     
  -3.4250000000000003E-002     0.0000000000000000     
  -3.4200000000000001E-002     0.0000000000000000     
  -3.4150000000000000E-002     0.0000000000000000     
  -3.4099999999999998E-002     0.0000000000000000     
  -3.4049999999999997E-002     0.0000000000000000     
  -3.4000000000000002E-002     0.0000000000000000     
  -3.3950000000000001E-002     0.0000000000000000     
  -3.3900000000000000E-002     0.0000000000000000     
  -3.3849999999999998E-002     0.0000000000000000     
  -3.3799999999999997E-002     0.0000000000000000     
  -3.3750000000000002E-002     0.0000000000000000     
  -3.3700000000000001E-002     0.0000000000000000     
  -3.3649999999999999E-002     0.0000000000000000     
  -3.3599999999999998E-002     0.0000000000000000     
  -3.3550000000000003E-002     0.0000000000000000     
  -3.3500000000000002E-002     0.0000000000000000     
  -3.3450000000000001E-002     0.0000000000000000     
  -3.3399999999999999E-002     0.0000000000000000     
  -3.3349999999999998E-002     0.0000000000000000     
  -3.3300000000000003E-002     0.0000000000000000     
  -3.3250000000000002E-002     0.0000000000000000     
  -3.3200000000000000E-002     0.0000000000000000     
  -3.3149999999999999E-002     0.0000000000000000     
  -3.3099999999999997E-002     0.0000000000000000     
  -3.3050000000000003E-002     0.0000000000000000     
  -3.3000000000000002E-002     0.0000000000000000     
  -3.2950000000000000E-002     0.0000000000000000     
  -3.2899999999999999E-002     0.0000000000000000     
  -3.2850000000000004E-002     0.0000000000000000     
  -3.2800000000000003E-002     0.0000000000000000     
  -3.2750000000000001E-002     0.0000000000000000     
  -3.2700000000000000E-002     0.0000000000000000     
  -3.2649999999999998E-002     0.0000000000000000     
  -3.2600000000000004E-002     0.0000000000000000     
  -3.2550000000000003E-002     0.0000000000000000     
  -3.2500000000000001E-002     0.0000000000000000     
  -3.2450000000000000E-002     0.0000000000000000     
  -3.2399999999999998E-002     0.0000000000000000     
  -3.2350000000000004E-002     0.0000000000000000     
  -3.2300000000000002E-002     0.0000000000000000     
  -3.2250000000000001E-002     0.0000000000000000     
  -3.2199999999999999E-002     0.0000000000000000     
  -3.2149999999999998E-002     0.0000000000000000     
  -3.2100000000000004E-002     0.0000000000000000     
  -3.2050000000000002E-002     0.0000000000000000     
  -3.2000000000000001E-002     0.0000000000000000     
  -3.1949999999999999E-002     0.0000000000000000     
  -3.1899999999999998E-002     0.0000000000000000     
  -3.1850000000000003E-002     0.0000000000000000     
  -3.1800000000000002E-002     0.0000000000000000     
  -3.1750000000000000E-002     0.0000000000000000     
  -3.1699999999999999E-002     0.0000000000000000     
  -3.1649999999999998E-002     0.0000000000000000     
  -3.1600000000000003E-002     0.0000000000000000     
  -3.1550000000000002E-002     0.0000000000000000     
  -3.1500000000000000E-002     0.0000000000000000     
  -3.1449999999999999E-002     0.0000000000000000     
  -3.1399999999999997E-002     0.0000000000000000     
  -3.1350000000000003E-002     0.0000000000000000     
  -3.1300000000000001E-002     0.0000000000000000     
  -3.1250000000000000E-002     0.0000000000000000     
  -3.1199999999999999E-002     0.0000000000000000     
  -3.1150000000000001E-002     0.0000000000000000     
  -3.1100000000000003E-002     0.0000000000000000     
  -3.1050000000000001E-002     0.0000000000000000     
  -3.1000000000000000E-002     0.0000000000000000     
  -3.0949999999999998E-002     0.0000000000000000     
  -3.0900000000000000E-002     0.0000000000000000     
  -3.0850000000000002E-002     0.0000000000000000     
  -3.0800000000000001E-002     0.0000000000000000     
  -3.0750000000000000E-002     0.0000000000000000     
  -3.0699999999999998E-002     0.0000000000000000     
  -3.0650000000000000E-002     0.0000000000000000     
  -3.0600000000000002E-002     0.0000000000000000     
  -3.0550000000000001E-002     0.0000000000000000     
  -3.0499999999999999E-002     0.0000000000000000     
  -3.0449999999999998E-002     0.0000000000000000     
  -3.0400000000000000E-002     0.0000000000000000     
  -3.0350000000000002E-002     0.0000000000000000     
  -3.0300000000000001E-002     0.0000000000000000     
  -3.0249999999999999E-002     0.0000000000000000     
  -3.0200000000000001E-002     0.0000000000000000     
  -3.0150000000000000E-002     0.0000000000000000     
  -3.0100000000000002E-002     0.0000000000000000     
  -3.0050000000000000E-002     0.0000000000000000     
  -2.9999999999999999E-002     0.0000000000000000     
  -2.9950000000000001E-002     0.0000000000000000     
  -2.9899999999999999E-002     0.0000000000000000     
  -2.9850000000000002E-002     0.0000000000000000     
  -2.9800000000000000E-002     0.0000000000000000     
  -2.9749999999999999E-002     0.0000000000000000     
  -2.9700000000000001E-002     0.0000000000000000     
  -2.9650000000000003E-002     0.0000000000000000     
  -2.9600000000000001E-002     0.0000000000000000     
  -2.9550000000000000E-002     0.0000000000000000     
  -2.9499999999999998E-002     0.0000000000000000     
  -2.9450000000000000E-002     0.0000000000000000     
  -2.9400000000000003E-002     0.0000000000000000     
  -2.9350000000000001E-002     0.0000000000000000     
  -2.9300000000000000E-002     0.0000000000000000     
  -2.9249999999999998E-002     0.0000000000000000     
  -2.9200000000000000E-002     0.0000000000000000     
  -2.9150000000000002E-002     0.0000000000000000     
  -2.9100000000000001E-002     0.0000000000000000     
  -2.9049999999999999E-002     0.0000000000000000     
  -2.8999999999999998E-002     0.0000000000000000     
  -2.8950000000000000E-002     0.0000000000000000     
  -2.8900000000000002E-002     0.0000000000000000     
  -2.8850000000000001E-002     0.0000000000000000     
  -2.8799999999999999E-002     0.0000000000000000     
  -2.8749999999999998E-002     0.0000000000000000     
  -2.8700000000000000E-002     0.0000000000000000     
  -2.8650000000000002E-002     0.0000000000000000     
  -2.8600000000000000E-002     0.0000000000000000     
  -2.8549999999999999E-002     0.0000000000000000     
  -2.8500000000000001E-002     0.0000000000000000     
  -2.8450000000000000E-002     0.0000000000000000     
  -2.8400000000000002E-002     0.0000000000000000     
  -2.8350000000000000E-002     0.0000000000000000     
  -2.8299999999999999E-002     0.0000000000000000     
  -2.8250000000000001E-002     0.0000000000000000     
  -2.8200000000000003E-002     0.0000000000000000     
  -2.8150000000000001E-002     0.0000000000000000     
  -2.8100000000000000E-002     0.0000000000000000     
  -2.8049999999999999E-002     0.0000000000000000     
  -2.8000000000000001E-002     0.0000000000000000     
  -2.7950000000000003E-002     0.0000000000000000     
  -2.7900000000000001E-002     0.0000000000000000     
  -2.7850000000000000E-002     0.0000000000000000     
  -2.7799999999999998E-002     0.0000000000000000     
  -2.7750000000000000E-002     0.0000000000000000     
  -2.7700000000000002E-002     0.0000000000000000     
  -2.7650000000000001E-002     0.0000000000000000     
  -2.7600000000000000E-002     0.0000000000000000     
  -2.7549999999999998E-002     0.0000000000000000     
  -2.7500000000000000E-002     0.0000000000000000     
  -2.7450000000000002E-002     0.0000000000000000     
  -2.7400000000000001E-002     0.0000000000000000     
  -2.7349999999999999E-002     0.0000000000000000     
  -2.7299999999999998E-002     0.0000000000000000     
  -2.7250000000000000E-002     0.0000000000000000     
  -2.7200000000000002E-002     0.0000000000000000     
  -2.7150000000000001E-002     0.0000000000000000     
  -2.7099999999999999E-002     0.0000000000000000     
  -2.7049999999999998E-002     0.0000000000000000     
  -2.7000000000000000E-002     0.0000000000000000     
  -2.6950000000000002E-002     0.0000000000000000     
  -2.6900000000000000E-002     0.0000000000000000     
  -2.6849999999999999E-002     0.0000000000000000     
  -2.6800000000000001E-002     0.0000000000000000     
  -2.6749999999999999E-002     0.0000000000000000     
  -2.6700000000000002E-002     0.0000000000000000     
  -2.6650000000000000E-002     0.0000000000000000     
  -2.6599999999999999E-002     0.0000000000000000     
  -2.6550000000000001E-002     0.0000000000000000     
  -2.6500000000000003E-002     0.0000000000000000     
  -2.6450000000000001E-002     0.0000000000000000     
  -2.6400000000000000E-002     0.0000000000000000     
  -2.6349999999999998E-002     0.0000000000000000     
  -2.6300000000000000E-002     0.0000000000000000     
  -2.6250000000000002E-002     0.0000000000000000     
  -2.6200000000000001E-002     0.0000000000000000     
  -2.6150000000000000E-002     0.0000000000000000     
  -2.6099999999999998E-002     0.0000000000000000     
  -2.6050000000000000E-002     0.0000000000000000     
  -2.6000000000000002E-002     0.0000000000000000     
  -2.5950000000000001E-002     0.0000000000000000     
  -2.5899999999999999E-002     0.0000000000000000     
  -2.5849999999999998E-002     0.0000000000000000     
  -2.5800000000000000E-002     0.0000000000000000     
  -2.5750000000000002E-002     0.0000000000000000     
  -2.5700000000000001E-002     0.0000000000000000     
  -2.5649999999999999E-002     0.0000000000000000     
  -2.5599999999999998E-002     0.0000000000000000     
  -2.5550000000000000E-002     0.0000000000000000     
  -2.5500000000000002E-002     0.0000000000000000     
  -2.5450000000000000E-002     0.0000000000000000     
  -2.5399999999999999E-002     0.0000000000000000     
  -2.5349999999999998E-002     0.0000000000000000     
  -2.5300000000000000E-002     0.0000000000000000     
  -2.5250000000000002E-002     0.0000000000000000     
  -2.5200000000000000E-002     0.0000000000000000     
  -2.5149999999999999E-002     0.0000000000000000     
  -2.5100000000000001E-002     0.0000000000000000     
  -2.5049999999999999E-002     0.0000000000000000     
  -2.5000000000000001E-002     0.0000000000000000     
  -2.4950000000000000E-002     0.0000000000000000     
  -2.4899999999999999E-002     0.0000000000000000     
  -2.4850000000000001E-002     0.0000000000000000     
  -2.4800000000000003E-002     0.0000000000000000     
  -2.4750000000000001E-002     0.0000000000000000     
  -2.4700000000000000E-002     0.0000000000000000     
  -2.4649999999999998E-002     0.0000000000000000     
  -2.4600000000000000E-002     0.0000000000000000     
  -2.4550000000000002E-002     0.0000000000000000     
  -2.4500000000000001E-002     0.0000000000000000     
  -2.4450000000000000E-002     0.0000000000000000     
  -2.4399999999999998E-002     0.0000000000000000     
  -2.4350000000000000E-002     0.0000000000000000     
  -2.4299999999999999E-002     0.0000000000000000     
  -2.4250000000000001E-002     0.0000000000000000     
  -2.4199999999999999E-002     0.0000000000000000     
  -2.4150000000000001E-002     0.0000000000000000     
  -2.4100000000000000E-002     0.0000000000000000     
  -2.4049999999999998E-002     0.0000000000000000     
  -2.4000000000000000E-002     0.0000000000000000     
  -2.3949999999999999E-002     0.0000000000000000     
  -2.3900000000000001E-002     0.0000000000000000     
  -2.3850000000000000E-002     0.0000000000000000     
  -2.3800000000000002E-002     0.0000000000000000     
  -2.3750000000000000E-002     0.0000000000000000     
  -2.3699999999999999E-002     0.0000000000000000     
  -2.3650000000000001E-002     0.0000000000000000     
  -2.3599999999999999E-002     0.0000000000000000     
  -2.3550000000000001E-002     0.0000000000000000     
  -2.3500000000000000E-002     0.0000000000000000     
  -2.3449999999999999E-002     0.0000000000000000     
  -2.3400000000000001E-002     0.0000000000000000     
  -2.3349999999999999E-002     0.0000000000000000     
  -2.3300000000000001E-002     0.0000000000000000     
  -2.3250000000000000E-002     0.0000000000000000     
  -2.3199999999999998E-002     0.0000000000000000     
  -2.3150000000000000E-002     0.0000000000000000     
  -2.3099999999999999E-002     0.0000000000000000     
  -2.3050000000000001E-002     0.0000000000000000     
  -2.3000000000000000E-002     0.0000000000000000     
  -2.2950000000000002E-002     0.0000000000000000     
  -2.2900000000000000E-002     0.0000000000000000     
  -2.2849999999999999E-002     0.0000000000000000     
  -2.2800000000000001E-002     0.0000000000000000     
  -2.2749999999999999E-002     0.0000000000000000     
  -2.2700000000000001E-002     0.0000000000000000     
  -2.2650000000000000E-002     0.0000000000000000     
  -2.2599999999999999E-002     0.0000000000000000     
  -2.2550000000000001E-002     0.0000000000000000     
  -2.2499999999999999E-002     0.0000000000000000     
  -2.2450000000000001E-002     0.0000000000000000     
  -2.2400000000000000E-002     0.0000000000000000     
  -2.2349999999999998E-002     0.0000000000000000     
  -2.2300000000000000E-002     0.0000000000000000     
  -2.2249999999999999E-002     0.0000000000000000     
  -2.2200000000000001E-002     0.0000000000000000     
  -2.2150000000000000E-002     0.0000000000000000     
  -2.2100000000000002E-002     0.0000000000000000     
  -2.2050000000000000E-002     0.0000000000000000     
  -2.1999999999999999E-002     0.0000000000000000     
  -2.1950000000000001E-002     0.0000000000000000     
  -2.1899999999999999E-002     0.0000000000000000     
  -2.1850000000000001E-002     0.0000000000000000     
  -2.1800000000000000E-002     0.0000000000000000     
  -2.1749999999999999E-002     0.0000000000000000     
  -2.1700000000000001E-002     0.0000000000000000     
  -2.1649999999999999E-002     0.0000000000000000     
  -2.1600000000000001E-002     0.0000000000000000     
  -2.1550000000000000E-002     0.0000000000000000     
  -2.1499999999999998E-002     0.0000000000000000     
  -2.1450000000000000E-002     0.0000000000000000     
  -2.1399999999999999E-002     0.0000000000000000     
  -2.1350000000000001E-002     0.0000000000000000     
  -2.1299999999999999E-002     0.0000000000000000     
  -2.1250000000000002E-002     0.0000000000000000     
  -2.1200000000000000E-002     0.0000000000000000     
  -2.1149999999999999E-002     0.0000000000000000     
  -2.1100000000000001E-002     0.0000000000000000     
  -2.1049999999999999E-002     0.0000000000000000     
  -2.1000000000000001E-002     0.0000000000000000     
  -2.0950000000000000E-002     0.0000000000000000     
  -2.0899999999999998E-002     0.0000000000000000     
  -2.0850000000000000E-002     0.0000000000000000     
  -2.0799999999999999E-002     0.0000000000000000     
  -2.0750000000000001E-002     0.0000000000000000     
  -2.0700000000000000E-002     0.0000000000000000     
  -2.0649999999999998E-002     0.0000000000000000     
  -2.0600000000000000E-002     0.0000000000000000     
  -2.0549999999999999E-002     0.0000000000000000     
  -2.0500000000000001E-002     0.0000000000000000     
  -2.0449999999999999E-002     0.0000000000000000     
  -2.0400000000000001E-002     0.0000000000000000     
  -2.0350000000000000E-002     0.0000000000000000     
  -2.0299999999999999E-002     0.0000000000000000     
  -2.0250000000000001E-002     0.0000000000000000     
  -2.0199999999999999E-002     0.0000000000000000     
  -2.0150000000000001E-002     0.0000000000000000     
  -2.0100000000000000E-002     0.0000000000000000     
  -2.0049999999999998E-002     0.0000000000000000     
  -2.0000000000000000E-002     0.0000000000000000     
  -1.9949999999999999E-002     0.0000000000000000     
  -1.9900000000000001E-002     0.0000000000000000     
  -1.9850000000000000E-002     0.0000000000000000     
  -1.9799999999999998E-002     0.0000000000000000     
  -1.9750000000000000E-002     0.0000000000000000     
  -1.9699999999999999E-002     0.0000000000000000     
  -1.9650000000000001E-002     0.0000000000000000     
  -1.9599999999999999E-002     0.0000000000000000     
  -1.9550000000000001E-002     0.0000000000000000     
  -1.9500000000000000E-002     0.0000000000000000     
  -1.9449999999999999E-002     0.0000000000000000     
  -1.9400000000000001E-002     0.0000000000000000     
  -1.9349999999999999E-002     0.0000000000000000     
  -1.9300000000000001E-002     0.0000000000000000     
  -1.9250000000000000E-002     0.0000000000000000     
  -1.9199999999999998E-002     0.0000000000000000     
  -1.9150000000000000E-002     0.0000000000000000     
  -1.9099999999999999E-002     0.0000000000000000     
  -1.9050000000000001E-002     0.0000000000000000     
  -1.9000000000000000E-002     0.0000000000000000     
  -1.8949999999999998E-002     0.0000000000000000     
  -1.8900000000000000E-002     0.0000000000000000     
  -1.8849999999999999E-002     0.0000000000000000     
  -1.8800000000000001E-002     0.0000000000000000     
  -1.8749999999999999E-002     0.0000000000000000     
  -1.8700000000000001E-002     0.0000000000000000     
  -1.8650000000000000E-002     0.0000000000000000     
  -1.8599999999999998E-002     0.0000000000000000     
  -1.8550000000000001E-002     0.0000000000000000     
  -1.8499999999999999E-002     0.0000000000000000     
  -1.8450000000000001E-002     0.0000000000000000     
  -1.8400000000000000E-002     0.0000000000000000     
  -1.8349999999999998E-002     0.0000000000000000     
  -1.8300000000000000E-002     0.0000000000000000     
  -1.8249999999999999E-002     0.0000000000000000     
  -1.8200000000000001E-002     0.0000000000000000     
  -1.8149999999999999E-002     0.0000000000000000     
  -1.8100000000000002E-002     0.0000000000000000     
  -1.8050000000000000E-002     0.0000000000000000     
  -1.7999999999999999E-002     0.0000000000000000     
  -1.7950000000000001E-002     0.0000000000000000     
  -1.7899999999999999E-002     0.0000000000000000     
  -1.7850000000000001E-002     0.0000000000000000     
  -1.7800000000000000E-002     0.0000000000000000     
  -1.7749999999999998E-002     0.0000000000000000     
  -1.7700000000000000E-002     0.0000000000000000     
  -1.7649999999999999E-002     0.0000000000000000     
  -1.7600000000000001E-002     0.0000000000000000     
  -1.7550000000000000E-002     0.0000000000000000     
  -1.7499999999999998E-002     0.0000000000000000     
  -1.7450000000000000E-002     0.0000000000000000     
  -1.7399999999999999E-002     0.0000000000000000     
  -1.7350000000000001E-002     0.0000000000000000     
  -1.7299999999999999E-002     0.0000000000000000     
  -1.7250000000000001E-002     0.0000000000000000     
  -1.7200000000000000E-002     0.0000000000000000     
  -1.7149999999999999E-002     0.0000000000000000     
  -1.7100000000000001E-002     0.0000000000000000     
  -1.7049999999999999E-002     0.0000000000000000     
  -1.7000000000000001E-002     0.0000000000000000     
  -1.6950000000000000E-002     0.0000000000000000     
  -1.6899999999999998E-002     0.0000000000000000     
  -1.6850000000000000E-002     0.0000000000000000     
  -1.6799999999999999E-002     0.0000000000000000     
  -1.6750000000000001E-002     0.0000000000000000     
  -1.6700000000000000E-002     0.0000000000000000     
  -1.6649999999999998E-002     0.0000000000000000     
  -1.6600000000000000E-002     0.0000000000000000     
  -1.6549999999999999E-002     2.4204988848987821E-039
  -1.6500000000000001E-002     7.5041150447466558E-039
  -1.6449999999999999E-002     1.4161757049517007E-038
  -1.6400000000000001E-002     1.4402548237472400E-038
  -1.6350000000000000E-002     0.0000000000000000     
  -1.6299999999999999E-002    -2.3682864246913653E-038
  -1.6250000000000001E-002    -4.8149693666650434E-038
  -1.6199999999999999E-002    -6.3463015745290692E-038
  -1.6150000000000001E-002    -5.9743664242483333E-038
  -1.6100000000000000E-002    -1.7753362307793288E-038
  -1.6049999999999998E-002     6.0320257647122001E-038
  -1.6000000000000000E-002     1.4935171748769870E-037
  -1.5949999999999999E-002     2.2714912797286494E-037
  -1.5900000000000001E-002     2.5246563424241421E-037
  -1.5850000000000000E-002     2.0752264253652515E-037
  -1.5799999999999998E-002     7.9198826374222653E-038
  -1.5750000000000000E-002    -1.2719141828945974E-037
  -1.5699999999999999E-002    -4.0022205956383046E-037
  -1.5650000000000001E-002    -6.1094890142343545E-037
  -1.5599999999999999E-002    -6.9274461864945778E-037
  -1.5550000000000001E-002    -5.9036593308581828E-037
  -1.5500000000000000E-002    -3.0212777141097885E-037
  -1.5449999999999998E-002     1.1066935275822113E-037
  -1.5400000000000000E-002     6.0160470163005649E-037
  -1.5349999999999999E-002     1.0714632281925296E-036
  -1.5300000000000001E-002     1.4329226076893160E-036
  -1.5250000000000000E-002     1.5750340402268057E-036
  -1.5199999999999998E-002     1.3753298633676816E-036
  -1.5150000000000000E-002     7.4470059996592149E-037
  -1.5099999999999999E-002    -3.1793662446206912E-037
  -1.5050000000000001E-002    -1.6748990612589504E-036
  -1.4999999999999999E-002    -3.0505527819417523E-036
  -1.4949999999999998E-002    -4.0798942244335732E-036
  -1.4900000000000000E-002    -4.3878669599360811E-036
  -1.4849999999999999E-002    -3.6714085558932334E-036
  -1.4800000000000001E-002    -1.7778620303834031E-036
  -1.4749999999999999E-002     1.2360760283105843E-036
  -1.4700000000000001E-002     5.0310063837044198E-036
  -1.4650000000000000E-002     8.9287334129640751E-036
  -1.4599999999999998E-002     1.1915427374582657E-035
  -1.4550000000000000E-002     1.2772982622876781E-035
  -1.4499999999999999E-002     1.0368301853568997E-035
  -1.4450000000000001E-002     4.0721483276365295E-036
  -1.4400000000000000E-002    -5.8115603920270630E-036
  -1.4349999999999998E-002    -1.7761085521916573E-035
  -1.4300000000000000E-002    -2.9045181567755969E-035
  -1.4249999999999999E-002    -3.6115146768775113E-035
  -1.4200000000000001E-002    -3.5379016437439442E-035
  -1.4149999999999999E-002    -2.4250631473532202E-035
  -1.4099999999999998E-002    -2.2649148883710346E-036
  -1.4050000000000000E-002     2.8038185985940300E-035
  -1.3999999999999999E-002     6.0804954024878639E-035
  -1.3950000000000001E-002     8.7442052923826314E-035
  -1.3899999999999999E-002     9.8221340649011122E-035
  -1.3850000000000001E-002     8.4780838206414229E-035
  -1.3800000000000000E-002     4.3043056915335533E-035
  -1.3749999999999998E-002    -2.4226391457167449E-035
  -1.3700000000000000E-002    -1.0610923213458199E-034
  -1.3649999999999999E-002    -1.8422305090184253E-034
  -1.3600000000000001E-002    -2.3574386302599364E-034
  -1.3550000000000000E-002    -2.3850811110923838E-034
  -1.3499999999999998E-002    -1.7729751733538551E-034
  -1.3450000000000000E-002    -4.9893134252989698E-035
  -1.3399999999999999E-002     1.2877286551779427E-034
  -1.3350000000000001E-002     3.2592425977089084E-034
  -1.3299999999999999E-002     4.9473631025952261E-034
  -1.3249999999999998E-002     5.8274988830410483E-034
  -1.3200000000000000E-002     5.4390304786135352E-034
  -1.3149999999999998E-002     3.5204627314375999E-034
  -1.3100000000000001E-002     1.2951350030602710E-035
  -1.3049999999999999E-002    -4.2850096822573438E-034
  -1.3000000000000001E-002    -8.8888831980732483E-034
  -1.2950000000000000E-002    -1.2563890361616531E-033
  -1.2899999999999998E-002    -1.4105733666725230E-033
  -1.2850000000000000E-002    -1.2497594998457499E-033
  -1.2799999999999999E-002    -7.2159597104453930E-034