  -4.0000000000000001E-002     0.0000000000000000     
  -3.9949999999999999E-002     0.0000000000000000     
  -3.9899999999999998E-002     0.0000000000000000     
  -3.9850000000000003E-002     0.0000000000000000     
  -3.9800000000000002E-002     0.0000000000000000     
  -3.9750000000000001E-002     0.0000000000000000     
  -3.9699999999999999E-002     0.0000000000000000     
  -3.9649999999999998E-002     0.0000000000000000     
  -3.9600000000000003E-002     0.0000000000000000     
  -3.9550000000000002E-002     0.0000000000000000     
  -3.9500000000000000E-002     0.0000000000000000     
  -3.9449999999999999E-002     0.0000000000000000     
  -3.9399999999999998E-002     0.0000000000000000     
  -3.9350000000000003E-002     4.5154519767766958E-037
  -3.9300000000000002E-002     9.9611415258221908E-036
  -3.9250000000000000E-002     1.0783547807166452E-034
  -3.9199999999999999E-002     7.5836120697434408E-034
  -3.9150000000000004E-002     3.8523044554674284E-033
  -3.9100000000000003E-002     1.4774011002072959E-032
  -3.9050000000000001E-002     4.2792298791418596E-032
  -3.9000000000000000E-002     8.6705884400342710E-032
  -3.8949999999999999E-002     7.3220415941472776E-032
  -3.8900000000000004E-002    -2.9599940458238383E-031
  -3.8850000000000003E-002    -1.7790778813723980E-030
  -3.8800000000000001E-002    -5.6909646817254718E-030
  -3.8750000000000000E-002    -1.3241651449175622E-029
  -3.8699999999999998E-002    -2.3111932714169595E-029
  -3.8650000000000004E-002    -2.6504615813229809E-029
  -3.8600000000000002E-002    -5.5071158923632977E-031
  -3.8550000000000001E-002     9.5901287242677080E-029
  -3.8500000000000000E-002     3.1697420705940991E-028
  -3.8449999999999998E-002     7.0744271934442406E-028
  -3.8400000000000004E-002     1.2586150249840006E-027
  -3.8350000000000002E-002     1.8358882247931254E-027
  -3.8300000000000001E-002     2.0512559614977991E-027
  -3.8249999999999999E-002     1.0155901409223285E-027
  -3.8199999999999998E-002    -3.0931115610775046E-027
  -3.8150000000000003E-002    -1.3516847762239873E-026
  -3.8100000000000002E-002    -3.4756935610941787E-026
  -3.8050000000000000E-002    -7.0110361175844975E-026
  -3.7999999999999999E-002    -1.1452556702399155E-025
  -3.7949999999999998E-002    -1.4142576068196276E-025
  -3.7900000000000003E-002    -8.6984883016253711E-026
  -3.7850000000000002E-002     1.5505704831710681E-025
  -3.7800000000000000E-002     7.0364109782319466E-025
  -3.7749999999999999E-002     1.5979225535577750E-024
  -3.7699999999999997E-002     2.6340940775285846E-024
  -3.7650000000000003E-002     3.1790714510157028E-024
  -3.7600000000000001E-002     2.0941463143047375E-024
  -3.7550000000000000E-002    -2.0238820881925869E-024
  -3.7499999999999999E-002    -1.0092510897294217E-023
  -3.7449999999999997E-002    -2.1287105092147602E-023
  -3.7400000000000003E-002    -3.1683454134356138E-023
  -3.7350000000000001E-002    -3.3701114941005914E-023
  -3.7300000000000000E-002    -1.7538951774222058E-023
  -3.7249999999999998E-002     2.4540615949420485E-023
  -3.7200000000000004E-002     9.1485441852254377E-023
  -3.7150000000000002E-002     1.6673815780265988E-022
  -3.7100000000000001E-002     2.1595583432347104E-022
  -3.7050000000000000E-002     1.9400565655032837E-022
  -3.6999999999999998E-002     6.3462014687074410E-023
  -3.6950000000000004E-002    -1.7918692794905975E-022
  -3.6900000000000002E-002    -4.8101937129338044E-022
  -3.6850000000000001E-002    -7.3022999784360095E-022
  -3.6799999999999999E-002    -7.8730651206535452E-022
  -3.6749999999999998E-002    -5.4964425705763809E-022
  -3.6700000000000003E-002    -2.7308893781098434E-023
  -3.6650000000000002E-002     6.1276176103977675E-022
  -3.6600000000000001E-002     1.0805022544638049E-021
  -3.6549999999999999E-002     1.0951069315198251E-021
  -3.6499999999999998E-002     5.8185782348328122E-022
  -3.6450000000000003E-002    -1.6456189768071476E-022
  -3.6400000000000002E-002    -4.8258697655925635E-022
  -3.6350000000000000E-002     3.9074459733646399E-022
  -3.6299999999999999E-002     2.8146893181184882E-021
  -3.6249999999999998E-002     6.1965652694119488E-021
  -3.6200000000000003E-002     8.7372682892436714E-021
  -3.6150000000000002E-002     7.8058809226262257E-021
  -3.6100000000000000E-002     1.0618154253208233E-021
  -3.6049999999999999E-002    -1.1960773313089151E-020
  -3.6000000000000004E-002    -2.8519602409999810E-020
  -3.5950000000000003E-002    -4.2490852616028196E-020
  -3.5900000000000001E-002    -4.5996853152522034E-020
  -3.5850000000000000E-002    -3.2698234721238001E-020
  -3.5799999999999998E-002    -1.5778465566601576E-021
  -3.5750000000000004E-002     4.0726384615240691E-020
  -3.5700000000000003E-002     8.0900439308579498E-020
  -3.5650000000000001E-002     1.0386375112118659E-019
  -3.5600000000000000E-002     1.0010887307097880E-019
  -3.5549999999999998E-002     7.1921233416061956E-020
  -3.5500000000000004E-002     3.4246779354013235E-020
  -3.5450000000000002E-002     7.6522624500178103E-021
  -3.5400000000000001E-002     4.8003145401601303E-021
  -3.5349999999999999E-002     1.6638017751476114E-020
  -3.5299999999999998E-002     7.4573106856710752E-021
  -3.5250000000000004E-002    -7.3461821366411431E-020
  -3.5200000000000002E-002    -2.6276176534998921E-019
  -3.5150000000000001E-002    -5.4602086677468884E-019
  -3.5099999999999999E-002    -8.3171375416544231E-019
  -3.5049999999999998E-002    -9.5724482868477414E-019
  -3.5000000000000003E-002    -7.3929344626235379E-019
  -3.4950000000000002E-002    -6.1257658890145012E-020
  -3.4900000000000000E-002     1.0327048610383854E-018
  -3.4849999999999999E-002     2.2833639118369846E-018
  -3.4799999999999998E-002     3.2453360777984718E-018
  -3.4750000000000003E-002     3.4162819635274948E-018
  -3.4700000000000002E-002     2.4392437962070348E-018
  -3.4650000000000000E-002     3.0613433586547276E-019
  -3.4599999999999999E-002    -2.5325340310593395E-018
  -3.4549999999999997E-002    -5.2295782552334594E-018
  -3.4500000000000003E-002    -6.7928809364292976E-018
  -3.4450000000000001E-002    -6.4605475744110732E-018
  -3.4400000000000000E-002    -4.0588724059619711E-018
  -3.4349999999999999E-002    -1.7748281081213429E-019
  -3.4299999999999997E-002     3.9557230176630248E-018
  -3.4250000000000003E-002     6.9018531899239961E-018
  -3.4200000000000001E-002     7.6007303406429462E-018
  -3.4150000000000000E-002     5.8777488282797134E-018
  -3.4099999999999998E-002     2.6125754863841081E-018
  -3.4049999999999997E-002    -5.7442720977435386E-019
  -3.4000000000000002E-002    -2.0572584285036688E-018
  -3.3950000000000001E-002    -1.0799506009966036E-018
  -3.3900000000000000E-002     1.6402629651899718E-018
  -3.3849999999999998E-002     3.9567467936489933E-018
  -3.3799999999999997E-002     3.1293396693765984E-018
  -3.3750000000000002E-002    -2.7567405395450945E-018
  -3.3700000000000001E-002    -1.3338632272285264E-017
  -3.3649999999999999E-002    -2.5205020993278109E-017
  -3.3599999999999998E-002    -3.2394892428750633E-017
  -3.3550000000000003E-002    -2.8325794169785874E-017
  -3.3500000000000002E-002    -8.7043737793610329E-018
  -3.3450000000000001E-002     2.5587828497601731E-017
  -3.3399999999999999E-002     6.6900357417666757E-017
  -3.3349999999999998E-002     1.0156300235027216E-016
  -3.3300000000000003E-002     1.1332708530495079E-016
  -3.3250000000000002E-002     8.8845495343232790E-017
  -3.3200000000000000E-002     2.3580239564443923E-017
  -3.3149999999999999E-002    -7.3998759452313196E-017
  -3.3099999999999997E-002    -1.8186660591419434E-016
  -3.3050000000000003E-002    -2.6852698797011909E-016
  -3.3000000000000002E-002    -3.0120722565586115E-016
  -3.2950000000000000E-002    -2.5609257730056528E-016
  -3.2899999999999999E-002    -1.2748796795541349E-016
  -3.2850000000000004E-002     6.7276286434831154E-017
  -3.2800000000000003E-002     2.8933244566074897E-016
  -3.2750000000000001E-002     4.8638773980314687E-016
  -3.2700000000000000E-002     6.0552444682282584E-016
  -3.2649999999999998E-002     6.0709349838999162E-016
  -3.2600000000000004E-002     4.7559530725754156E-016
  -3.2550000000000003E-002     2.2433791038081067E-016
  -3.2500000000000001E-002    -1.0730377063506448E-016
  -3.2450000000000000E-002    -4.6276655432109926E-016
  -3.2399999999999998E-002    -7.8014780084939638E-016
  -3.2350000000000004E-002    -1.0032519755146774E-015
  -3.2300000000000002E-002    -1.0890213694348311E-015
  -3.2250000000000001E-002    -1.0106360004919004E-015
  -3.2199999999999999E-002    -7.5785680818394323E-016
  -3.2149999999999998E-002    -3.3751244720895114E-016
  -3.2100000000000004E-002     2.2339901944437511E-016
  -3.2050000000000002E-002     8.7174887671031692E-016
  -3.2000000000000001E-002     1.5223684658846197E-015
  -3.1949999999999999E-002     2.0576719113806046E-015
  -3.1899999999999998E-002     2.3386982396331633E-015
  -3.1850000000000003E-002     2.2308049744833949E-015
  -3.1800000000000002E-002     1.6418555054532525E-015
  -3.1750000000000000E-002     5.6427093197201799E-016
  -3.1699999999999999E-002    -8.9268261251924748E-016
  -3.1649999999999998E-002    -2.4950319099232773E-015
  -3.1600000000000003E-002    -3.9109639200332071E-015
  -3.1550000000000002E-002    -4.7734522150632452E-015
  -3.1500000000000000E-002    -4.7679439662704960E-015
  -3.1449999999999999E-002    -3.7240699406033159E-015
  -3.1399999999999997E-002    -1.6853228774376905E-015
  -3.1350000000000003E-002     1.0665518962983503E-015
  -3.1300000000000001E-002     4.0450575041514175E-015
  -3.1250000000000000E-002     6.6472573945604636E-015
  -3.1199999999999999E-002     8.2779126500886987E-015
  -3.1150000000000001E-002     8.4796203050243524E-015
  -3.1100000000000003E-002     7.0371172927325763E-015
  -3.1050000000000001E-002     4.0315578733324892E-015
  -3.1000000000000000E-002    -1.6479857757801094E-016
  -3.0949999999999998E-002    -4.9466838309448529E-015
  -3.0900000000000000E-002    -9.5677040033996313E-015
  -3.0850000000000002E-002    -1.3243273803653549E-014
  -3.0800000000000001E-002    -1.5247295435147176E-014
  -3.0750000000000000E-002    -1.4996602266138413E-014
  -3.0699999999999998E-002    -1.2128218452262196E-014
  -3.0650000000000000E-002    -6.5785869096942620E-015
  -3.0600000000000002E-002     1.3326544423060432E-015
  -3.0550000000000001E-002     1.0828083947485915E-014
  -3.0499999999999999E-002     2.0640252365887802E-014
  -3.0449999999999998E-002     2.9067419890314173E-014
  -3.0400000000000000E-002     3.4158608111264225E-014
  -3.0350000000000002E-002     3.4042991760781203E-014
  -3.0300000000000001E-002     2.7373182736165725E-014
  -3.0249999999999999E-002     1.3799374559108954E-014
  -3.0200000000000001E-002    -5.6506431827131333E-015
  -3.0150000000000000E-002    -2.8423253525392857E-014
  -3.0100000000000002E-002    -5.0631197407905535E-014
  -3.0050000000000000E-002    -6.7623882236426499E-014
  -2.9999999999999999E-002    -7.4874917917492380E-014
  -2.9950000000000001E-002    -6.9025051572811629E-014
  -2.9899999999999999E-002    -4.8846768255633093E-014
  -2.9850000000000002E-002    -1.5878854024198664E-014
  -2.9800000000000000E-002     2.5471473957732496E-014
  -2.9749999999999999E-002     6.8452490977036285E-014
  -2.9700000000000001E-002     1.0506763099318882E-013
  -2.9650000000000003E-002     1.2755833135422295E-013
  -2.9600000000000001E-002     1.2997563695876824E-013
  -2.9550000000000000E-002     1.0951132822439467E-013
  -2.9499999999999998E-002     6.7301843805565222E-014
  -2.9450000000000000E-002     8.5257373236702038E-015
  -2.9400000000000003E-002    -5.8240676272349133E-014
  -2.9350000000000001E-002    -1.2230054097930659E-013
  -2.9300000000000000E-002    -1.7252575278103539E-013
  -2.9249999999999998E-002    -1.9917778497526574E-013
  -2.9200000000000000E-002    -1.9557520480234726E-013
  -2.9150000000000002E-002    -1.5936299413948315E-013
  -2.9100000000000001E-002    -9.3203354787496629E-014
  -2.9049999999999999E-002    -4.7804835032808639E-015
  -2.8999999999999998E-002     9.3917610107302735E-014
  -2.8950000000000000E-002     1.8800718764061264E-013
  -2.8900000000000002E-002     2.6169791293904968E-013
  -2.8850000000000001E-002     3.0066752861514304E-013
  -2.8799999999999999E-002     2.9453254784603109E-013
  -2.8749999999999998E-002     2.3904316181392983E-013
  -2.8700000000000000E-002     1.3758886035254540E-013
  -2.8650000000000002E-002     1.6318714449637581E-015
  -2.8600000000000000E-002    -1.5019188525924514E-013
  -2.8549999999999999E-002    -2.9435331155253524E-013
  -2.8500000000000001E-002    -4.0587349141227123E-013
  -2.8450000000000000E-002    -4.6244406334302187E-013
  -2.8400000000000002E-002    -4.4854080042959854E-013
  -2.8350000000000000E-002    -3.5877323238635516E-013
  -2.8299999999999999E-002    -1.9979687606055059E-013
  -2.8250000000000001E-002     9.6583045951516884E-015
  -2.8200000000000003E-002     2.4076514528381178E-013
  -2.8150000000000001E-002     4.5835618449225265E-013
  -2.8100000000000000E-002     6.2593804487597208E-013
  -2.8049999999999999E-002     7.1124843245700023E-013
  -2.8000000000000001E-002     6.9157516473032026E-013
  -2.7950000000000003E-002     5.5810072035652291E-013
  -2.7900000000000001E-002     3.1865418606388567E-013
  -2.7850000000000000E-002    -1.5927875265349987E-015
  -2.7799999999999998E-002    -3.6177804214085985E-013
  -2.7750000000000000E-002    -7.0944527272861179E-013
  -2.7700000000000002E-002    -9.8693468133247874E-013
  -2.7650000000000001E-002    -1.1395988836196270E-012
  -2.7600000000000000E-002    -1.1249842968297265E-012
  -2.7549999999999998E-002    -9.2171462438772960E-013
  -2.7500000000000000E-002    -5.3649701272585330E-013
  -2.7450000000000002E-002    -7.5869263243801915E-015
  -2.7400000000000001E-002     5.9669140595282099E-013
  -2.7349999999999999E-002     1.1851031632949146E-012
  -2.7299999999999998E-002     1.6560557331575143E-012
  -2.7250000000000000E-002     1.9140594420787849E-012
  -2.7200000000000002E-002     1.8875014171949497E-012
  -2.7150000000000001E-002     1.5444256820272806E-012
  -2.7099999999999999E-002     9.0293729685423924E-013
  -2.7049999999999998E-002     3.3543204871519978E-014
  -2.7000000000000000E-002    -9.4787359608188791E-013
  -2.6950000000000002E-002    -1.8959386100251028E-012
  -2.6900000000000000E-002    -2.6581727727612879E-012
  -2.6849999999999999E-002    -3.1000695488587035E-012
  -2.6800000000000001E-002    -3.1283584183125607E-012
  -2.6749999999999999E-002    -2.7081752846912771E-012
  -2.6700000000000002E-002    -1.8709743428981723E-012
  -2.6650000000000000E-002    -7.1176181653624923E-013
  -2.6599999999999999E-002     6.2381308834243550E-013
  -2.6550000000000001E-002     1.9602059757738621E-012
  -2.6500000000000003E-002     3.1170505449384752E-012
  -2.6450000000000001E-002     3.9345552336242834E-012
  -2.6400000000000000E-002     4.2954654404909614E-012
  -2.6349999999999998E-002     4.1406441589688003E-012
  -2.6300000000000000E-002     3.4764248489996913E-012
  -2.6250000000000002E-002     2.3731053282711058E-012
  -2.6200000000000001E-002     9.5503102670049351E-013
  -2.6150000000000000E-002    -6.1635358000620969E-013
  -2.6099999999999998E-002    -2.1643686633397653E-012
  -2.6050000000000000E-002    -3.5211657224897197E-012
  -2.6000000000000002E-002    -4.5508571716089612E-012
  -2.5950000000000001E-002    -5.1683666736858732E-012
  -2.5899999999999999E-002    -5.3508179619928442E-012
  -2.5849999999999998E-002    -5.1389240543658548E-012
  -2.5800000000000000E-002    -4.6270332389404411E-012
  -2.5750000000000002E-002    -3.9421678578561357E-012
  -2.5700000000000001E-002    -3.2143176890711046E-012
  -2.5649999999999999E-002    -2.5420588238359472E-012
  -2.5599999999999998E-002    -1.9588874364250530E-012
  -2.5550000000000000E-002    -1.4060969677854209E-012
  -2.5500000000000002E-002    -7.1743328189648384E-013
  -2.5450000000000000E-002     3.8080850824966391E-013
  -2.5399999999999999E-002     2.2528507515256907E-012
  -2.5349999999999998E-002     5.3209014691376823E-012
  -2.5300000000000000E-002     1.0020602274193080E-011
  -2.5250000000000002E-002     1.6749957466919608E-011
  -2.5200000000000000E-002     2.5818247078065487E-011
  -2.5149999999999999E-002     3.7401630729176000E-011
  -2.5100000000000001E-002     5.1511488876330112E-011
  -2.5049999999999999E-002     6.7980364904908510E-011
  -2.5000000000000001E-002     8.6468455664515228E-011
  -2.4950000000000000E-002     1.0649144593892149E-010
  -2.4899999999999999E-002     1.2746793614754278E-010
  -2.4850000000000001E-002     1.4878190840929920E-010
  -2.4800000000000003E-002     1.6985326580343816E-010
  -2.4750000000000001E-002     1.9020712214049873E-010
  -2.4700000000000000E-002     2.0953175065439405E-010
  -2.4649999999999998E-002     2.2771549107921198E-010
  -2.4600000000000000E-002     2.4485522281347135E-010
  -2.4550000000000002E-002     2.6123317482528541E-010
  -2.4500000000000001E-002     2.7726446198047459E-010
  -2.4450000000000000E-002     2.9342273482824752E-010
  -2.4399999999999998E-002     3.1015651198770375E-010
  -2.4350000000000000E-002     3.2781074591576797E-010
  -2.4299999999999999E-002     3.4656815876524801E-010
  -2.4250000000000001E-002     3.6642040293911063E-010
  -2.4199999999999999E-002     3.8717485592620244E-010
  -2.4150000000000001E-002     4.0849407194668141E-010
  -2.4100000000000000E-002     4.2996038033353108E-010
  -2.4049999999999998E-002     4.5115168435205329E-010
  -2.4000000000000000E-002     4.7171490870934903E-010
  -2.3949999999999999E-002     4.9142355317151391E-010
  -2.3900000000000001E-002     5.1021102796818414E-010
  -2.3850000000000000E-002     5.2817628681597580E-010
  -2.3800000000000002E-002     5.4556450496843338E-010
  -2.3750000000000000E-002     5.6272755196705413E-010
  -2.3699999999999999E-002     5.8007424992020236E-010
  -2.3650000000000001E-002     5.9801712481380276E-010
  -2.3599999999999999E-002     6.1692413207386160E-010
  -2.3550000000000001E-002     6.3707891389821968E-010
  -2.3500000000000000E-002     6.5865349265350031E-010
  -2.3449999999999999E-002     6.8169450962114506E-010
  -2.3400000000000001E-002     7.0612437705106690E-010
  -2.3349999999999999E-002     7.3175731676426323E-010
  -2.3300000000000001E-002     7.5833014737539423E-010
  -2.3250000000000000E-002     7.8554516977112805E-010
  -2.3199999999999998E-002     8.1312154811813914E-010
  -2.3150000000000000E-002     8.4084649114827964E-010
  -2.3099999999999999E-002     8.6861870400028312E-010
  -2.3050000000000001E-002     8.9647421978400793E-010
  -2.3000000000000000E-002     9.2458843410464230E-010
  -2.2950000000000002E-002     9.5325033356120260E-010
  -2.2900000000000000E-002     9.8281374060970920E-010
  -2.2849999999999999E-002     1.0136324227286236E-009
  -2.2800000000000001E-002     1.0459928879873710E-009
  -2.2749999999999999E-002     1.0800576469832892E-009
  -2.2700000000000001E-002     1.1158318736944981E-009
  -2.2650000000000000E-002     1.1531601812012829E-009
  -2.2599999999999999E-002     1.1917551965889826E-009
  -2.2550000000000001E-002     1.2312515454725247E-009
  -2.2499999999999999E-002     1.2712757221503269E-009
  -2.2450000000000001E-002     1.3115195251718467E-009
  -2.2400000000000000E-002     1.3518020025733362E-009
  -2.2349999999999998E-002     1.3921123288765261E-009
  -2.2300000000000000E-002     1.4326262774027813E-009
  -2.2249999999999999E-002     1.4736940343023894E-009
  -2.2200000000000001E-002     1.5158028260785353E-009
  -2.2150000000000000E-002     1.5595172896543946E-009
  -2.2100000000000002E-002     1.6054068223439491E-009
  -2.2050000000000000E-002     1.6539663906014911E-009
  -2.1999999999999999E-002     1.7055424279619781E-009
  -2.1950000000000001E-002     1.7602718981544239E-009
  -2.1899999999999999E-002     1.8180482709521150E-009
  -2.1850000000000001E-002     1.8785208556358769E-009
  -2.1800000000000000E-002     1.9411324317734775E-009
  -2.1749999999999999E-002     2.0051964494931717E-009
  -2.1700000000000001E-002     2.0700030788154515E-009
  -2.1649999999999999E-002     2.1349394107975549E-009
  -2.1600000000000001E-002     2.1996031700823144E-009
  -2.1550000000000000E-002     2.2638893232557316E-009
  -2.1499999999999998E-002     2.3280307092780934E-009
  -2.1450000000000000E-002     2.3925828707854930E-009
  -2.1399999999999999E-002     2.4583533559623891E-009
  -2.1350000000000001E-002     2.5262883501143319E-009
  -2.1299999999999999E-002     2.5973393473065500E-009
  -2.1250000000000002E-002     2.6723313122749074E-009
  -2.1200000000000000E-002     2.7518569096183953E-009
  -2.1149999999999999E-002     2.8362131175554765E-009
  -2.1100000000000001E-002     2.9253859809593722E-009
  -2.1049999999999999E-002     3.0190787671394485E-009
  -2.1000000000000001E-002     3.1167762967370071E-009
  -2.0950000000000000E-002     3.2178284552175213E-009
  -2.0899999999999998E-002     3.3215384851964044E-009
  -2.0850000000000000E-002     3.4272484011188267E-009
  -2.0799999999999999E-002     3.5344125648660928E-009
  -2.0750000000000001E-002     3.6426566971554430E-009
  -2.0700000000000000E-002     3.7518210620255554E-009
  -2.0649999999999998E-002     3.8619851180858081E-009
  -2.0600000000000000E-002     3.9734680603678832E-009
  -2.0549999999999999E-002     4.0868076933823983E-009
  -2.0500000000000001E-002     4.2027045208540692E-009
  -2.0449999999999999E-002     4.3219443553766229E-009
  -2.0400000000000001E-002     4.4452939078394823E-009
  -2.0350000000000000E-002     4.5733999303690916E-009
  -2.0299999999999999E-002     4.7066948900842501E-009
  -2.0250000000000001E-002     4.8453452739520136E-009
  -2.0199999999999999E-002     4.9892422157517741E-009
  -2.0150000000000001E-002     5.1380485945280514E-009
  -2.0100000000000000E-002     5.2912828273612040E-009
  -2.0049999999999998E-002     5.4484384137371201E-009
  -2.0000000000000000E-002     5.6090956109751513E-009
  -1.9949999999999999E-002     5.7730150560164077E-009
  -1.9900000000000001E-002     5.9401920533105354E-009
  -1.9850000000000000E-002     6.1108590764375872E-009
  -1.9799999999999998E-002     6.2854516458813161E-009
  -1.9750000000000000E-002     6.4645401483751147E-009
  -1.9699999999999999E-002     6.6487566665031531E-009
  -1.9650000000000001E-002     6.8387220064498498E-009
  -1.9599999999999999E-002     7.0349928511355469E-009
  -1.9550000000000001E-002     7.2380264391186717E-009
  -1.9500000000000000E-002     7.4481628657831418E-009
  -1.9449999999999999E-002     7.6656167471202832E-009
  -1.9400000000000001E-002     7.8904749030078329E-009
  -1.9349999999999999E-002     8.1226991983306364E-009
  -1.9300000000000001E-002     8.3621267009698657E-009
  -1.9250000000000000E-002     8.6084928806645192E-009
  -1.9199999999999998E-002     8.8614668656370205E-009
  -1.9150000000000000E-002     9.1206996914626189E-009
  -1.9099999999999999E-002     9.3858934239259424E-009
  -1.9050000000000001E-002     9.6568594993059822E-009
  -1.9000000000000000E-002     9.9335645476601418E-009
  -1.8949999999999998E-002     1.0216148194954494E-008
  -1.8900000000000000E-002     1.0504896448769249E-008
  -1.8849999999999999E-002     1.0800186120773402E-008
  -1.8800000000000001E-002     1.1102418190240768E-008
  -1.8749999999999999E-002     1.1411942874544946E-008
  -1.8700000000000001E-002     1.1729018740805061E-008
  -1.8650000000000000E-002     1.2053805109527783E-008
  -1.8599999999999998E-002     1.2386393560452239E-008
  -1.8550000000000001E-002     1.2726874299032980E-008
  -1.8499999999999999E-002     1.3075407993753411E-008
  -1.8450000000000001E-002     1.3432289649769129E-008
  -1.8400000000000000E-002     1.3797973811822268E-008
  -1.8349999999999998E-002     1.4173053180317996E-008
  -1.8300000000000000E-002     1.4558213290021562E-008
  -1.8249999999999999E-002     1.4954150014261336E-008
  -1.8200000000000001E-002     1.5361488750454692E-008
  -1.8149999999999999E-002     1.5780728401938769E-008
  -1.8100000000000002E-002     1.6212223277308616E-008
  -1.8050000000000000E-002     1.6656190916158318E-008
  -1.7999999999999999E-002     1.7112764132094193E-008
  -1.7950000000000001E-002     1.7582063617144339E-008
  -1.7899999999999999E-002     1.8064255271961263E-008
  -1.7850000000000001E-002     1.8559598886185473E-008
  -1.7800000000000000E-002     1.9068472029324232E-008
  -1.7749999999999998E-002     1.9591352723942559E-008
  -1.7700000000000000E-002     2.0128798353260182E-008
  -1.7649999999999999E-002     2.0681408806808513E-008
  -1.7600000000000001E-002     2.1249783192113414E-008
  -1.7550000000000000E-002     2.1834487648071408E-008
  -1.7499999999999998E-002     2.2436017471985014E-008
  -1.7450000000000000E-002     2.3054748951538353E-008
  -1.7399999999999999E-002     2.3690899642790984E-008
  -1.7350000000000001E-002     2.4344484188626705E-008
  -1.7299999999999999E-002     2.5015281474165520E-008
  -1.7250000000000001E-002     2.5702831479457836E-008
  -1.7200000000000000E-002     2.6406451787032263E-008
  -1.7149999999999999E-002     2.7125300196598103E-008
  -1.7100000000000001E-002     2.7858481062395506E-008
  -1.7049999999999999E-002     2.8605146932698687E-008
  -1.7000000000000001E-002     2.9364617557024012E-008
  -1.6950000000000000E-002     3.0136496220210453E-008
  -1.6899999999999998E-002     3.0920714897818287E-008
  -1.6850000000000000E-002     3.1717584602594776E-008
  -1.6799999999999999E-002     3.2527767002750237E-008
  -1.6750000000000001E-002     3.3352244972726170E-008
  -1.6700000000000000E-002     3.4192271856765021E-008
  -1.6649999999999998E-002     3.5049300963988902E-008
  -1.6600000000000000E-002     3.5924966154546986E-008
  -1.6549999999999999E-002     3.6821008728061358E-008
  -1.6500000000000001E-002     3.7739259934854446E-008
  -1.6449999999999999E-002     3.8681563556187514E-008
  -1.6400000000000001E-002     3.9649741186935818E-008
  -1.6350000000000000E-002     4.0645522873844947E-008
  -1.6299999999999999E-002     4.1670484228592696E-008
  -1.6250000000000001E-002     4.2726003940591924E-008
  -1.6199999999999999E-002     4.3813239755213295E-008
  -1.6150000000000001E-002     4.4933153656027397E-008
  -1.6100000000000000E-002     4.6086565109802937E-008
  -1.6049999999999998E-002     4.7274192206384036E-008
  -1.6000000000000000E-002     4.8496753167668549E-008
  -1.5949999999999999E-002     4.9754990659522274E-008
  -1.5900000000000001E-002     5.1049690504474305E-008
  -1.5850000000000000E-002     5.2381628517142519E-008
  -1.5799999999999998E-002     5.3751498648731982E-008
  -1.5750000000000000E-002     5.5159822537236472E-008
  -1.5699999999999999E-002     5.6606871101329076E-008
  -1.5650000000000001E-002     5.8092631113545244E-008
  -1.5599999999999999E-002     5.9616810731079030E-008
  -1.5550000000000001E-002     6.1178861057168907E-008
  -1.5500000000000000E-002     6.2778072782446875E-008
  -1.5449999999999998E-002     6.4413613545747096E-008
  -1.5400000000000000E-002     6.6084561522592615E-008
  -1.5349999999999999E-002     6.7789897861018094E-008
  -1.5300000000000001E-002     6.9528490203157269E-008
  -1.5250000000000000E-002     7.1299075967709588E-008
  -1.5199999999999998E-002     7.3100265657258995E-008
  -1.5150000000000000E-002     7.4930569141121283E-008
  -1.5099999999999999E-002     7.6788518837297613E-008
  -1.5050000000000001E-002     7.8672804116815660E-008
  -1.4999999999999999E-002     8.0582467016368700E-008
  -1.4949999999999998E-002     8.2517110156763457E-008
  -1.4900000000000000E-002     8.4477058184647777E-008
  -1.4849999999999999E-002     8.6463514979080523E-008
  -1.4800000000000001E-002     8.8478608577054789E-008
  -1.4749999999999999E-002     9.0525364791356435E-008
  -1.4700000000000001E-002     9.2607598886463815E-008
  -1.4650000000000000E-002     9.4729827851917108E-008
  -1.4599999999999998E-002     9.6897084816923822E-008
  -1.4550000000000000E-002     9.9114752355486968E-008
  -1.4499999999999999E-002     1.0138841837138013E-007
  -1.4450000000000001E-002     1.0372375021141453E-007
  -1.4400000000000000E-002     1.0612635834253471E-007
  -1.4349999999999998E-002     1.0860173646278479E-007
  -1.4300000000000000E-002     1.1115513785930189E-007
  -1.4249999999999999E-002     1.1379156177970723E-007
  -1.4200000000000001E-002     1.1651570165991284E-007
  -1.4149999999999999E-002     1.1933189398959392E-007
  -1.4099999999999998E-002     1.2224412563366389E-007
  -1.4050000000000000E-002     1.2525606393847117E-007
  -1.3999999999999999E-002     1.2837096158682800E-007
  -1.3950000000000001E-002     1.3159165561554646E-007
  -1.3899999999999999E-002     1.3492055273439401E-007
  -1.3850000000000001E-002     1.3835955111222775E-007
  -1.3800000000000000E-002     1.4191003724409026E-007
  -1.3749999999999998E-002     1.4557278712421267E-007
  -1.3700000000000000E-002     1.4934795705616572E-007
  -1.3649999999999999E-002     1.5323500601569899E-007
  -1.3600000000000001E-002     1.5723272593439277E-007
  -1.3550000000000000E-002     1.6133916954600812E-007
  -1.3499999999999998E-002     1.6555173679553149E-007
  -1.3450000000000000E-002     1.6986711633429208E-007
  -1.3399999999999999E-002     1.7428136410885440E-007
  -1.3350000000000001E-002     1.7878991281803930E-007
  -1.3299999999999999E-002     1.8338768660337733E-007
  -1.3249999999999998E-002     1.8806931033639654E-007
  -1.3200000000000000E-002     1.9282925866573420E-007
  -1.3149999999999998E-002     1.9766214787474563E-007
  -1.3100000000000001E-002     2.0256302286119315E-007
  -1.3049999999999999E-002     2.0752745780901514E-007
  -1.3000000000000001E-002     2.1255187557987029E-007
  -1.2950000000000000E-002     2.1763355598091270E-007
  -1.2899999999999998E-002     2.2277071681697464E-007
  -1.2850000000000000E-002     2.2796248049986922E-007
  -1.2799999999999999E-002     2.3320876161263480E-007