  -4.0000000000000001E-002     0.0000000000000000     
  -3.9949999999999999E-002     0.0000000000000000     
  -3.9899999999999998E-002     0.0000000000000000     
  -3.9850000000000003E-002     0.0000000000000000     
  -3.9800000000000002E-002     0.0000000000000000     
  -3.9750000000000001E-002     0.0000000000000000     
  -3.9699999999999999E-002     0.0000000000000000     
  -3.9649999999999998E-002     0.0000000000000000     
  -3.9600000000000003E-002     0.0000000000000000     
  -3.9550000000000002E-002     0.0000000000000000     
  -3.9500000000000000E-002     0.0000000000000000     
  -3.9449999999999999E-002     0.0000000000000000     
  -3.9399999999999998E-002     0.0000000000000000     
  -3.9350000000000003E-002     0.0000000000000000     
  -3.9300000000000002E-002     0.0000000000000000     
  -3.9250000000000000E-002     0.0000000000000000     
  -3.9199999999999999E-002     0.0000000000000000     
  -3.9150000000000004E-002     0.0000000000000000     
  -3.9100000000000003E-002     0.0000000000000000     
  -3.9050000000000001E-002     0.0000000000000000     
  -3.9000000000000000E-002     0.0000000000000000     
  -3.8949999999999999E-002     0.0000000000000000     
  -3.8900000000000004E-002     0.0000000000000000     
  -3.8850000000000003E-002     0.0000000000000000     
  -3.8800000000000001E-002     0.0000000000000000     
  -3.8750000000000000E-002     0.0000000000000000     
  -3.8699999999999998E-002     0.0000000000000000     
  -3.8650000000000004E-002     0.0000000000000000     
  -3.8600000000000002E-002     0.0000000000000000     
  -3.8550000000000001E-002     0.0000000000000000     
  -3.8500000000000000E-002     0.0000000000000000     
  -3.8449999999999998E-002     0.0000000000000000     
  -3.8400000000000004E-002     0.0000000000000000     
  -3.8350000000000002E-002     0.0000000000000000     
  -3.8300000000000001E-002     0.0000000000000000     
  -3.8249999999999999E-002     0.0000000000000000     
  -3.8199999999999998E-002     0.0000000000000000     
  -3.8150000000000003E-002     0.0000000000000000     
  -3.8100000000000002E-002     0.0000000000000000     
  -3.8050000000000000E-002     0.0000000000000000     
  -3.7999999999999999E-002     0.0000000000000000     
  -3.7949999999999998E-002     0.0000000000000000     
  -3.7900000000000003E-002     0.0000000000000000     
  -3.7850000000000002E-002     0.0000000000000000     
  -3.7800000000000000E-002     0.0000000000000000     
  -3.7749999999999999E-002     0.0000000000000000     
  -3.7699999999999997E-002     0.0000000000000000     
  -3.7650000000000003E-002     0.0000000000000000     
  -3.7600000000000001E-002     0.0000000000000000     
  -3.7550000000000000E-002     0.0000000000000000     
  -3.7499999999999999E-002    -6.9779949343331857E-039
  -3.7449999999999997E-002    -2.7927127573521637E-038
  -3.7400000000000003E-002    -7.0680216804897395E-038
  -3.7350000000000001E-002    -1.3248426367598106E-037
  -3.7300000000000000E-002    -1.3874359497633942E-037
  -3.7249999999999998E-002     3.7970064536462904E-038
  -3.7200000000000004E-002     6.0492909202653698E-037
  -3.7150000000000002E-002     1.8105869940424224E-036
  -3.7100000000000001E-002     3.6668326375073891E-036
  -3.7050000000000000E-002     5.4940526293757110E-036
  -3.6999999999999998E-002     5.2560950982200941E-036
  -3.6950000000000004E-002    -8.8265096426400825E-037
  -3.6900000000000002E-002    -1.7991521420427135E-035
  -3.6850000000000001E-002    -4.9567134751125921E-035
  -3.6799999999999999E-002    -9.1504101698103607E-035
  -3.6749999999999998E-002    -1.2339023336218815E-034
  -3.6700000000000003E-002    -1.0097618380700176E-034
  -3.6650000000000002E-002     4.1794484671841304E-035
  -3.6600000000000001E-002     3.6942927266559848E-034
  -3.6549999999999999E-002     8.9065889009918921E-034
  -3.6499999999999998E-002     1.4767158048669989E-033
  -3.6450000000000003E-002     1.7813329652918064E-033
  -3.6400000000000002E-002     1.2246260831891904E-033
  -3.6350000000000000E-002    -8.7457834297859153E-034
  -3.6299999999999999E-002    -4.9493057815606486E-033
  -3.6249999999999998E-002    -1.0629672170311118E-032
  -3.6200000000000003E-002    -1.6143312425874640E-032
  -3.6150000000000002E-002    -1.8007311523570157E-032
  -3.6100000000000000E-002    -1.1457265326312791E-032
  -3.6049999999999999E-002     8.0191198856881457E-033
  -3.6000000000000004E-002     4.2027464098617073E-032
  -3.5950000000000003E-002     8.6068730401359854E-032
  -3.5900000000000001E-002     1.2701783536421170E-031
  -3.5850000000000000E-002     1.4287254907463181E-031
  -3.5799999999999998E-002     1.0617798097513223E-031
  -3.5750000000000004E-002    -8.2864367246855994E-033
  -3.5700000000000003E-002    -2.1215558090127055E-031
  -3.5650000000000001E-002    -4.9016001811299737E-031
  -3.5600000000000000E-002    -7.8731041226597036E-031
  -3.5549999999999998E-002    -9.9991474005294402E-031
  -3.5500000000000004E-002    -9.7572172412725303E-031
  -3.5450000000000002E-002    -5.3220362943264859E-031
  -3.5400000000000001E-002     4.9405520154131582E-031
  -3.5349999999999999E-002     2.1549552368309705E-030
  -3.5299999999999998E-002     4.2578006333928264E-030
  -3.5250000000000004E-002     6.2275102072718991E-030
  -3.5200000000000002E-002     7.0484678874482835E-030
  -3.5150000000000001E-002     5.4096317741128679E-030
  -3.5099999999999999E-002     1.6362282533990172E-031
  -3.5049999999999998E-002    -8.8995455466444348E-030
  -3.5000000000000003E-002    -2.0182056814620078E-029
  -3.4950000000000002E-002    -2.9792807673114271E-029
  -3.4900000000000000E-002    -3.2080163787462077E-029
  -3.4849999999999999E-002    -2.1646001736666139E-029
  -3.4799999999999998E-002     3.3361455295452467E-030
  -3.4750000000000003E-002     3.7707736963331891E-029
  -3.4700000000000002E-002     6.8019780905655675E-029
  -3.4650000000000000E-002     7.5753783256868020E-029
  -3.4599999999999999E-002     4.6172726921237732E-029
  -3.4549999999999997E-002    -1.9166751506855685E-029
  -3.4500000000000003E-002    -9.2191051608627238E-029
  -3.4450000000000001E-002    -1.1910898425793495E-028
  -3.4400000000000000E-002    -3.9771715573779846E-029
  -3.4349999999999999E-002     1.7404193358943109E-028
  -3.4299999999999997E-002     4.7350632814356523E-028
  -3.4250000000000003E-002     7.0590369712555258E-028
  -3.4200000000000001E-002     6.3651588844019391E-028
  -3.4150000000000000E-002     3.8917126622894643E-029
  -3.4099999999999998E-002    -1.1569672726445506E-027
  -3.4049999999999997E-002    -2.7123145891774359E-027
  -3.4000000000000002E-002    -4.0112949239386770E-027
  -3.3950000000000001E-002    -4.1686713290774239E-027
  -3.3900000000000000E-002    -2.3529344469439184E-027
  -3.3849999999999998E-002     1.7390736196912886E-027
  -3.3799999999999997E-002     7.4417460168252032E-027
  -3.3750000000000002E-002     1.2975846852414562E-026
  -3.3700000000000001E-002     1.5821101039223285E-026
  -3.3649999999999999E-002     1.3639553399831598E-026
  -3.3599999999999998E-002     5.4850479328824704E-027
  -3.3550000000000003E-002    -7.2472813394911060E-027
  -3.3500000000000002E-002    -2.0765281161722876E-026
  -3.3450000000000001E-002    -3.0101081755462139E-026
  -3.3399999999999999E-002    -3.1397314853000202E-026
  -3.3349999999999998E-002    -2.4307507735795257E-026
  -3.3300000000000003E-002    -1.3065033832706967E-026
  -3.3250000000000002E-002    -4.9461295616200872E-027
  -3.3200000000000000E-002    -5.9069283680412179E-027
  -3.3149999999999999E-002    -1.4892263115142873E-026
  -3.3099999999999997E-002    -1.9963319313126876E-026
  -3.3050000000000003E-002     7.3989873425208365E-029
  -3.3000000000000002E-002     6.6320554840655075E-026
  -3.2950000000000000E-002     1.8407580413531602E-025
  -3.2899999999999999E-002     3.2676101327806467E-025
  -3.2850000000000004E-002     4.2897084018121348E-025
  -3.2800000000000003E-002     3.9798675612809920E-025
  -3.2750000000000001E-002     1.4762144547048791E-025
  -3.2700000000000000E-002    -3.5193454989316174E-025
  -3.2649999999999998E-002    -1.0261348980275583E-024
  -3.2600000000000004E-002    -1.6752103223568361E-024
  -3.2550000000000003E-002    -2.0033145825166203E-024
  -3.2500000000000001E-002    -1.7058551098078622E-024
  -3.2450000000000000E-002    -5.9873211819808990E-025
  -3.2399999999999998E-002     1.2525058109037352E-024
  -3.2350000000000004E-002     3.4605411875828720E-024
  -3.2300000000000002E-002     5.3517846596769289E-024
  -3.2250000000000001E-002     6.1288369347937731E-024
  -3.2199999999999999E-002     5.1305242178975538E-024
  -3.2149999999999998E-002     2.1116167686176424E-024
  -3.2100000000000004E-002    -2.5619292545656357E-024
  -3.2050000000000002E-002    -7.8935480950129251E-024
  -3.2000000000000001E-002    -1.2449923344848612E-023
  -3.1949999999999999E-002    -1.4727672560729047E-023
  -3.1899999999999998E-002    -1.3581921549193275E-023
  -3.1850000000000003E-002    -8.5762673035008948E-024
  -3.1800000000000002E-002    -1.4310847301937005E-025
  -3.1750000000000000E-002     1.0477031264351071E-023
  -3.1699999999999999E-002     2.1455877912925649E-023
  -3.1649999999999998E-002     3.0640495467908711E-023
  -3.1600000000000003E-002     3.5761340546927236E-023
  -3.1550000000000002E-002     3.4581798565718506E-023
  -3.1500000000000000E-002     2.5107153746175823E-023
  -3.1449999999999999E-002     6.0377947867017022E-024
  -3.1399999999999997E-002    -2.2412870947228817E-023
  -3.1350000000000003E-002    -5.7434703487447294E-023
  -3.1300000000000001E-002    -9.2680418621741045E-023
  -3.1250000000000000E-002    -1.1813035294182001E-022
  -3.1199999999999999E-002    -1.2143871928020514E-022
  -3.1150000000000001E-002    -9.1086655346868864E-023
  -3.1100000000000003E-002    -2.0967533861096686E-023
  -3.1050000000000001E-002     8.4816414464283105E-023
  -3.1000000000000000E-002     2.0880983456926835E-022
  -3.0949999999999998E-002     3.2063860006692643E-022
  -3.0900000000000000E-002     3.8220506581179715E-022
  -3.0850000000000002E-002     3.5735038989534406E-022
  -3.0800000000000001E-002     2.2390170624385552E-022
  -3.0750000000000000E-002    -1.5406206700305662E-023
  -3.0699999999999998E-002    -3.2704808745481312E-022
  -3.0650000000000000E-002    -6.4878219881932411E-022
  -3.0600000000000002E-002    -9.0036646863839417E-022
  -3.0550000000000001E-002    -1.0008520955071704E-021
  -3.0499999999999999E-002    -8.8816529166063247E-022
  -3.0449999999999998E-002    -5.3593570087331458E-022
  -3.0400000000000000E-002     3.6380078639252891E-023
  -3.0350000000000002E-002     7.6156183864766764E-022
  -3.0300000000000001E-002     1.5297229188940193E-021
  -3.0249999999999999E-002     2.1979362326261707E-021
  -3.0200000000000001E-002     2.6027272106678739E-021
  -3.0150000000000000E-002     2.5765422776685380E-021
  -3.0100000000000002E-002     1.9723131751109636E-021
  -3.0050000000000000E-002     7.0093221572425066E-022
  -2.9999999999999999E-002    -1.2174282518811965E-021
  -2.9950000000000001E-002    -3.5961870568988179E-021
  -2.9899999999999999E-002    -6.0391737866649187E-021
  -2.9850000000000002E-002    -7.9405171518794412E-021
  -2.9800000000000000E-002    -8.5572205813881656E-021
  -2.9749999999999999E-002    -7.1705714076208624E-021
  -2.9700000000000001E-002    -3.3243065581383584E-021
  -2.9650000000000003E-002     2.9098130070881659E-021
  -2.9600000000000001E-002     1.0722530499066126E-020
  -2.9550000000000000E-002     1.8512838391043862E-020
  -2.9499999999999998E-002     2.4071632639585273E-020
  -2.9450000000000000E-002     2.5032295116060984E-020
  -2.9400000000000003E-002     1.9534050105770682E-020
  -2.9350000000000001E-002     6.9528862355785828E-021
  -2.9300000000000000E-002    -1.1513640332723959E-020
  -2.9249999999999998E-002    -3.2636391941032757E-020
  -2.9200000000000000E-002    -5.1490508179553341E-020
  -2.9150000000000002E-002    -6.2380062852859673E-020
  -2.9100000000000001E-002    -6.0222498853218574E-020
  -2.9049999999999999E-002    -4.2095461969035471E-020
  -2.8999999999999998E-002    -8.5389273464878028E-021
  -2.8950000000000000E-002     3.5801245567054824E-020
  -2.8900000000000002E-002     8.2487445976059876E-020
  -2.8850000000000001E-002     1.2064407440611068E-019
  -2.8799999999999999E-002     1.3916477301327960E-019
  -2.8749999999999998E-002     1.2934186601585370E-019
  -2.8700000000000000E-002     8.7334837546625770E-020
  -2.8650000000000002E-002     1.5881179667971000E-020
  -2.8600000000000000E-002    -7.5214173445291267E-020
  -2.8549999999999999E-002    -1.7003286933219106E-019
  -2.8500000000000001E-002    -2.4887509825446381E-019
  -2.8450000000000000E-002    -2.9163934979431278E-019
  -2.8400000000000002E-002    -2.8173243715119451E-019
  -2.8350000000000000E-002    -2.0989845177993161E-019
  -2.8299999999999999E-002    -7.7344558418896259E-020
  -2.8250000000000001E-002     1.0241621171163207E-019
  -2.8200000000000003E-002     3.0350926365033429E-019
  -2.8150000000000001E-002     4.8982128317631431E-019
  -2.8100000000000000E-002     6.1950427645160827E-019
  -2.8049999999999999E-002     6.5175220782301367E-019
  -2.8000000000000001E-002     5.5527480934733368E-019
  -2.7950000000000003E-002     3.1731230861625191E-019
  -2.7900000000000001E-002    -4.8553261881911332E-020
  -2.7850000000000000E-002    -4.9792829838569954E-019
  -2.7799999999999998E-002    -9.5659875687911439E-019
  -2.7750000000000000E-002    -1.3284969925615580E-018
  -2.7700000000000002E-002    -1.5109203925676079E-018
  -2.7650000000000001E-002    -1.4155532671401466E-018
  -2.7600000000000000E-002    -9.9197146215508933E-019
  -2.7549999999999998E-002    -2.4877195250006483E-019
  -2.7500000000000000E-002     7.3323805001119103E-019
  -2.7450000000000002E-002     1.8008514328648250E-018
  -2.7400000000000001E-002     2.7444747185408187E-018
  -2.7349999999999999E-002     3.3305333023497943E-018
  -2.7299999999999998E-002     3.3467884137269120E-018
  -2.7250000000000000E-002     2.6534658029680724E-018
  -2.7200000000000002E-002     1.2303495022779869E-018
  -2.7150000000000001E-002    -7.9118098683578514E-019
  -2.7099999999999999E-002    -3.1212913735047140E-018
  -2.7049999999999998E-002    -5.3369985304114794E-018
  -2.7000000000000000E-002    -6.9414706710522116E-018
  -2.6950000000000002E-002    -7.4525465599267129E-018
  -2.6900000000000000E-002    -6.5085810466646927E-018
  -2.6849999999999999E-002    -3.9733661313458881E-018
  -2.6800000000000001E-002    -1.7654765881006903E-020
  -2.6749999999999999E-002     4.8457544306698877E-018
  -2.6700000000000002E-002     9.7922300236406839E-018
  -2.6650000000000000E-002     1.3790215229653826E-017
  -2.6599999999999999E-002     1.5776064167675164E-017
  -2.6550000000000001E-002     1.4877100984186205E-017
  -2.6500000000000003E-002     1.0644712766443260E-017
  -2.6450000000000001E-002     3.2474206957848367E-018
  -2.6400000000000000E-002    -6.4290638853816395E-018
  -2.6349999999999998E-002    -1.6818770071286138E-017
  -2.6300000000000000E-002    -2.5871494611988140E-017
  -2.6250000000000002E-002    -3.1397764126158429E-017
  -2.6200000000000001E-002    -3.1515570644269525E-017
  -2.6150000000000000E-002    -2.5118400220387877E-017
  -2.6099999999999998E-002    -1.2263356213750412E-017
  -2.6050000000000000E-002     5.6221930745933587E-018
  -2.6000000000000002E-002     2.5793490376975693E-017
  -2.5950000000000001E-002     4.4533145446924228E-017
  -2.5899999999999999E-002     5.7760056179211237E-017
  -2.5849999999999998E-002     6.1812567921912179E-017
  -2.5800000000000000E-002     5.4265722556114220E-017
  -2.5750000000000002E-002     3.4617408705468895E-017
  -2.5700000000000001E-002     4.6856449669531163E-018
  -2.5649999999999999E-002    -3.1399240971872374E-017
  -2.5599999999999998E-002    -6.7655233263243739E-017
  -2.5550000000000000E-002    -9.7126705368751824E-017
  -2.5500000000000002E-002    -1.1306229722863307E-016
  -2.5450000000000000E-002    -1.1021010683181158E-016
  -2.5399999999999999E-002    -8.6010138360695384E-017
  -2.5349999999999998E-002    -4.1462104576992374E-017
  -2.5300000000000000E-002     1.8520870082133357E-017
  -2.5250000000000002E-002     8.5398027395314980E-017
  -2.5200000000000000E-002     1.4796476542001821E-016
  -2.5149999999999999E-002     1.9393090226009003E-016
  -2.5100000000000001E-002     2.1194457427374636E-016
  -2.5049999999999999E-002     1.9379356819654553E-016
  -2.5000000000000001E-002     1.3643945083146803E-016
  -2.4950000000000000E-002     4.3499317518019251E-017
  -2.4899999999999999E-002    -7.4194992739095523E-017
  -2.4850000000000001E-002    -1.9924769217677071E-016
  -2.4800000000000003E-002    -3.0968978971312412E-016
  -2.4750000000000001E-002    -3.8221789086215842E-016
  -2.4700000000000000E-002    -3.9632693683847705E-016
  -2.4649999999999998E-002    -3.3872805994161289E-016
  -2.4600000000000000E-002    -2.0725004060658094E-016
  -2.4550000000000002E-002    -1.3352063179584672E-017
  -2.4500000000000001E-002     2.1752866495225819E-016
  -2.4450000000000000E-002     4.4829045497838211E-016
  -2.4399999999999998E-002     6.3519502842706702E-016
  -2.4350000000000000E-002     7.3511978434400017E-016
  -2.4299999999999999E-002     7.1400046297906939E-016
  -2.4250000000000001E-002     5.5499820424617593E-016
  -2.4199999999999999E-002     2.6472344700157506E-016
  -2.4150000000000001E-002    -1.2404916076978691E-016
  -2.4100000000000000E-002    -5.5430083043060702E-016
  -2.4049999999999998E-002    -9.5171124388162382E-016
  -2.4000000000000000E-002    -1.2360782325321785E-015
  -2.3949999999999999E-002    -1.3357016645307440E-015
  -2.3900000000000001E-002    -1.2024039943842200E-015
  -2.3850000000000000E-002    -8.2437715370946331E-016
  -2.3800000000000002E-002    -2.3404650694577292E-016
  -2.3750000000000000E-002     4.9131209690838085E-016
  -2.3699999999999999E-002     1.2373984818938502E-015
  -2.3650000000000001E-002     1.8689030302658776E-015
  -2.3599999999999999E-002     2.2518375934917658E-015
  -2.3550000000000001E-002     2.2788341622514102E-015
  -2.3500000000000000E-002     1.8930157661335368E-015
  -2.3449999999999999E-002     1.1057137398720283E-015
  -2.3400000000000001E-002     3.8353505731852769E-018
  -2.3349999999999999E-002    -1.2558921344955909E-015
  -2.3300000000000001E-002    -2.4664392696235887E-015
  -2.3250000000000000E-002    -3.4018553449175613E-015
  -2.3199999999999998E-002    -3.8561350541714110E-015
  -2.3150000000000000E-002    -3.6832639248372019E-015
  -2.3099999999999999E-002    -2.8311907936448135E-015
  -2.3050000000000001E-002    -1.3627980430166163E-015
  -2.3000000000000000E-002     5.4139132024560441E-016
  -2.2950000000000002E-002     2.6012402216119856E-015
  -2.2900000000000000E-002     4.4747316175993280E-015
  -2.2849999999999999E-002     5.8107551484974178E-015
  -2.2800000000000001E-002     6.3092445263610926E-015
  -2.2749999999999999E-002     5.7789877829154257E-015
  -2.2700000000000001E-002     4.1830041449255950E-015
  -2.2650000000000000E-002     1.6626040485486576E-015
  -2.2599999999999999E-002    -1.4660117785804693E-015
  -2.2550000000000001E-002    -4.7448095399357149E-015
  -2.2499999999999999E-002    -7.6342785444088609E-015
  -2.2450000000000001E-002    -9.5941851034261041E-015
  -2.2400000000000000E-002    -1.0173901340997954E-014
  -2.2349999999999998E-002    -9.0988300813352113E-015
  -2.2300000000000000E-002    -6.3384877234185624E-015
  -2.2249999999999999E-002    -2.1428907844184709E-015
  -2.2200000000000001E-002     2.9628583127917366E-015
  -2.2150000000000000E-002     8.2306128974895670E-015
  -2.2100000000000002E-002     1.2785794747645774E-014
  -2.2050000000000000E-002     1.5758838794305839E-014
  -2.1999999999999999E-002     1.6434296120934152E-014
  -2.1950000000000001E-002     1.4394688449365506E-014
  -2.1899999999999999E-002     9.6333347024710609E-015
  -2.1850000000000001E-002     2.6117487875311779E-015
  -2.1800000000000000E-002    -5.7568463457074421E-015
  -2.1749999999999999E-002    -1.4205848402511335E-014
  -2.1700000000000001E-002    -2.1289751087355987E-014
  -2.1649999999999999E-002    -2.5614147657221104E-014
  -2.1600000000000001E-002    -2.6087456467117377E-014
  -2.1550000000000000E-002    -2.2151662220624099E-014
  -2.1499999999999998E-002    -1.3947405391511472E-014
  -2.1450000000000000E-002    -2.3751053620443197E-015
  -2.1399999999999999E-002     1.0971871514603819E-014
  -2.1350000000000001E-002     2.4005283598367601E-014
  -2.1299999999999999E-002     3.4450809820368944E-014
  -2.1250000000000002E-002     4.0224523369012386E-014
  -2.1200000000000000E-002     3.9817049532387131E-014
  -2.1149999999999999E-002     3.2617764482839826E-014
  -2.1100000000000001E-002     1.9115558263246598E-014
  -2.1049999999999999E-002     9.2851334660642132E-016
  -2.1000000000000001E-002    -1.9359121207021240E-014
  -2.0950000000000000E-002    -3.8542411406270088E-014
  -2.0899999999999998E-002    -5.3280601734608082E-014
  -2.0850000000000000E-002    -6.0650508774729752E-014
  -2.0799999999999999E-002    -5.8679859556635252E-014
  -2.0750000000000001E-002    -4.6768289683857774E-014
  -2.0700000000000000E-002    -2.5915243052197559E-014
  -2.0649999999999998E-002     1.2997915078497161E-015
  -2.0600000000000000E-002     3.1001866084628164E-014
  -2.0549999999999999E-002     5.8544674726266913E-014
  -2.0500000000000001E-002     7.9206729081668712E-014
  -2.0449999999999999E-002     8.8959250307095980E-014
  -2.0400000000000001E-002     8.5185356351459133E-014
  -2.0350000000000000E-002     6.7229660157509237E-014
  -2.0299999999999999E-002     3.6675354750382534E-014
  -2.0250000000000001E-002    -2.7174581901086657E-015
  -2.0199999999999999E-002    -4.5429008427964933E-014
  -2.0150000000000001E-002    -8.4913867048432026E-014
  -2.0100000000000000E-002    -1.1455963839233776E-013
  -2.0049999999999998E-002    -1.2873565207599309E-013
  -2.0000000000000000E-002    -1.2377323658414520E-013
  -1.9949999999999999E-002    -9.8717006174495784E-014
  -1.9900000000000001E-002    -5.5710848129672699E-014
  -1.9850000000000000E-002     7.2094298931237015E-017
  -1.9799999999999998E-002     6.0982543105508984E-014
  -1.9750000000000000E-002     1.1788598651268034E-013
  -1.9699999999999999E-002     1.6147396703061090E-013
  -1.9650000000000001E-002     1.8371883843927614E-013
  -1.9599999999999999E-002     1.7925572671281977E-013
  -1.9550000000000001E-002     1.4646709459102162E-013
  -1.9500000000000000E-002     8.8070077426538962E-014
  -1.9449999999999999E-002     1.1065569424901568E-014
  -1.9400000000000001E-002    -7.4003856342338168E-014
  -1.9349999999999999E-002    -1.5443417236241967E-013
  -1.9300000000000001E-002    -2.1721526654153084E-013
  -1.9250000000000000E-002    -2.5110344660618920E-013
  -1.9199999999999998E-002    -2.4858979468573503E-013
  -1.9150000000000000E-002    -2.0742774050298608E-013
  -1.9099999999999999E-002    -1.3142320239589531E-013
  -1.9050000000000001E-002    -3.0287599667611721E-014
  -1.9000000000000000E-002     8.1505354690678887E-014
  -1.8949999999999998E-002     1.8675158370458783E-013
  -1.8900000000000000E-002     2.6816636381689226E-013
  -1.8849999999999999E-002     3.1125137023570049E-013
  -1.8800000000000001E-002     3.0690678788586367E-013
  -1.8749999999999999E-002     2.5332399978226218E-013
  -1.8700000000000001E-002     1.5678441005169562E-013
  -1.8650000000000000E-002     3.1150950760585370E-014
  -1.8599999999999998E-002    -1.0395055988110993E-013
  -1.8550000000000001E-002    -2.2604069633579114E-013
  -1.8499999999999999E-002    -3.1336917599205111E-013
  -1.8450000000000001E-002    -3.4861787037980558E-013
  -1.8400000000000000E-002    -3.2212009824472910E-013
  -1.8349999999999998E-002    -2.3404037142378216E-013
  -1.8300000000000000E-002    -9.5098848174751067E-014
  -1.8249999999999999E-002     7.4364096901464873E-014
  -1.8200000000000001E-002     2.4693550564566599E-013
  -1.8149999999999999E-002     3.9199037447044895E-013
  -1.8100000000000002E-002     4.8034698402366225E-013
  -1.8050000000000000E-002     4.8905465667857779E-013
  -1.7999999999999999E-002     4.0559440781249229E-013
  -1.7950000000000001E-002     2.3082118974450905E-013
  -1.7899999999999999E-002    -1.9877602980294528E-014
  -1.7850000000000001E-002    -3.1750376068530100E-013
  -1.7800000000000000E-002    -6.2246202317348657E-013
  -1.7749999999999998E-002    -8.8937597235663963E-013
  -1.7700000000000000E-002    -1.0731334738977712E-012
  -1.7649999999999999E-002    -1.1353759042944374E-012
  -1.7600000000000001E-002    -1.0505276837793713E-012
  -1.7550000000000000E-002    -8.1047351282221279E-013
  -1.7499999999999998E-002    -4.2713041863386701E-013
  -1.7450000000000000E-002     6.7569156534141591E-014
  -1.7399999999999999E-002     6.2441625615291547E-013
  -1.7350000000000001E-002     1.1821195822298322E-012
  -1.7299999999999999E-002     1.6743173598377678E-012
  -1.7250000000000001E-002     2.0374727474234901E-012
  -1.7200000000000000E-002     2.2185619086985207E-012
  -1.7149999999999999E-002     2.1814790705390481E-012
  -1.7100000000000001E-002     1.9112621230178694E-012
  -1.7049999999999999E-002     1.4155867745762398E-012
  -1.7000000000000001E-002     7.2341161799245015E-013
  -1.6950000000000000E-002    -1.1887730764526432E-013
  -1.6899999999999998E-002    -1.0530570332891917E-012
  -1.6850000000000000E-002    -2.0153388261018982E-012
  -1.6799999999999999E-002    -2.9421460565386544E-012
  -1.6750000000000001E-002    -3.7743193919960147E-012
  -1.6700000000000000E-002    -4.4589523549733736E-012
  -1.6649999999999998E-002    -4.9484943404149030E-012
  -1.6600000000000000E-002    -5.1972743802425494E-012
  -1.6549999999999999E-002    -5.1561187233666771E-012
  -1.6500000000000001E-002    -4.7661441290140463E-012
  -1.6449999999999999E-002    -3.9530659735773204E-012
  -1.6400000000000001E-002    -2.6233789426588765E-012
  -1.6350000000000000E-002    -6.6357030687961303E-013
  -1.6299999999999999E-002     2.0569057239063036E-012
  -1.6250000000000001E-002     5.6787307122536637E-012
  -1.6199999999999999E-002     1.0342353058336712E-011
  -1.6150000000000001E-002     1.6175229520925823E-011
  -1.6100000000000000E-002     2.3278226765842048E-011
  -1.6049999999999998E-002     3.1712933971533394E-011
  -1.6000000000000000E-002     4.1491722831031451E-011
  -1.5949999999999999E-002     5.2572005489406663E-011
  -1.5900000000000001E-002     6.4855822810902255E-011
  -1.5850000000000000E-002     7.8195097088726461E-011
  -1.5799999999999998E-002     9.2402203451513730E-011
  -1.5750000000000000E-002     1.0726483867323173E-010
  -1.5699999999999999E-002     1.2256372416384085E-010
  -1.5650000000000001E-002     1.3809088655040127E-010
  -1.5599999999999999E-002     1.5366675658229962E-010
  -1.5550000000000001E-002     1.6915382407004820E-010
  -1.5500000000000000E-002     1.8446539736658893E-010
  -1.5449999999999998E-002     1.9956843131979650E-010
  -1.5400000000000000E-002     2.1447998546111140E-010
  -1.5349999999999999E-002     2.2925823295321557E-010
  -1.5300000000000001E-002     2.4398901849338903E-010
  -1.5250000000000000E-002     2.5876998940438124E-010
  -1.5199999999999998E-002     2.7369460583057831E-010
  -1.5150000000000000E-002     2.8883864439139470E-010
  -1.5099999999999999E-002     3.0425085265554731E-010
  -1.5050000000000001E-002     3.1994941234764970E-010
  -1.4999999999999999E-002     3.3592476319888617E-010
  -1.4949999999999998E-002     3.5214762240480059E-010
  -1.4900000000000000E-002     3.6858127473219141E-010
  -1.4849999999999999E-002     3.8519507908361843E-010
  -1.4800000000000001E-002     4.0197713629175797E-010
  -1.4749999999999999E-002     4.1894315711007492E-010
  -1.4700000000000001E-002     4.3613966196504751E-010
  -1.4650000000000000E-002     4.5364108275748707E-010
  -1.4599999999999998E-002     4.7154119079529242E-010
  -1.4550000000000000E-002     4.8993998273760529E-010
  -1.4499999999999999E-002     5.0892957699473580E-010
  -1.4450000000000001E-002     5.2858105462803662E-010
  -1.4400000000000000E-002     5.4893490036321893E-010
  -1.4349999999999998E-002     5.6999779141490306E-010
  -1.4300000000000000E-002     5.9174519651541695E-010
  -1.4249999999999999E-002     6.1412976852356495E-010
  -1.4200000000000001E-002     6.3709386413970577E-010
  -1.4149999999999999E-002     6.6058389984758723E-010
  -1.4099999999999998E-002     6.8456273556374907E-010
  -1.4050000000000000E-002     7.0901922838014635E-010
  -1.3999999999999999E-002     7.3397223745830936E-010
  -1.3950000000000001E-002     7.5946883462920186E-010
  -1.3899999999999999E-002     7.8557702288454005E-010
  -1.3850000000000001E-002     8.1237517410880662E-010
  -1.3800000000000000E-002     8.3993916244420950E-010
  -1.3749999999999998E-002     8.6833049177662953E-010
  -1.3700000000000000E-002     8.9758693701244657E-010
  -1.3649999999999999E-002     9.2771762868475053E-010
  -1.3600000000000001E-002     9.5870208758132638E-010
  -1.3550000000000000E-002     9.9049614463694891E-010
  -1.3499999999999998E-002     1.0230412865769146E-009
  -1.3450000000000000E-002     1.0562782655559301E-009
  -1.3399999999999999E-002     1.0901614820425117E-009
  -1.3350000000000001E-002     1.1246745143489979E-009
  -1.3299999999999999E-002     1.1598419396513735E-009
  -1.3249999999999998E-002     1.1957373211893324E-009
  -1.3200000000000000E-002     1.2324848166780297E-009
  -1.3149999999999998E-002     1.2702543095596308E-009
  -1.3100000000000001E-002     1.3092491607409437E-009
  -1.3049999999999999E-002     1.3496875979446721E-009
  -1.3000000000000001E-002     1.3917793447793729E-009
  -1.2950000000000000E-002     1.4356999337634745E-009
  -1.2899999999999998E-002     1.4815664079728816E-009
  -1.2850000000000000E-002     1.5294181566663924E-009
  -1.2799999999999999E-002     1.5792066167698694E-009