  -4.0000000000000001E-002     0.0000000000000000     
  -3.9949999999999999E-002     0.0000000000000000     
  -3.9899999999999998E-002     0.0000000000000000     
  -3.9850000000000003E-002     0.0000000000000000     
  -3.9800000000000002E-002     0.0000000000000000     
  -3.9750000000000001E-002     0.0000000000000000     
  -3.9699999999999999E-002     0.0000000000000000     
  -3.9649999999999998E-002     0.0000000000000000     
  -3.9600000000000003E-002     0.0000000000000000     
  -3.9550000000000002E-002     0.0000000000000000     
  -3.9500000000000000E-002     0.0000000000000000     
  -3.9449999999999999E-002     0.0000000000000000     
  -3.9399999999999998E-002     0.0000000000000000     
  -3.9350000000000003E-002     0.0000000000000000     
  -3.9300000000000002E-002     0.0000000000000000     
  -3.9250000000000000E-002     0.0000000000000000     
  -3.9199999999999999E-002     0.0000000000000000     
  -3.9150000000000004E-002     0.0000000000000000     
  -3.9100000000000003E-002     0.0000000000000000     
  -3.9050000000000001E-002     0.0000000000000000     
  -3.9000000000000000E-002     0.0000000000000000     
  -3.8949999999999999E-002     0.0000000000000000     
  -3.8900000000000004E-002     0.0000000000000000     
  -3.8850000000000003E-002     0.0000000000000000     
  -3.8800000000000001E-002     0.0000000000000000     
  -3.8750000000000000E-002     8.8072905114860858E-040
  -3.8699999999999998E-002     1.3984480409922875E-038
  -3.8650000000000004E-002     6.6297408630741749E-038
  -3.8600000000000002E-002     2.2033713208659491E-037
  -3.8550000000000001E-002     5.4093393795014009E-037
  -3.8500000000000000E-002     1.0234828250080763E-036
  -3.8449999999999998E-002     1.2577647660707602E-036
  -3.8400000000000004E-002    -3.1949750659653045E-037
  -3.8350000000000002E-002    -7.5183540324559061E-036
  -3.8300000000000001E-002    -2.7378742332096329E-035
  -3.8249999999999999E-002    -6.9444788370427590E-035
  -3.8199999999999998E-002    -1.3995879744570114E-034
  -3.8150000000000003E-002    -2.2497732348905404E-034
  -3.8100000000000002E-002    -2.5316875683362391E-034
  -3.8050000000000000E-002    -2.7581123269692633E-035
  -3.7999999999999999E-002     8.7426545261208661E-034
  -3.7949999999999998E-002     3.1862501510657620E-033
  -3.7900000000000003E-002     7.8564101416525194E-033
  -3.7850000000000002E-002     1.5370093066010440E-032
  -3.7800000000000000E-002     2.3842147057146077E-032
  -3.7749999999999999E-002     2.5274695731998112E-032
  -3.7699999999999997E-002     4.2204265014368154E-034
  -3.7650000000000003E-002    -8.4378637168724752E-032
  -3.7600000000000001E-002    -2.7003308500332473E-031
  -3.7550000000000000E-002    -5.7369311520576253E-031
  -3.7499999999999999E-002    -9.2129004773602881E-031
  -3.7449999999999997E-002    -1.0477131969156935E-030
  -3.7400000000000003E-002    -4.1072949783414535E-031
  -3.7350000000000001E-002     1.7709064491838674E-030
  -3.7300000000000000E-002     6.1886150946026571E-030
  -3.7249999999999998E-002     1.2678059077711710E-029
  -3.7200000000000004E-002     1.9056379428458970E-029
  -3.7150000000000002E-002     2.0011488298971694E-029
  -3.7100000000000001E-002     7.0472220630998813E-030
  -3.7050000000000000E-002    -2.9109913981891598E-029
  -3.6999999999999998E-002    -9.2510048750078512E-029
  -3.6950000000000004E-002    -1.7274755007508391E-028
  -3.6900000000000002E-002    -2.3571316513911138E-028
  -3.6850000000000001E-002    -2.2095162748433825E-028
  -3.6799999999999999E-002    -5.4159632479640856E-029
  -3.6749999999999998E-002     3.1905847967747899E-028
  -3.6700000000000003E-002     8.8098229711568091E-028
  -3.6650000000000002E-002     1.4886062273912359E-027
  -3.6600000000000001E-002     1.8519173406247732E-027
  -3.6549999999999999E-002     1.5810660159388022E-027
  -3.6499999999999998E-002     3.2422737135558305E-028
  -3.6450000000000003E-002    -2.0225844875265863E-027
  -3.6400000000000002E-002    -5.1077080821141735E-027
  -3.6350000000000000E-002    -8.0347449349415350E-027
  -3.6299999999999999E-002    -9.5031791149778643E-027
  -3.6249999999999998E-002    -8.2110085244942180E-027
  -3.6200000000000003E-002    -3.4118696782369727E-027
  -3.6150000000000002E-002     4.6193746568029335E-027
  -3.6100000000000000E-002     1.4498367469344129E-026
  -3.6049999999999999E-002     2.4165552191601508E-026
  -3.6000000000000004E-002     3.1674458080242920E-026
  -3.5950000000000003E-002     3.5822674558378321E-026
  -3.5900000000000001E-002     3.5999035504165421E-026
  -3.5850000000000000E-002     3.0971265223966129E-026
  -3.5799999999999998E-002     1.7173880300529840E-026
  -3.5750000000000004E-002    -1.1983810100998615E-026
  -3.5700000000000003E-002    -6.3894756227727584E-026
  -3.5650000000000001E-002    -1.4066795457199423E-025
  -3.5600000000000000E-002    -2.3070139359747118E-025
  -3.5549999999999998E-002    -3.0258694129491652E-025
  -3.5500000000000004E-002    -3.0789491203178717E-025
  -3.5450000000000002E-002    -1.9766639610422073E-025
  -3.5400000000000001E-002     4.9067664756406523E-026
  -3.5349999999999999E-002     3.9615974193887502E-025
  -3.5299999999999998E-002     7.4005647298982473E-025
  -3.5250000000000004E-002     9.3718040075650848E-025
  -3.5200000000000002E-002     8.7339186278102812E-025
  -3.5150000000000001E-002     5.5302138619769224E-025
  -3.5099999999999999E-002     1.5648112372395317E-025
  -3.5049999999999998E-002     4.2893021072683699E-027
  -3.5000000000000003E-002     3.9015295283446036E-025
  -3.4950000000000002E-002     1.3123524819774162E-024
  -3.4900000000000000E-002     2.2224675548604057E-024
  -3.4849999999999999E-002     1.9785997950122115E-024
  -3.4799999999999998E-002    -8.2052058570497459E-025
  -3.4750000000000003E-002    -7.0738970754390402E-024
  -3.4700000000000002E-002    -1.6179671015612888E-023
  -3.4650000000000000E-002    -2.5251450529333066E-023
  -3.4599999999999999E-002    -2.9144518189545773E-023
  -3.4549999999999997E-002    -2.1765143740093220E-023
  -3.4500000000000003E-002     1.3168770272809884E-024
  -3.4450000000000001E-002     3.9628233901656988E-023
  -3.4400000000000000E-002     8.5272335211386871E-023
  -3.4349999999999999E-002     1.2275145268380736E-022
  -3.4299999999999997E-002     1.3230716651012312E-022
  -3.4250000000000003E-002     9.6718110959949149E-023
  -3.4200000000000001E-002     9.7818251695162275E-024
  -3.4150000000000000E-002    -1.1678912983179796E-022
  -3.4099999999999998E-002    -2.5177141785710697E-022
  -3.4049999999999997E-002    -3.5064028539001007E-022
  -3.4000000000000002E-002    -3.6925797369396037E-022
  -3.3950000000000001E-002    -2.8113405270519857E-022
  -3.3900000000000000E-002    -9.1554753757020232E-023
  -3.3849999999999998E-002     1.5849272217136651E-022
  -3.3799999999999997E-002     4.0270438914924124E-022
  -3.3750000000000002E-002     5.7243240236366625E-022
  -3.3700000000000001E-002     6.2394402101178168E-022
  -3.3649999999999999E-002     5.5744959848904285E-022
  -3.3599999999999998E-002     4.1640375685176085E-022
  -3.3550000000000003E-002     2.6291270839494423E-022
  -3.3500000000000002E-002     1.3686715454368076E-022
  -3.3450000000000001E-002     1.7943722843552273E-023
  -3.3399999999999999E-002    -1.8524695060245720E-022
  -3.3349999999999998E-002    -6.0069334247718599E-022
  -3.3300000000000003E-002    -1.3131287359986534E-021
  -3.3250000000000002E-002    -2.2637928085999551E-021
  -3.3200000000000000E-002    -3.1766387032925897E-021
  -3.3149999999999999E-002    -3.5643639789404933E-021
  -3.3099999999999997E-002    -2.8501729582156220E-021
  -3.3050000000000003E-002    -5.9957547896053129E-022
  -3.3000000000000002E-002     3.1981735285971786E-021
  -3.2950000000000000E-002     7.9064610721366617E-021
  -3.2899999999999999E-002     1.2198638724098686E-020
  -3.2850000000000004E-002     1.4286532095421766E-020
  -3.2800000000000003E-002     1.2427901116735110E-020
  -3.2750000000000001E-002     5.6085195927284092E-021
  -3.2700000000000000E-002    -5.8090923282184162E-021
  -3.2649999999999998E-002    -1.9728574914639898E-020
  -3.2600000000000004E-002    -3.2475564006799582E-020
  -3.2550000000000003E-002    -3.9555642177376817E-020
  -3.2500000000000001E-002    -3.6906032787767589E-020
  -3.2450000000000000E-002    -2.2330316200005707E-020
  -3.2399999999999998E-002     3.3256037612818776E-021
  -3.2350000000000004E-002     3.5696283863947247E-020
  -3.2300000000000002E-002     6.7401631194627373E-020
  -3.2250000000000001E-002     8.9539765189043646E-020
  -3.2199999999999999E-002     9.3860260869889084E-020
  -3.2149999999999998E-002     7.5068022821352002E-020
  -3.2100000000000004E-002     3.2630129214250332E-020
  -3.2050000000000002E-002    -2.8422049329102632E-020
  -3.2000000000000001E-002    -9.7922663762901902E-020
  -3.1949999999999999E-002    -1.6212464426336205E-019
  -3.1899999999999998E-002    -2.0600350986682455E-019
  -3.1850000000000003E-002    -2.1584234708831214E-019
  -3.1800000000000002E-002    -1.8171343423048918E-019
  -3.1750000000000000E-002    -9.9660772019749312E-020
  -3.1699999999999999E-002     2.6463269458944851E-020
  -3.1649999999999998E-002     1.8357761198693151E-019
  -3.1600000000000003E-002     3.4868018738975136E-019
  -3.1550000000000002E-002     4.8955735855544215E-019
  -3.1500000000000000E-002     5.6781679233338182E-019
  -3.1449999999999999E-002     5.4502461603230309E-019
  -3.1399999999999997E-002     3.9200316560919712E-019
  -3.1350000000000003E-002     1.0007781809134758E-019
  -3.1300000000000001E-002    -3.0841575454311567E-019
  -3.1250000000000000E-002    -7.7415464040724166E-019
  -3.1199999999999999E-002    -1.2032658133672673E-018
  -3.1150000000000001E-002    -1.4806873262703148E-018
  -3.1100000000000003E-002    -1.4941643466766907E-018
  -3.1050000000000001E-002    -1.1649564405487490E-018
  -3.1000000000000000E-002    -4.7798504493859669E-019
  -3.0949999999999998E-002     4.9762603740569870E-019
  -3.0900000000000000E-002     1.6058512335379331E-018
  -3.0850000000000002E-002     2.6234688472485069E-018
  -3.0800000000000001E-002     3.3009137438823226E-018
  -3.0750000000000000E-002     3.4166846936308769E-018
  -3.0699999999999998E-002     2.8328965337243236E-018
  -3.0650000000000000E-002     1.5380796646295974E-018
  -3.0600000000000002E-002    -3.3408611332550461E-019
  -3.0550000000000001E-002    -2.5153620816819474E-018
  -3.0499999999999999E-002    -4.6405778450602392E-018
  -3.0449999999999998E-002    -6.3036260327213947E-018
  -3.0400000000000000E-002    -7.1201632042332515E-018
  -3.0350000000000002E-002    -6.7867720700304487E-018
  -3.0300000000000001E-002    -5.1310067236245073E-018
  -3.0249999999999999E-002    -2.1520792841540911E-018
  -3.0200000000000001E-002     1.9455470467437460E-018
  -3.0150000000000000E-002     6.7260465517289244E-018
  -3.0100000000000002E-002     1.1511732238558074E-017
  -3.0050000000000000E-002     1.5406112251982132E-017
  -2.9999999999999999E-002     1.7374373469698949E-017
  -2.9950000000000001E-002     1.6401202656309471E-017
  -2.9899999999999999E-002     1.1728113907613314E-017
  -2.9850000000000002E-002     3.1419254008346338E-018
  -2.9800000000000000E-002    -8.7496379742860388E-018
  -2.9749999999999999E-002    -2.2347586962008060E-017
  -2.9700000000000001E-002    -3.5095520891524150E-017
  -2.9650000000000003E-002    -4.3790429440921619E-017
  -2.9600000000000001E-002    -4.5182336354617106E-017
  -2.9550000000000000E-002    -3.6788735364864768E-017
  -2.9499999999999998E-002    -1.7760309206268135E-017
  -2.9450000000000000E-002     1.0429671911960859E-017
  -2.9400000000000003E-002     4.3712159794128460E-017
  -2.9350000000000001E-002     7.5748487139043430E-017
  -2.9300000000000000E-002     9.8915850283037372E-017
  -2.9249999999999998E-002     1.0584471734438673E-016
  -2.9200000000000000E-002     9.1230908278693809E-017
  -2.9150000000000002E-002     5.3519840341905292E-017
  -2.9100000000000001E-002    -3.9775378190346448E-018
  -2.9049999999999999E-002    -7.2905456363524840E-017
  -2.8999999999999998E-002    -1.4081292342486327E-016
  -2.8950000000000000E-002    -1.9317866065354923E-016
  -2.8900000000000002E-002    -2.1619945953348949E-016
  -2.8850000000000001E-002    -1.9982144742636604E-016
  -2.8799999999999999E-002    -1.4039006802890154E-016
  -2.8749999999999998E-002    -4.2322292436291245E-017
  -2.8700000000000000E-002     8.1636746993074112E-017
  -2.8650000000000002E-002     2.1175711809992851E-016
  -2.8600000000000000E-002     3.2415417346632600E-016
  -2.8549999999999999E-002     3.9471226991712626E-016
  -2.8500000000000001E-002     4.0349559208952841E-016
  -2.8450000000000000E-002     3.3892366080723991E-016
  -2.8400000000000002E-002     2.0098373794151567E-016
  -2.8350000000000000E-002     2.8514814555857963E-018
  -2.8299999999999999E-002    -2.2952255558398428E-016
  -2.8250000000000001E-002    -4.6004359195505944E-016
  -2.8200000000000003E-002    -6.4719673091654410E-016
  -2.8150000000000001E-002    -7.5040102258014426E-016
  -2.8100000000000000E-002    -7.3720502263282733E-016
  -2.8049999999999999E-002    -5.9025779524291064E-016
  -2.8000000000000001E-002    -3.1283486528554547E-016
  -2.7950000000000003E-002     6.8284816935696948E-017
  -2.7900000000000001E-002     5.0355036972705334E-016
  -2.7850000000000000E-002     9.2547573262019615E-016
  -2.7799999999999998E-002     1.2574242116005261E-015
  -2.7750000000000000E-002     1.4254512524327383E-015
  -2.7700000000000002E-002     1.3716281284914440E-015
  -2.7650000000000001E-002     1.0667710851773868E-015
  -2.7600000000000000E-002     5.2030743189164155E-016
  -2.7549999999999998E-002    -2.1482107139921404E-016
  -2.7500000000000000E-002    -1.0437844050378375E-015
  -2.7450000000000002E-002    -1.8387671628455501E-015
  -2.7400000000000001E-002    -2.4548739321679180E-015
  -2.7349999999999999E-002    -2.7516709609972936E-015
  -2.7299999999999998E-002    -2.6179397160899961E-015
  -2.7250000000000000E-002    -1.9962934432202337E-015
  -2.7200000000000002E-002    -9.0364379859578019E-016
  -2.7150000000000001E-002     5.5677033816333826E-016
  -2.7099999999999999E-002     2.1957713463804351E-015
  -2.7049999999999998E-002     3.7539567263056206E-015
  -2.7000000000000000E-002     4.9337134429762472E-015
  -2.6950000000000002E-002     5.4456784533914693E-015
  -2.6900000000000000E-002     5.0644393546880016E-015
  -2.6849999999999999E-002     3.6848788149229214E-015
  -2.6800000000000001E-002     1.3680224533314441E-015
  -2.6749999999999999E-002    -1.6355626478519791E-015
  -2.6700000000000002E-002    -4.8950309956360262E-015
  -2.6650000000000000E-002    -7.8468569373265950E-015
  -2.6599999999999999E-002    -9.8792990462310210E-015
  -2.6550000000000001E-002    -1.0443770986371399E-014
  -2.6500000000000003E-002    -9.1750300160499655E-015
  -2.6450000000000001E-002    -5.9963948810109966E-015
  -2.6400000000000000E-002    -1.1849715942275156E-015
  -2.6349999999999998E-002     4.6239135665695476E-015
  -2.6300000000000000E-002     1.0504014062900720E-014
  -2.6250000000000002E-002     1.5374311237187056E-014
  -2.6200000000000001E-002     1.8185848820423229E-014
  -2.6150000000000000E-002     1.8127810013508603E-014
  -2.6099999999999998E-002     1.4813449730749037E-014
  -2.6050000000000000E-002     8.4062598544321316E-015
  -2.6000000000000002E-002    -3.4508494605959834E-016
  -2.5950000000000001E-002    -1.0178785995505113E-014
  -2.5899999999999999E-002    -1.9494818152564346E-014
  -2.5849999999999998E-002    -2.6608031025626703E-014
  -2.5800000000000000E-002    -3.0038378132577194E-014
  -2.5750000000000002E-002    -2.8788075634646521E-014
  -2.5700000000000001E-002    -2.2555720189409461E-014
  -2.5649999999999999E-002    -1.1846846612940854E-014
  -2.5599999999999998E-002     2.0427472246979878E-015
  -2.5550000000000000E-002     1.7173962009201132E-014
  -2.5500000000000002E-002     3.1223612744050032E-014
  -2.5450000000000000E-002     4.1820413854117360E-014
  -2.5399999999999999E-002     4.6910384436424642E-014
  -2.5349999999999998E-002     4.5099624990273575E-014
  -2.5300000000000000E-002     3.5924567747907215E-014
  -2.5250000000000002E-002     2.0008027003386438E-014
  -2.5200000000000000E-002    -9.2788665661259418E-016
  -2.5149999999999999E-002    -2.4204784896746467E-014
  -2.5100000000000001E-002    -4.6482065685617486E-014
  -2.5049999999999999E-002    -6.4177939487535940E-014
  -2.5000000000000001E-002    -7.3975192037827217E-014
  -2.4950000000000000E-002    -7.3352710514175564E-014
  -2.4899999999999999E-002    -6.1071548087904409E-014
  -2.4850000000000001E-002    -3.7538685014787962E-014
  -2.4800000000000003E-002    -4.9756085639127594E-015
  -2.4750000000000001E-002     3.2665958259450101E-014
  -2.4700000000000000E-002     7.0070924395057183E-014
  -2.4649999999999998E-002     1.0120169948099863E-013
  -2.4600000000000000E-002     1.2015854110665179E-013
  -2.4550000000000002E-002     1.2215832750321635E-013
  -2.4500000000000001E-002     1.0449105200655023E-013
  -2.4450000000000000E-002     6.7289867464586505E-014
  -2.4399999999999998E-002     1.3950587785052147E-014
  -2.4350000000000000E-002    -4.8933529086447406E-014
  -2.4299999999999999E-002    -1.1219571242078010E-013
  -2.4250000000000001E-002    -1.6526623944331465E-013
  -2.4199999999999999E-002    -1.9777605469962355E-013
  -2.4150000000000001E-002    -2.0138000216067139E-013
  -2.4100000000000000E-002    -1.7150748619831146E-013
  -2.4049999999999998E-002    -1.0871054359410408E-013
  -2.4000000000000000E-002    -1.9299349111213043E-014
  -2.3949999999999999E-002     8.4961459439428310E-014
  -2.3900000000000001E-002     1.8817999213117029E-013
  -2.3850000000000000E-002     2.7258902522333937E-013
  -2.3800000000000002E-002     3.2143307369456716E-013
  -2.3750000000000000E-002     3.2203878127004460E-013
  -2.3699999999999999E-002     2.6852300809809241E-013
  -2.3650000000000001E-002     1.6359432202324747E-013
  -2.3599999999999999E-002     1.9016567503498636E-014
  -2.3550000000000001E-002    -1.4548873847808443E-013
  -2.3500000000000000E-002    -3.0484887768772753E-013
  -2.3449999999999999E-002    -4.3241266222724496E-013
  -2.3400000000000001E-002    -5.0430281179565146E-013
  -2.3349999999999999E-002    -5.0361231791943800E-013
  -2.3300000000000001E-002    -4.2369659894620740E-013
  -2.3250000000000000E-002    -2.6994138782486817E-013
  -2.3199999999999998E-002    -5.9639051118861130E-014
  -2.3150000000000000E-002     1.8007108361162415E-013
  -2.3099999999999999E-002     4.1590364689585891E-013
  -2.3050000000000001E-002     6.1319596147338691E-013
  -2.3000000000000000E-002     7.4099696054352846E-013
  -2.2950000000000002E-002     7.7669011107699374E-013
  -2.2900000000000000E-002     7.0946122666382855E-013
  -2.2849999999999999E-002     5.4212312596422653E-013
  -2.2800000000000001E-002     2.9107319356188570E-013
  -2.2749999999999999E-002    -1.5570707429177777E-014
  -2.2700000000000001E-002    -3.4137581908595419E-013
  -2.2650000000000000E-002    -6.4608965224744036E-013
  -2.2599999999999999E-002    -8.9067540758884551E-013
  -2.2550000000000001E-002    -1.0423041867997000E-012
  -2.2499999999999999E-002    -1.0787366331973796E-012
  -2.2450000000000001E-002    -9.9157963375848629E-013
  -2.2400000000000000E-002    -7.8798311651236095E-013
  -2.2349999999999998E-002    -4.9045924744223343E-013
  -2.2300000000000000E-002    -1.3466797008295845E-013
  -2.2249999999999999E-002     2.3477154092343428E-013
  -2.2200000000000001E-002     5.7011375660135812E-013
  -2.2150000000000000E-002     8.2734005408208747E-013
  -2.2100000000000002E-002     9.7312862519882054E-013
  -2.2050000000000000E-002     9.9084444095631318E-013
  -2.1999999999999999E-002     8.8440577123989770E-013
  -2.1950000000000001E-002     6.7903944735470910E-013
  -2.1899999999999999E-002     4.1831593512760830E-013
  -2.1850000000000001E-002     1.5742598031976146E-013
  -2.1800000000000000E-002    -4.6646382671686122E-014
  -2.1749999999999999E-002    -1.4670736392754045E-013
  -2.1700000000000001E-002    -1.1678833911298584E-013
  -2.1649999999999999E-002     3.8753063901235236E-014
  -2.1600000000000001E-002     2.8057054269894384E-013
  -2.1550000000000000E-002     5.3570966997779731E-013
  -2.1499999999999998E-002     7.0576905005471467E-013
  -2.1450000000000000E-002     6.8146307067881248E-013
  -2.1399999999999999E-002     3.6200661356183864E-013
  -2.1350000000000001E-002    -3.2329850989814619E-013
  -2.1299999999999999E-002    -1.3946072155173863E-012
  -2.1250000000000002E-002    -2.8056948245387417E-012
  -2.1200000000000000E-002    -4.4358162631156084E-012
  -2.1149999999999999E-002    -6.0913187782414143E-012
  -2.1100000000000001E-002    -7.5176172936341324E-012
  -2.1049999999999999E-002    -8.4204839776357375E-012
  -2.1000000000000001E-002    -8.4940087009444029E-012
  -2.0950000000000000E-002    -7.4514228773955399E-012
  -2.0899999999999998E-002    -5.0543275027702078E-012
  -2.0850000000000000E-002    -1.1360905153011124E-012
  -2.0799999999999999E-002     4.3839767934224369E-012
  -2.0750000000000001E-002     1.1497545343967733E-011
  -2.0700000000000000E-002     2.0115391266492490E-011
  -2.0649999999999998E-002     3.0085033711733514E-011
  -2.0600000000000000E-002     4.1214762002271885E-011
  -2.0549999999999999E-002     5.3300097473011476E-011
  -2.0500000000000001E-002     6.6148648452731828E-011
  -2.0449999999999999E-002     7.9599841249623263E-011
  -2.0400000000000001E-002     9.3537318730115075E-011
  -2.0350000000000000E-002     1.0789284743383716E-010
  -2.0299999999999999E-002     1.2264240808714893E-010
  -2.0250000000000001E-002     1.3779582502934999E-010
  -2.0199999999999999E-002     1.5338225177907001E-010
  -2.0150000000000001E-002     1.6943397984278579E-010
  -2.0100000000000000E-002     1.8597092409552612E-010
  -2.0049999999999998E-002     2.0298769030477303E-010
  -2.0000000000000000E-002     2.2044475493080513E-010
  -1.9949999999999999E-002     2.3826473885484292E-010
  -1.9900000000000001E-002     2.5633439016340213E-010
  -1.9850000000000000E-002     2.7451226090955948E-010
  -1.9799999999999998E-002     2.9264203637399084E-010
  -1.9750000000000000E-002     3.1057019073088869E-010
  -1.9699999999999999E-002     3.2816664127310891E-010
  -1.9650000000000001E-002     3.4534559768307046E-010
  -1.9599999999999999E-002     3.6208382380560345E-010
  -1.9550000000000001E-002     3.7843269475591597E-010
  -1.9500000000000000E-002     3.9452120935881065E-010
  -1.9449999999999999E-002     4.1054786302451898E-010
  -1.9400000000000001E-002     4.2676138718213115E-010
  -1.9349999999999999E-002     4.4343146853346939E-010
  -1.9300000000000001E-002     4.6081343535687465E-010
  -1.9250000000000000E-002     4.7911183302434168E-010
  -1.9199999999999998E-002     4.9844981701826938E-010
  -1.9150000000000000E-002     5.1884882809898146E-010
  -1.9099999999999999E-002     5.4022406135746265E-010
  -1.9050000000000001E-002     5.6239673304792538E-010
  -1.9000000000000000E-002     5.8512266359653519E-010
  -1.8949999999999998E-002     6.0813299466014173E-010
  -1.8900000000000000E-002     6.3118023876956214E-010
  -1.8849999999999999E-002     6.5408344234783523E-010
  -1.8800000000000001E-002     6.7676318077613876E-010
  -1.8749999999999999E-002     6.9926164357831445E-010
  -1.8700000000000001E-002     7.2174310643006015E-010
  -1.8650000000000000E-002     7.4447438331353859E-010
  -1.8599999999999998E-002     7.6778831487948799E-010
  -1.8550000000000001E-002     7.9203587653549415E-010
  -1.8499999999999999E-002     8.1753397013775356E-010
  -1.8450000000000001E-002     8.4451867490657314E-010
  -1.8400000000000000E-002     8.7311033737084609E-010
  -1.8349999999999998E-002     9.0329749882242486E-010
  -1.8300000000000000E-002     9.3494136015911640E-010
  -1.8249999999999999E-002     9.6780089519468012E-010
  -1.8200000000000001E-002     1.0015747747745599E-009
  -1.8149999999999999E-002     1.0359521699234650E-009
  -1.8100000000000002E-002     1.0706656198292289E-009
  -1.8050000000000000E-002     1.1055355029370988E-009
  -1.7999999999999999E-002     1.1405015752980266E-009
  -1.7950000000000001E-002     1.1756336739834256E-009
  -1.7899999999999999E-002     1.2111234768694622E-009
  -1.7850000000000001E-002     1.2472565723987091E-009
  -1.7800000000000000E-002     1.2843728417500888E-009
  -1.7749999999999998E-002     1.3228199266549801E-009
  -1.7700000000000000E-002     1.3629089365659320E-009
  -1.7649999999999999E-002     1.4048777943769378E-009
  -1.7600000000000001E-002     1.4488671840137000E-009
  -1.7550000000000000E-002     1.4949121931361608E-009
  -1.7499999999999998E-002     1.5429481874569303E-009
  -1.7450000000000000E-002     1.5928285912115085E-009
  -1.7399999999999999E-002     1.6443520789965999E-009
  -1.7350000000000001E-002     1.6972943821297296E-009
  -1.7299999999999999E-002     1.7514410767803109E-009
  -1.7250000000000001E-002     1.8066164558234758E-009
  -1.7200000000000000E-002     1.8627076474313454E-009
  -1.7149999999999999E-002     1.9196803838902223E-009
  -1.7100000000000001E-002     1.9775853449085889E-009
  -1.7049999999999999E-002     2.0365548707214375E-009
  -1.7000000000000001E-002     2.0967899642956114E-009
  -1.6950000000000000E-002     2.1585374090012846E-009
  -1.6899999999999998E-002     2.2220630178797044E-009
  -1.6850000000000000E-002     2.2876200776391508E-009
  -1.6799999999999999E-002     2.3554212952296309E-009
  -1.6750000000000001E-002     2.4256172423180854E-009
  -1.6700000000000000E-002     2.4982855899076383E-009
  -1.6649999999999998E-002     2.5734338820170781E-009
  -1.6600000000000000E-002     2.6510143961138059E-009
  -1.6549999999999999E-002     2.7309505641375363E-009
  -1.6500000000000001E-002     2.8131678918657018E-009
  -1.6449999999999999E-002     2.8976240037500347E-009
  -1.6400000000000001E-002     2.9843331972008778E-009
  -1.6350000000000000E-002     3.0733772259515360E-009
  -1.6299999999999999E-002     3.1649038879725090E-009
  -1.6250000000000001E-002     3.2591106907915179E-009
  -1.6199999999999999E-002     3.3562171259021419E-009
  -1.6150000000000001E-002     3.4564306551994659E-009
  -1.6100000000000000E-002     3.5599127337786652E-009
  -1.6049999999999998E-002     3.6667486540308238E-009
  -1.6000000000000000E-002     3.7769312873376492E-009
  -1.5949999999999999E-002     3.8903570714514759E-009
  -1.5900000000000001E-002     4.0068404762711821E-009
  -1.5850000000000000E-002     4.1261451664402750E-009
  -1.5799999999999998E-002     4.2480240124881695E-009
  -1.5750000000000000E-002     4.3722750623817690E-009
  -1.5699999999999999E-002     4.4987910843459666E-009
  -1.5650000000000001E-002     4.6276039112753895E-009
  -1.5599999999999999E-002     4.7589144368961239E-009
  -1.5550000000000001E-002     4.8930964986998629E-009
  -1.5500000000000000E-002     5.0306740745366751E-009
  -1.5449999999999998E-002     5.1722728369907750E-009
  -1.5400000000000000E-002     5.3185491743417985E-009
  -1.5349999999999999E-002     5.4701075581982291E-009
  -1.5300000000000001E-002     5.6274223692096579E-009
  -1.5250000000000000E-002     5.7907719042966909E-009
  -1.5199999999999998E-002     5.9602055246745688E-009
  -1.5150000000000000E-002     6.1355409798428315E-009
  -1.5099999999999999E-002     6.3164008289641002E-009
  -1.5050000000000001E-002     6.5022825460533600E-009
  -1.4999999999999999E-002     6.6926445367468766E-009
  -1.4949999999999998E-002     6.8870001933522447E-009
  -1.4900000000000000E-002     7.0850025505904451E-009
  -1.4849999999999999E-002     7.2865044176421596E-009
  -1.4800000000000001E-002     7.4915904613726559E-009
  -1.4749999999999999E-002     7.7005751078390310E-009
  -1.4700000000000001E-002     7.9139713976427683E-009
  -1.4650000000000000E-002     8.1324388280193144E-009
  -1.4599999999999998E-002     8.3567148143044394E-009
  -1.4550000000000000E-002     8.5875409435455880E-009
  -1.4499999999999999E-002     8.8255976604117032E-009
  -1.4450000000000001E-002     9.0714453246211735E-009
  -1.4400000000000000E-002     9.3254756384562009E-009
  -1.4349999999999998E-002     9.5878843697422849E-009
  -1.4300000000000000E-002     9.8586664419748984E-009
  -1.4249999999999999E-002     1.0137633604159792E-008
  -1.4200000000000001E-002     1.0424454718686882E-008
  -1.4149999999999999E-002     1.0718716420827942E-008
  -1.4099999999999998E-002     1.1019997681384224E-008
  -1.4050000000000000E-002     1.1327942834266111E-008
  -1.3999999999999999E-002     1.1642334969274439E-008
  -1.3950000000000001E-002     1.1963145316565497E-008
  -1.3899999999999999E-002     1.2290559292729818E-008
  -1.3850000000000001E-002     1.2624967245915093E-008
  -1.3800000000000000E-002     1.2966930276228916E-008
  -1.3749999999999998E-002     1.3317117507316679E-008
  -1.3700000000000000E-002     1.3676239447150999E-008
  -1.3649999999999999E-002     1.4044979940726247E-008
  -1.3600000000000001E-002     1.4423943046854166E-008
  -1.3550000000000000E-002     1.4813612366505000E-008
  -1.3499999999999998E-002     1.5214342211270852E-008
  -1.3450000000000000E-002     1.5626362547441914E-008
  -1.3399999999999999E-002     1.6049796212326367E-008
  -1.3350000000000001E-002     1.6484687011818665E-008
  -1.3299999999999999E-002     1.6931028355269583E-008
  -1.3249999999999998E-002     1.7388787645566147E-008
  -1.3200000000000000E-002     1.7857939223557932E-008
  -1.3149999999999998E-002     1.8338489186609275E-008
  -1.3100000000000001E-002     1.8830493603106886E-008
  -1.3049999999999999E-002     1.9334078304006290E-008
  -1.3000000000000001E-002     1.9849451270213042E-008
  -1.2950000000000000E-002     2.0376905879832138E-008
  -1.2899999999999998E-002     2.0916813596969476E-008
  -1.2850000000000000E-002     2.1469601829419018E-008
  -1.2799999999999999E-002     2.2035728026162590E-008