  -4.0000000000000001E-002     0.0000000000000000     
  -3.9949999999999999E-002     0.0000000000000000     
  -3.9899999999999998E-002     0.0000000000000000     
  -3.9850000000000003E-002     0.0000000000000000     
  -3.9800000000000002E-002     0.0000000000000000     
  -3.9750000000000001E-002     0.0000000000000000     
  -3.9699999999999999E-002     0.0000000000000000     
  -3.9649999999999998E-002     0.0000000000000000     
  -3.9600000000000003E-002     0.0000000000000000     
  -3.9550000000000002E-002     0.0000000000000000     
  -3.9500000000000000E-002     0.0000000000000000     
  -3.9449999999999999E-002     0.0000000000000000     
  -3.9399999999999998E-002     0.0000000000000000     
  -3.9350000000000003E-002     0.0000000000000000     
  -3.9300000000000002E-002     0.0000000000000000     
  -3.9250000000000000E-002     0.0000000000000000     
  -3.9199999999999999E-002     0.0000000000000000     
  -3.9150000000000004E-002     0.0000000000000000     
  -3.9100000000000003E-002     0.0000000000000000     
  -3.9050000000000001E-002     0.0000000000000000     
  -3.9000000000000000E-002     0.0000000000000000     
  -3.8949999999999999E-002     0.0000000000000000     
  -3.8900000000000004E-002     0.0000000000000000     
  -3.8850000000000003E-002     0.0000000000000000     
  -3.8800000000000001E-002     0.0000000000000000     
  -3.8750000000000000E-002     0.0000000000000000     
  -3.8699999999999998E-002     0.0000000000000000     
  -3.8650000000000004E-002     0.0000000000000000     
  -3.8600000000000002E-002     0.0000000000000000     
  -3.8550000000000001E-002     0.0000000000000000     
  -3.8500000000000000E-002     0.0000000000000000     
  -3.8449999999999998E-002     0.0000000000000000     
  -3.8400000000000004E-002     0.0000000000000000     
  -3.8350000000000002E-002     0.0000000000000000     
  -3.8300000000000001E-002     0.0000000000000000     
  -3.8249999999999999E-002     0.0000000000000000     
  -3.8199999999999998E-002     0.0000000000000000     
  -3.8150000000000003E-002     0.0000000000000000     
  -3.8100000000000002E-002     0.0000000000000000     
  -3.8050000000000000E-002     0.0000000000000000     
  -3.7999999999999999E-002     0.0000000000000000     
  -3.7949999999999998E-002     0.0000000000000000     
  -3.7900000000000003E-002     0.0000000000000000     
  -3.7850000000000002E-002     0.0000000000000000     
  -3.7800000000000000E-002     0.0000000000000000     
  -3.7749999999999999E-002     0.0000000000000000     
  -3.7699999999999997E-002     0.0000000000000000     
  -3.7650000000000003E-002     0.0000000000000000     
  -3.7600000000000001E-002     0.0000000000000000     
  -3.7550000000000000E-002     0.0000000000000000     
  -3.7499999999999999E-002     0.0000000000000000     
  -3.7449999999999997E-002     0.0000000000000000     
  -3.7400000000000003E-002     0.0000000000000000     
  -3.7350000000000001E-002     0.0000000000000000     
  -3.7300000000000000E-002     0.0000000000000000     
  -3.7249999999999998E-002     0.0000000000000000     
  -3.7200000000000004E-002     0.0000000000000000     
  -3.7150000000000002E-002     0.0000000000000000     
  -3.7100000000000001E-002     0.0000000000000000     
  -3.7050000000000000E-002     0.0000000000000000     
  -3.6999999999999998E-002     0.0000000000000000     
  -3.6950000000000004E-002     0.0000000000000000     
  -3.6900000000000002E-002     0.0000000000000000     
  -3.6850000000000001E-002     0.0000000000000000     
  -3.6799999999999999E-002     0.0000000000000000     
  -3.6749999999999998E-002     0.0000000000000000     
  -3.6700000000000003E-002     0.0000000000000000     
  -3.6650000000000002E-002     0.0000000000000000     
  -3.6600000000000001E-002     0.0000000000000000     
  -3.6549999999999999E-002     0.0000000000000000     
  -3.6499999999999998E-002     0.0000000000000000     
  -3.6450000000000003E-002     0.0000000000000000     
  -3.6400000000000002E-002     0.0000000000000000     
  -3.6350000000000000E-002     0.0000000000000000     
  -3.6299999999999999E-002     0.0000000000000000     
  -3.6249999999999998E-002     0.0000000000000000     
  -3.6200000000000003E-002     0.0000000000000000     
  -3.6150000000000002E-002     0.0000000000000000     
  -3.6100000000000000E-002     0.0000000000000000     
  -3.6049999999999999E-002     0.0000000000000000     
  -3.6000000000000004E-002     0.0000000000000000     
  -3.5950000000000003E-002     0.0000000000000000     
  -3.5900000000000001E-002     0.0000000000000000     
  -3.5850000000000000E-002     0.0000000000000000     
  -3.5799999999999998E-002     0.0000000000000000     
  -3.5750000000000004E-002     0.0000000000000000     
  -3.5700000000000003E-002     0.0000000000000000     
  -3.5650000000000001E-002     0.0000000000000000     
  -3.5600000000000000E-002     0.0000000000000000     
  -3.5549999999999998E-002     0.0000000000000000     
  -3.5500000000000004E-002     0.0000000000000000     
  -3.5450000000000002E-002     0.0000000000000000     
  -3.5400000000000001E-002     0.0000000000000000     
  -3.5349999999999999E-002     0.0000000000000000     
  -3.5299999999999998E-002     0.0000000000000000     
  -3.5250000000000004E-002     0.0000000000000000     
  -3.5200000000000002E-002     0.0000000000000000     
  -3.5150000000000001E-002     0.0000000000000000     
  -3.5099999999999999E-002     0.0000000000000000     
  -3.5049999999999998E-002     0.0000000000000000     
  -3.5000000000000003E-002     0.0000000000000000     
  -3.4950000000000002E-002     0.0000000000000000     
  -3.4900000000000000E-002     0.0000000000000000     
  -3.4849999999999999E-002     0.0000000000000000     
  -3.4799999999999998E-002     0.0000000000000000     
  -3.4750000000000003E-002     0.0000000000000000     
  -3.4700000000000002E-002     0.0000000000000000     
  -3.4650000000000000E-002     0.0000000000000000     
  -3.4599999999999999E-002     0.0000000000000000     
  -3.4549999999999997E-002     0.0000000000000000     
  -3.4500000000000003E-002     0.0000000000000000     
  -3.4450000000000001E-002     0.0000000000000000     
  -3.4400000000000000E-002     0.0000000000000000     
  -3.4349999999999999E-002     0.0000000000000000     
  -3.4299999999999997E-002     0.0000000000000000     
  -3.4250000000000003E-002     0.0000000000000000     
  -3.4200000000000001E-002     0.0000000000000000     
  -3.4150000000000000E-002     0.0000000000000000     
  -3.4099999999999998E-002     0.0000000000000000     
  -3.4049999999999997E-002     0.0000000000000000     
  -3.4000000000000002E-002     0.0000000000000000     
  -3.3950000000000001E-002     0.0000000000000000     
  -3.3900000000000000E-002     0.0000000000000000     
  -3.3849999999999998E-002     0.0000000000000000     
  -3.3799999999999997E-002     0.0000000000000000     
  -3.3750000000000002E-002     0.0000000000000000     
  -3.3700000000000001E-002     0.0000000000000000     
  -3.3649999999999999E-002     0.0000000000000000     
  -3.3599999999999998E-002     0.0000000000000000     
  -3.3550000000000003E-002     0.0000000000000000     
  -3.3500000000000002E-002     0.0000000000000000     
  -3.3450000000000001E-002     0.0000000000000000     
  -3.3399999999999999E-002     0.0000000000000000     
  -3.3349999999999998E-002     1.4230203613484125E-039
  -3.3300000000000003E-002     1.4230203613484125E-039
  -3.3250000000000002E-002     1.4230203613484125E-039
  -3.3200000000000000E-002    -2.8560169608200953E-039
  -3.3149999999999999E-002    -7.6899695739050862E-039
  -3.3099999999999997E-002    -1.1982586227877677E-038
  -3.3050000000000003E-002    -8.6664659758886265E-039
  -3.3000000000000002E-002     2.5341154336164931E-039
  -3.2950000000000000E-002     3.3017469824001756E-038
  -3.2899999999999999E-002     5.9180995475422094E-038
  -3.2850000000000004E-002     5.7536684781949427E-038
  -3.2800000000000003E-002     8.8228043064511627E-039
  -3.2750000000000001E-002    -6.1219158447037467E-038
  -3.2700000000000000E-002    -1.3515862027079412E-037
  -3.2649999999999998E-002    -1.5309894906419194E-037
  -3.2600000000000004E-002    -8.4111665575228424E-038
  -3.2550000000000003E-002     7.3616569951195003E-038
  -3.2500000000000001E-002     2.7335159574313170E-037
  -3.2450000000000000E-002     4.4303344370892548E-037
  -3.2399999999999998E-002     4.7196927356758343E-037
  -3.2350000000000004E-002     2.3099617026881423E-037
  -3.2300000000000002E-002    -3.3463144022279454E-037
  -3.2250000000000001E-002    -1.2077428636689075E-036
  -3.2199999999999999E-002    -2.1867073817258081E-036
  -3.2149999999999998E-002    -2.8482160947215279E-036
  -3.2100000000000004E-002    -2.5829979741409227E-036
  -3.2050000000000002E-002    -7.7248579657010363E-037
  -3.2000000000000001E-002     2.8990496707249547E-036
  -3.1949999999999999E-002     8.0602886218655113E-036
  -3.1899999999999998E-002     1.3363570958174206E-035
  -3.1850000000000003E-002     1.6489733629920675E-035
  -3.1800000000000002E-002     1.4604944161037699E-035
  -3.1750000000000000E-002     5.2983171651844655E-036
  -3.1699999999999999E-002    -1.2185720377435457E-035
  -3.1649999999999998E-002    -3.5791404282717653E-035
  -3.1600000000000003E-002    -6.0046085161345414E-035
  -3.1550000000000002E-002    -7.6410485323266782E-035
  -3.1500000000000000E-002    -7.4777509920233520E-035
  -3.1449999999999999E-002    -4.6003594396687002E-035
  -3.1399999999999997E-002     1.4894994061699935E-035
  -3.1350000000000003E-002     1.0539032355029788E-034
  -3.1300000000000001E-002     2.1250252285459024E-034
  -3.1250000000000000E-002     3.1096823442438271E-034
  -3.1199999999999999E-002     3.6358261252597297E-034
  -3.1150000000000001E-002     3.2535208029406003E-034
  -3.1100000000000003E-002     1.5344363521849377E-034
  -3.1050000000000001E-002    -1.7577460494113078E-034
  -3.1000000000000000E-002    -6.4388632662473816E-034
  -3.0949999999999998E-002    -1.1677067616918462E-033
  -3.0900000000000000E-002    -1.5880808560538581E-033
  -3.0850000000000002E-002    -1.6848991774927242E-033
  -3.0800000000000001E-002    -1.2302422938489256E-033
  -3.0750000000000000E-002    -7.9762613406832738E-035
  -3.0699999999999998E-002     1.7176715749137854E-033
  -3.0650000000000000E-002     3.8339731057358009E-033
  -3.0600000000000002E-002     5.6535630979870955E-033
  -3.0550000000000001E-002     6.3865999073852460E-033
  -3.0499999999999999E-002     5.3081527600237260E-033
  -3.0449999999999998E-002     2.0665240653587014E-033
  -3.0400000000000000E-002    -3.0550203404746380E-033
  -3.0350000000000002E-002    -9.0605215523555428E-033
  -3.0300000000000001E-002    -1.4439075835717088E-032
  -3.0249999999999999E-002    -1.7612464415742590E-032
  -3.0200000000000001E-002    -1.7458090542805844E-032
  -3.0150000000000000E-002    -1.3631481256633665E-032
  -3.0100000000000002E-002    -6.4493818968244554E-033
  -3.0050000000000000E-002     3.6839418990351941E-033
  -2.9999999999999999E-002     1.6969475560775533E-032
  -2.9950000000000001E-002     3.4371861739428422E-032
  -2.9899999999999999E-002     5.6563869193695193E-032
  -2.9850000000000002E-002     8.1450098398832157E-032
  -2.9800000000000000E-002     1.0104044975079689E-031
  -2.9749999999999999E-002     9.9600171221782855E-032
  -2.9700000000000001E-002     5.5688575343403185E-032
  -2.9650000000000003E-002    -4.9852966661393874E-032
  -2.9600000000000001E-002    -2.2016575784344240E-031
  -2.9550000000000000E-002    -4.2679795447602002E-031
  -2.9499999999999998E-002    -6.0004715443085441E-031
  -2.9450000000000000E-002    -6.3483598170497419E-031
  -2.9400000000000003E-002    -4.1934567532863395E-031
  -2.9350000000000001E-002     1.1414786968961735E-031
  -2.9300000000000000E-002     9.2879012922168588E-031
  -2.9249999999999998E-002     1.8377173340208514E-030
  -2.9200000000000000E-002     2.5044283309012512E-030
  -2.9150000000000002E-002     2.5134400904022980E-030
  -2.9100000000000001E-002     1.5141680614079521E-030
  -2.9049999999999999E-002    -5.9245027175912951E-031
  -2.8999999999999998E-002    -3.4895638987756022E-030
  -2.8950000000000000E-002    -6.3865552835048075E-030
  -2.8900000000000002E-002    -8.1404171977051479E-030
  -2.8850000000000001E-002    -7.5789389566656305E-030
  -2.8799999999999999E-002    -3.9674932734044147E-030
  -2.8749999999999998E-002     2.5248686609516749E-030
  -2.8700000000000000E-002     1.0558043595319038E-029
  -2.8650000000000002E-002     1.7735287160881350E-029
  -2.8600000000000000E-002     2.1181154419719586E-029
  -2.8549999999999999E-002     1.8493379801647088E-029
  -2.8500000000000001E-002     8.7918683215766179E-030
  -2.8450000000000000E-002    -6.5360861772572629E-030
  -2.8400000000000002E-002    -2.3780432378943044E-029
  -2.8350000000000000E-002    -3.7740452883049047E-029
  -2.8299999999999999E-002    -4.3314325408361475E-029
  -2.8250000000000001E-002    -3.7358997138663782E-029
  -2.8200000000000003E-002    -2.0102450421488284E-029
  -2.8150000000000001E-002     4.5721088083873578E-030
  -2.8100000000000000E-002     3.0288778450076575E-029
  -2.8049999999999999E-002     5.0502992089168165E-029
  -2.8000000000000001E-002     6.1081035482848127E-029
  -2.7950000000000003E-002     6.1890696310195175E-029
  -2.7900000000000001E-002     5.6357931153382210E-029
  -2.7850000000000000E-002     4.8748187042112642E-029
  -2.7799999999999998E-002     4.0127855032960987E-029
  -2.7750000000000000E-002     2.5069875617713266E-029
  -2.7700000000000002E-002    -8.4169150496581554E-030
  -2.7650000000000001E-002    -7.4008321506808374E-029
  -2.7600000000000000E-002    -1.7750102004851618E-028
  -2.7549999999999998E-002    -3.0554844318076823E-028
  -2.7500000000000000E-002    -4.1806740320427663E-028
  -2.7450000000000002E-002    -4.5044122152060326E-028
  -2.7400000000000001E-002    -3.2974281764791423E-028
  -2.7349999999999999E-002    -4.4564645708287015E-030
  -2.7299999999999998E-002     5.1937181955542745E-028
  -2.7250000000000000E-002     1.1487578631453990E-027
  -2.7200000000000002E-002     1.6972410619278763E-027
  -2.7150000000000001E-002     1.9143684347552591E-027
  -2.7099999999999999E-002     1.5548406894730490E-027
  -2.7049999999999998E-002     4.7625388701226659E-028
  -2.7000000000000000E-002    -1.2613888817113916E-027
  -2.6950000000000002E-002    -3.3321404589448935E-027
  -2.6900000000000000E-002    -5.1544819923840746E-027
  -2.6849999999999999E-002    -5.9993707790328804E-027
  -2.6800000000000001E-002    -5.1918785115040246E-027
  -2.6749999999999999E-002    -2.3668316910600480E-027
  -2.6700000000000002E-002     2.2937023910821298E-027
  -2.6650000000000000E-002     7.9302255681694788E-027
  -2.6599999999999999E-002     1.3062777935057757E-026
  -2.6550000000000001E-002     1.5875055850265775E-026
  -2.6500000000000003E-002     1.4700248824791739E-026
  -2.6450000000000001E-002     8.6076223560919929E-027
  -2.6400000000000000E-002    -2.0739278319060314E-027
  -2.6349999999999998E-002    -1.5484458475531823E-026
  -2.6300000000000000E-002    -2.8372210491771030E-026
  -2.6250000000000002E-002    -3.6711072031006361E-026
  -2.6200000000000001E-002    -3.6727041822649285E-026
  -2.6150000000000000E-002    -2.6115395832091138E-026
  -2.6099999999999998E-002    -5.1148514319437309E-027
  -2.6050000000000000E-002     2.2930569050674432E-026
  -2.6000000000000002E-002     5.1816336935895277E-026
  -2.5950000000000001E-002     7.3636149506538753E-026
  -2.5899999999999999E-002     8.0698669326621750E-026
  -2.5849999999999998E-002     6.7776420269352307E-026
  -2.5800000000000000E-002     3.4072263352569549E-026
  -2.5750000000000002E-002    -1.5738904291448372E-026
  -2.5700000000000001E-002    -7.1860768093701973E-026
  -2.5649999999999999E-002    -1.2122832794227560E-025
  -2.5599999999999998E-002    -1.5051931215333050E-025
  -2.5550000000000000E-002    -1.4957317151380457E-025
  -2.5500000000000002E-002    -1.1425339108895077E-025
  -2.5450000000000000E-002    -4.7879337660030345E-026
  -2.5399999999999999E-002     3.9240215039888858E-026
  -2.5349999999999998E-002     1.3202600285026982E-025
  -2.5300000000000000E-002     2.1384313835997351E-025
  -2.5250000000000002E-002     2.6960073820048667E-025
  -2.5200000000000000E-002     2.8772049234611466E-025
  -2.5149999999999999E-002     2.6053812579027107E-025
  -2.5100000000000001E-002     1.8359196446226754E-025
  -2.5049999999999999E-002     5.5071368176692672E-026
  -2.5000000000000001E-002    -1.2300409221994341E-025
  -2.4950000000000000E-002    -3.4088003543196942E-025
  -2.4899999999999999E-002    -5.7492868220601498E-025
  -2.4850000000000001E-002    -7.8176631998711893E-025
  -2.4800000000000003E-002    -8.9680918719703429E-025
  -2.4750000000000001E-002    -8.4184352049758228E-025
  -2.4700000000000000E-002    -5.4444838216086589E-025
  -2.4649999999999998E-002     3.1902367724349717E-026
  -2.4600000000000000E-002     8.5375384359890470E-025
  -2.4550000000000002E-002     1.7915299564637987E-024
  -2.4500000000000001E-002     2.6158598539736512E-024
  -2.4450000000000000E-002     3.0286337539252943E-024
  -2.4399999999999998E-002     2.7329143277453439E-024
  -2.4350000000000000E-002     1.5327553503396539E-024
  -2.4299999999999999E-002    -5.6076770877421826E-025
  -2.4250000000000001E-002    -3.2524201624261050E-024
  -2.4199999999999999E-002    -5.9522159083143025E-024
  -2.4150000000000001E-002    -7.8588137128704288E-024
  -2.4100000000000000E-002    -8.1409166012601980E-024
  -2.4049999999999998E-002    -6.1882973733363660E-024
  -2.4000000000000000E-002    -1.8715946296964130E-024
  -2.3949999999999999E-002     4.2712291400839540E-024
  -2.3900000000000001E-002     1.1003306842968996E-023
  -2.3850000000000000E-002     1.6565524587254028E-023
  -2.3800000000000002E-002     1.9061466188569453E-023
  -2.3750000000000000E-002     1.6983781161831882E-023
  -2.3699999999999999E-002     9.7537639704031713E-024
  -2.3650000000000001E-002    -1.8882788599423217E-024
  -2.3599999999999999E-002    -1.5794022682254425E-023
  -2.3550000000000001E-002    -2.8710903326984275E-023
  -2.3500000000000000E-002    -3.6968128257544667E-023
  -2.3449999999999999E-002    -3.7416185153407661E-023
  -2.3400000000000001E-002    -2.8391444254109051E-023
  -2.3349999999999999E-002    -1.0430967956117654E-023
  -2.3300000000000001E-002     1.3506797784845149E-023
  -2.3250000000000000E-002     3.8450572658873374E-023
  -2.3199999999999998E-002     5.8423875785272439E-023
  -2.3150000000000000E-002     6.7844617725821355E-023
  -2.3099999999999999E-002     6.2974905614800936E-023
  -2.3050000000000001E-002     4.3033174670190292E-023
  -2.3000000000000000E-002     1.0646573021874615E-023
  -2.2950000000000002E-002    -2.8511821236858007E-023
  -2.2900000000000000E-002    -6.6834369889062574E-023
  -2.2849999999999999E-002    -9.6362257573168874E-023
  -2.2800000000000001E-002    -1.1043445793658380E-022
  -2.2749999999999999E-002    -1.0499319899710331E-022
  -2.2700000000000001E-002    -7.9264190986928279E-023
  -2.2650000000000000E-002    -3.5745165005092902E-023
  -2.2599999999999999E-002     2.0339183131898618E-023
  -2.2550000000000001E-002     8.1813068839604066E-023
  -2.2499999999999999E-002     1.4025322850786208E-022
  -2.2450000000000001E-002     1.8647123860021789E-022
  -2.2400000000000000E-002     2.1087932614177586E-022
  -2.2349999999999998E-002     2.0408493240789226E-022
  -2.2300000000000000E-002     1.5815426643364460E-022
  -2.2249999999999999E-002     6.8835043024611405E-023
  -2.2200000000000001E-002    -6.1386190070033780E-023
  -2.2150000000000000E-002    -2.2010156189438868E-022
  -2.2100000000000002E-002    -3.8293705647290855E-022
  -2.2050000000000000E-002    -5.1417442971584886E-022
  -2.1999999999999999E-002    -5.7131639474262837E-022
  -2.1950000000000001E-002    -5.1399708626381457E-022
  -2.1899999999999999E-002    -3.1624628143619449E-022
  -2.1850000000000001E-002     2.0479836405492264E-023
  -2.1800000000000000E-002     4.5737089609502729E-022
  -2.1749999999999999E-002     9.1573076070564621E-022
  -2.1700000000000001E-002     1.2852680351699350E-021
  -2.1649999999999999E-002     1.4443670098303946E-021
  -2.1600000000000001E-002     1.2901375872974704E-021
  -2.1550000000000000E-002     7.7236538597932603E-022
  -2.1499999999999998E-002    -7.7431360113324856E-023
  -2.1450000000000000E-002    -1.1316661575041577E-021
  -2.1399999999999999E-002    -2.1752236929823306E-021
  -2.1350000000000001E-002    -2.9404664233114581E-021
  -2.1299999999999999E-002    -3.1655263558714877E-021
  -2.1250000000000002E-002    -2.6652155372728476E-021
  -2.1200000000000000E-002    -1.3977797653752919E-021
  -2.1149999999999999E-002     4.9188915802276551E-022
  -2.1100000000000001E-002     2.6695606089213341E-021
  -2.1049999999999999E-002     4.6586769585874668E-021
  -2.1000000000000001E-002     5.9342951543679311E-021
  -2.0950000000000000E-002     6.0476863137402406E-021
  -2.0899999999999998E-002     4.7539226505787013E-021
  -2.0850000000000000E-002     2.1091445238446415E-021
  -2.0799999999999999E-002    -1.4931158785444892E-021
  -2.0750000000000001E-002    -5.3655517501476677E-021
  -2.0700000000000000E-002    -8.6510033617944784E-021
  -2.0649999999999998E-002    -1.0505764744633294E-020
  -2.0600000000000000E-002    -1.0302923979512760E-020
  -2.0549999999999999E-002    -7.8066233301680600E-021
  -2.0500000000000001E-002    -3.2705296316210248E-021
  -2.0449999999999999E-002     2.5708058008064408E-021
  -2.0400000000000001E-002     8.6238429869605348E-021
  -2.0350000000000000E-002     1.3648777583160133E-020
  -2.0299999999999999E-002     1.6516482654951187E-020
  -2.0250000000000001E-002     1.6450503199005413E-020
  -2.0199999999999999E-002     1.3198174065850418E-020
  -2.0150000000000001E-002     7.0933952399679947E-021
  -2.0100000000000000E-002    -9.9794847762497614E-022
  -2.0049999999999998E-002    -9.8291996742822733E-021
  -2.0000000000000000E-002    -1.7978537724901547E-020
  -1.9949999999999999E-002    -2.4060320814099941E-020
  -1.9900000000000001E-002    -2.6903734200010586E-020
  -1.9850000000000000E-002    -2.5682806963716043E-020
  -1.9799999999999998E-002    -2.0006562134626356E-020
  -1.9750000000000000E-002    -9.9935291915243391E-021
  -1.9699999999999999E-002     3.6477313557536860E-021
  -1.9650000000000001E-002     1.9533652249194558E-020
  -1.9599999999999999E-002     3.5553849587544141E-020
  -1.9550000000000001E-002     4.8924297573347325E-020
  -1.9500000000000000E-002     5.6430177100857346E-020
  -1.9449999999999999E-002     5.4918917464473623E-020
  -1.9400000000000001E-002     4.2037230034496454E-020
  -1.9349999999999999E-002     1.7107647436637484E-020
  -1.9300000000000001E-002    -1.8063608201707689E-020
  -1.9250000000000000E-002    -5.8726355833269828E-020
  -1.9199999999999998E-002    -9.7353532001095312E-020
  -1.9150000000000000E-002    -1.2462128237200615E-019
  -1.9099999999999999E-002    -1.3120142029147252E-019
  -1.9050000000000001E-002    -1.1011867827452090E-019
  -1.9000000000000000E-002    -5.9181931341990090E-020
  -1.8949999999999998E-002     1.7165179970258825E-020
  -1.8900000000000000E-002     1.0724066869693092E-019
  -1.8849999999999999E-002     1.9325324333680376E-019
  -1.8800000000000001E-002     2.5428412922319374E-019
  -1.8749999999999999E-002     2.7075792005354380E-019
  -1.8700000000000001E-002     2.2955219560564648E-019
  -1.8650000000000000E-002     1.2854414236097391E-019
  -1.8599999999999998E-002    -2.0695508271624357E-020
  -1.8550000000000001E-002    -1.9310491283703085E-019
  -1.8499999999999999E-002    -3.5370042741046495E-019
  -1.8450000000000001E-002    -4.6418736180871648E-019
  -1.8400000000000000E-002    -4.9145086819629892E-019
  -1.8349999999999998E-002    -4.1610919487730165E-019
  -1.8300000000000000E-002    -2.3903665623138782E-019
  -1.8249999999999999E-002     1.6004812928296353E-020
  -1.8200000000000001E-002     3.0474959001938762E-019
  -1.8149999999999999E-002     5.6984189924483904E-019
  -1.8100000000000002E-002     7.5206458515981716E-019
  -1.8050000000000000E-002     8.0312973018213668E-019
  -1.7999999999999999E-002     6.9721002397069452E-019
  -1.7950000000000001E-002     4.3848309779157394E-019
  -1.7899999999999999E-002     6.2730363691738206E-020
  -1.7850000000000001E-002    -3.6768478568287958E-019
  -1.7800000000000000E-002    -7.7463363054527766E-019
  -1.7749999999999998E-002    -1.0786792203211261E-018
  -1.7700000000000000E-002    -1.2141950789257502E-018
  -1.7649999999999999E-002    -1.1420663751340287E-018
  -1.7600000000000001E-002    -8.5752657012438754E-019
  -1.7550000000000000E-002    -3.9185639097355504E-019
  -1.7499999999999998E-002     1.9195461432781438E-019
  -1.7450000000000000E-002     8.0830450802260850E-019
  -1.7399999999999999E-002     1.3608845732936758E-018
  -1.7350000000000001E-002     1.7554132888648595E-018
  -1.7299999999999999E-002     1.9117242909523712E-018
  -1.7250000000000001E-002     1.7744851355086929E-018
  -1.7200000000000000E-002     1.3224040724265315E-018
  -1.7149999999999999E-002     5.7586867411739761E-019
  -1.7100000000000001E-002    -3.9757622572634555E-019
  -1.7049999999999999E-002    -1.4815022579511300E-018
  -1.7000000000000001E-002    -2.5151833936157821E-018
  -1.6950000000000000E-002    -3.3073849030896332E-018
  -1.6899999999999998E-002    -3.6613492939171294E-018
  -1.6850000000000000E-002    -3.4106006029771529E-018
  -1.6799999999999999E-002    -2.4615669499404339E-018
  -1.6750000000000001E-002    -8.3506513365785876E-019
  -1.6700000000000000E-002     1.3044616453383423E-018
  -1.6649999999999998E-002     3.6438554723851587E-018
  -1.6600000000000000E-002     5.7496932003541060E-018
  -1.6549999999999999E-002     7.1335088313090334E-018
  -1.6500000000000001E-002     7.3479750687224786E-018
  -1.6449999999999999E-002     6.0982901227816898E-018
  -1.6400000000000001E-002     3.3447422777920602E-018
  -1.6350000000000000E-002    -6.3131734446718061E-019
  -1.6299999999999999E-002    -5.2228976900433041E-018
  -1.6250000000000001E-002    -9.5687499162917484E-018
  -1.6199999999999999E-002    -1.2698948405080810E-017
  -1.6150000000000001E-002    -1.3733770734659925E-017
  -1.6100000000000000E-002    -1.2097681740173392E-017
  -1.6049999999999998E-002    -7.6997303354404556E-018
  -1.6000000000000000E-002    -1.0317936706666752E-018
  -1.5949999999999999E-002     6.8512917541111599E-018
  -1.5900000000000001E-002     1.4482297206847192E-017
  -1.5850000000000000E-002     2.0245634515086998E-017
  -1.5799999999999998E-002     2.2708263819936591E-017
  -1.5750000000000000E-002     2.0949624435724587E-017
  -1.5699999999999999E-002     1.4815547664621099E-017
  -1.5650000000000001E-002     5.0316349921975695E-018
  -1.5599999999999999E-002    -6.8617381180991869E-018
  -1.5550000000000001E-002    -1.8752625563972425E-017
  -1.5500000000000000E-002    -2.8338504749497398E-017
  -1.5449999999999998E-002    -3.3571536442747466E-017
  -1.5400000000000000E-002    -3.3077266485051934E-017
  -1.5349999999999999E-002    -2.6458984543922650E-017
  -1.5300000000000001E-002    -1.4423087677647890E-017
  -1.5250000000000000E-002     1.3014804518112667E-018
  -1.5199999999999998E-002     1.8233623372351377E-017
  -1.5150000000000000E-002     3.3546357399835539E-017
  -1.5099999999999999E-002     4.4531333070637302E-017
  -1.5050000000000001E-002     4.9038843316116367E-017
  -1.4999999999999999E-002     4.5823814257662131E-017
  -1.4949999999999998E-002     3.4753659998167456E-017
  -1.4900000000000000E-002     1.6863246720268624E-017
  -1.4849999999999999E-002    -5.7339534426419182E-018
  -1.4800000000000001E-002    -3.0056254717033743E-017
  -1.4749999999999999E-002    -5.2562213824130282E-017
  -1.4700000000000001E-002    -6.9539963472674271E-017
  -1.4650000000000000E-002    -7.7565455210560326E-017
  -1.4599999999999998E-002    -7.4013382635115259E-017
  -1.4550000000000000E-002    -5.7586317276311415E-017
  -1.4499999999999999E-002    -2.8796100963008280E-017
  -1.4450000000000001E-002     9.7032143007137449E-018
  -1.4400000000000000E-002     5.3054336583624083E-017
  -1.4349999999999998E-002     9.4525737599914825E-017
  -1.4300000000000000E-002     1.2630172753042500E-016
  -1.4249999999999999E-002     1.4071605191718640E-016
  -1.4200000000000001E-002     1.3179172923904017E-016
  -1.4149999999999999E-002     9.6826700232619910E-017
  -1.4099999999999998E-002     3.7674433251420649E-017
  -1.4050000000000000E-002    -3.8655235217977784E-017
  -1.3999999999999999E-002    -1.2038002404590904E-016
  -1.3950000000000001E-002    -1.9245241004052283E-016
  -1.3899999999999999E-002    -2.3908742537628278E-016
  -1.3850000000000001E-002    -2.4694044368513053E-016
  -1.3800000000000000E-002    -2.0833519700249353E-016
  -1.3749999999999998E-002    -1.2381693591769825E-016
  -1.3700000000000000E-002    -3.3381792013804080E-018
  -1.3649999999999999E-002     1.3440906189175331E-016
  -1.3600000000000001E-002     2.6464484451669896E-016
  -1.3550000000000000E-002     3.6082546390011749E-016
  -1.3499999999999998E-002     3.9990442451940473E-016
  -1.3450000000000000E-002     3.6748809716435840E-016
  -1.3399999999999999E-002     2.6174767119511578E-016
  -1.3350000000000001E-002     9.5110037710038283E-017
  -1.3299999999999999E-002    -1.0684948853741088E-016
  -1.3249999999999998E-002    -3.0931794595332207E-016
  -1.3200000000000000E-002    -4.7434958601940815E-016
  -1.3149999999999998E-002    -5.6803638245140609E-016
  -1.3100000000000001E-002    -5.6732284927984927E-016
  -1.3049999999999999E-002    -4.6505339835916124E-016
  -1.3000000000000001E-002    -2.7216783491026292E-016
  -1.2950000000000000E-002    -1.6531183351973060E-017
  -1.2899999999999998E-002     2.6142908833079069E-016
  -1.2850000000000000E-002     5.1545668655784972E-016
  -1.2799999999999999E-002     7.0129620840057078E-016