  -4.0000000000000001E-002     0.0000000000000000     
  -3.9949999999999999E-002     0.0000000000000000     
  -3.9899999999999998E-002     0.0000000000000000     
  -3.9850000000000003E-002     0.0000000000000000     
  -3.9800000000000002E-002     0.0000000000000000     
  -3.9750000000000001E-002     0.0000000000000000     
  -3.9699999999999999E-002     0.0000000000000000     
  -3.9649999999999998E-002     0.0000000000000000     
  -3.9600000000000003E-002     0.0000000000000000     
  -3.9550000000000002E-002     0.0000000000000000     
  -3.9500000000000000E-002     0.0000000000000000     
  -3.9449999999999999E-002     0.0000000000000000     
  -3.9399999999999998E-002     0.0000000000000000     
  -3.9350000000000003E-002     0.0000000000000000     
  -3.9300000000000002E-002     0.0000000000000000     
  -3.9250000000000000E-002     0.0000000000000000     
  -3.9199999999999999E-002     0.0000000000000000     
  -3.9150000000000004E-002     0.0000000000000000     
  -3.9100000000000003E-002     0.0000000000000000     
  -3.9050000000000001E-002     0.0000000000000000     
  -3.9000000000000000E-002     0.0000000000000000     
  -3.8949999999999999E-002     0.0000000000000000     
  -3.8900000000000004E-002     0.0000000000000000     
  -3.8850000000000003E-002     0.0000000000000000     
  -3.8800000000000001E-002     0.0000000000000000     
  -3.8750000000000000E-002     0.0000000000000000     
  -3.8699999999999998E-002     0.0000000000000000     
  -3.8650000000000004E-002     0.0000000000000000     
  -3.8600000000000002E-002     0.0000000000000000     
  -3.8550000000000001E-002     0.0000000000000000     
  -3.8500000000000000E-002     0.0000000000000000     
  -3.8449999999999998E-002     0.0000000000000000     
  -3.8400000000000004E-002     0.0000000000000000     
  -3.8350000000000002E-002     0.0000000000000000     
  -3.8300000000000001E-002     0.0000000000000000     
  -3.8249999999999999E-002     0.0000000000000000     
  -3.8199999999999998E-002     0.0000000000000000     
  -3.8150000000000003E-002     0.0000000000000000     
  -3.8100000000000002E-002     0.0000000000000000     
  -3.8050000000000000E-002     0.0000000000000000     
  -3.7999999999999999E-002     0.0000000000000000     
  -3.7949999999999998E-002     0.0000000000000000     
  -3.7900000000000003E-002     0.0000000000000000     
  -3.7850000000000002E-002     0.0000000000000000     
  -3.7800000000000000E-002     0.0000000000000000     
  -3.7749999999999999E-002     0.0000000000000000     
  -3.7699999999999997E-002     0.0000000000000000     
  -3.7650000000000003E-002     0.0000000000000000     
  -3.7600000000000001E-002     0.0000000000000000     
  -3.7550000000000000E-002     0.0000000000000000     
  -3.7499999999999999E-002     0.0000000000000000     
  -3.7449999999999997E-002     0.0000000000000000     
  -3.7400000000000003E-002     0.0000000000000000     
  -3.7350000000000001E-002     0.0000000000000000     
  -3.7300000000000000E-002     0.0000000000000000     
  -3.7249999999999998E-002     0.0000000000000000     
  -3.7200000000000004E-002     0.0000000000000000     
  -3.7150000000000002E-002     0.0000000000000000     
  -3.7100000000000001E-002     0.0000000000000000     
  -3.7050000000000000E-002     0.0000000000000000     
  -3.6999999999999998E-002     0.0000000000000000     
  -3.6950000000000004E-002     0.0000000000000000     
  -3.6900000000000002E-002     0.0000000000000000     
  -3.6850000000000001E-002     0.0000000000000000     
  -3.6799999999999999E-002     0.0000000000000000     
  -3.6749999999999998E-002     0.0000000000000000     
  -3.6700000000000003E-002     0.0000000000000000     
  -3.6650000000000002E-002     0.0000000000000000     
  -3.6600000000000001E-002     0.0000000000000000     
  -3.6549999999999999E-002     0.0000000000000000     
  -3.6499999999999998E-002     0.0000000000000000     
  -3.6450000000000003E-002     0.0000000000000000     
  -3.6400000000000002E-002     0.0000000000000000     
  -3.6350000000000000E-002     0.0000000000000000     
  -3.6299999999999999E-002     0.0000000000000000     
  -3.6249999999999998E-002     0.0000000000000000     
  -3.6200000000000003E-002     0.0000000000000000     
  -3.6150000000000002E-002     0.0000000000000000     
  -3.6100000000000000E-002     0.0000000000000000     
  -3.6049999999999999E-002     0.0000000000000000     
  -3.6000000000000004E-002     0.0000000000000000     
  -3.5950000000000003E-002     0.0000000000000000     
  -3.5900000000000001E-002     0.0000000000000000     
  -3.5850000000000000E-002     0.0000000000000000     
  -3.5799999999999998E-002     0.0000000000000000     
  -3.5750000000000004E-002     0.0000000000000000     
  -3.5700000000000003E-002     0.0000000000000000     
  -3.5650000000000001E-002     0.0000000000000000     
  -3.5600000000000000E-002     0.0000000000000000     
  -3.5549999999999998E-002     0.0000000000000000     
  -3.5500000000000004E-002     0.0000000000000000     
  -3.5450000000000002E-002     0.0000000000000000     
  -3.5400000000000001E-002     0.0000000000000000     
  -3.5349999999999999E-002     0.0000000000000000     
  -3.5299999999999998E-002     0.0000000000000000     
  -3.5250000000000004E-002     0.0000000000000000     
  -3.5200000000000002E-002     0.0000000000000000     
  -3.5150000000000001E-002     0.0000000000000000     
  -3.5099999999999999E-002     0.0000000000000000     
  -3.5049999999999998E-002     0.0000000000000000     
  -3.5000000000000003E-002     0.0000000000000000     
  -3.4950000000000002E-002     0.0000000000000000     
  -3.4900000000000000E-002     0.0000000000000000     
  -3.4849999999999999E-002     0.0000000000000000     
  -3.4799999999999998E-002     0.0000000000000000     
  -3.4750000000000003E-002     0.0000000000000000     
  -3.4700000000000002E-002     0.0000000000000000     
  -3.4650000000000000E-002     0.0000000000000000     
  -3.4599999999999999E-002    -4.2492485597798627E-040
  -3.4549999999999997E-002    -4.2492485597798627E-040
  -3.4500000000000003E-002     0.0000000000000000     
  -3.4450000000000001E-002     1.6266019120630025E-039
  -3.4400000000000000E-002     3.4503619188068437E-039
  -3.4349999999999999E-002     4.6146976740466655E-039
  -3.4299999999999997E-002     3.2811318891409501E-039
  -3.4250000000000003E-002    -3.4487184407668770E-039
  -3.4200000000000001E-002    -1.3798644695036126E-038
  -3.4150000000000000E-002    -2.3956957489091656E-038
  -3.4099999999999998E-002    -2.6331951601173830E-038
  -3.4049999999999997E-002    -1.7526110088549609E-038
  -3.4000000000000002E-002     5.8976349052082668E-039
  -3.3950000000000001E-002     4.2557835986058397E-038
  -3.3900000000000000E-002     8.3226542314979475E-038
  -3.3849999999999998E-002     1.1266685268510623E-037
  -3.3799999999999997E-002     1.1688210212863658E-037
  -3.3750000000000002E-002     8.8213222503226267E-038
  -3.3700000000000001E-002     1.4563654031754615E-038
  -3.3649999999999999E-002    -1.1435416843112640E-037
  -3.3599999999999998E-002    -2.7754118075465320E-037
  -3.3550000000000003E-002    -4.3033327285155824E-037
  -3.3500000000000002E-002    -5.1560045322865931E-037
  -3.3450000000000001E-002    -4.5153416716572902E-037
  -3.3399999999999999E-002    -1.9494019177200616E-037
  -3.3349999999999998E-002     2.3348416578740328E-037
  -3.3300000000000003E-002     7.4326219399477005E-037
  -3.3250000000000002E-002     1.1510394354184548E-036
  -3.3200000000000000E-002     1.2519324333967955E-036
  -3.3149999999999999E-002     8.9427644045815211E-037
  -3.3099999999999997E-002     8.2376221941603993E-038
  -3.3050000000000003E-002    -9.4966327282043910E-037
  -3.3000000000000002E-002    -1.7131581726414126E-036
  -3.2950000000000000E-002    -1.5450099356176036E-036
  -3.2899999999999999E-002     1.6375423475695293E-037
  -3.2850000000000004E-002     3.5672446274748067E-036
  -3.2800000000000003E-002     7.8507049550156621E-036
  -3.2750000000000001E-002     1.0803971830544577E-035
  -3.2700000000000000E-002     8.8391426930004930E-036
  -3.2649999999999998E-002    -2.1245966032173369E-036
  -3.2600000000000004E-002    -2.4623292995415248E-035
  -3.2550000000000003E-002    -5.6661095076226420E-035
  -3.2500000000000001E-002    -8.8743602648544097E-035
  -3.2450000000000000E-002    -1.0270039255211330E-034
  -3.2399999999999998E-002    -7.4419910114637895E-035
  -3.2350000000000004E-002     1.7988484910762237E-035
  -3.2300000000000002E-002     1.8102896087290458E-034
  -3.2250000000000001E-002     3.9105480270037893E-034
  -3.2199999999999999E-002     5.8437685288624072E-034
  -3.2149999999999998E-002     6.6025075461191023E-034
  -3.2100000000000004E-002     5.0309515477411682E-034
  -3.2050000000000002E-002     2.4621502909690325E-035
  -3.2000000000000001E-002    -7.8226699092436362E-034
  -3.1949999999999999E-002    -1.7950805534249118E-033
  -3.1899999999999998E-002    -2.7414052540450880E-033
  -3.1850000000000003E-002    -3.2268067474095619E-033
  -3.1800000000000002E-002    -2.8197939755473431E-033
  -3.1750000000000000E-002    -1.1847863766417367E-033
  -3.1699999999999999E-002     1.7643374352063429E-033
  -3.1649999999999998E-002     5.7294552933009972E-033
  -3.1600000000000003E-002     9.9527867279179803E-033
  -3.1550000000000002E-002     1.3233620582338682E-032
  -3.1500000000000000E-002     1.4059644135819462E-032
  -3.1449999999999999E-002     1.0869360013862193E-032
  -3.1399999999999997E-002     2.4595918516822748E-033
  -3.1350000000000003E-002    -1.1460990614167560E-032
  -3.1300000000000001E-002    -2.9619079424361398E-032
  -3.1250000000000000E-002    -4.8572251048365202E-032
  -3.1199999999999999E-002    -6.2443544342260609E-032
  -3.1150000000000001E-002    -6.3409806790535413E-032
  -3.1100000000000003E-002    -4.3354036761636239E-032
  -3.1050000000000001E-002     3.1605091470437336E-033
  -3.1000000000000000E-002     7.4990714452813818E-032
  -3.0949999999999998E-002     1.6074558173967155E-031
  -3.0900000000000000E-002     2.3718617580420797E-031
  -3.0850000000000002E-002     2.7169678674517956E-031
  -3.0800000000000001E-002     2.3007611402721417E-031
  -3.0750000000000000E-002     8.9091850720058549E-032
  -3.0699999999999998E-002    -1.4924760669737830E-031
  -3.0650000000000000E-002    -4.4699054233490441E-031
  -3.0600000000000002E-002    -7.2913502147926817E-031
  -3.0550000000000001E-002    -8.9634584607427187E-031
  -3.0499999999999999E-002    -8.5123861128072134E-031
  -3.0449999999999998E-002    -5.3201051861621677E-031
  -3.0400000000000000E-002     5.7756021912207489E-032
  -3.0350000000000002E-002     8.3536170083067239E-031
  -3.0300000000000001E-002     1.6489439411918389E-030
  -3.0249999999999999E-002     2.3091671791655941E-030
  -3.0200000000000001E-002     2.6301435022864190E-030
  -3.0150000000000000E-002     2.4615996382884085E-030
  -3.0100000000000002E-002     1.6992816006246780E-030
  -3.0050000000000000E-002     2.7690123379407282E-031
  -2.9999999999999999E-002    -1.8357417918858754E-030
  -2.9950000000000001E-002    -4.5907080079449365E-030
  -2.9899999999999999E-002    -7.7484563274394818E-030
  -2.9850000000000002E-002    -1.0707490845408547E-029
  -2.9800000000000000E-002    -1.2357666923214995E-029
  -2.9749999999999999E-002    -1.1099381160575188E-029
  -2.9700000000000001E-002    -5.1847699696912766E-030
  -2.9650000000000003E-002     6.5381707592533404E-030
  -2.9600000000000001E-002     2.3575415942349862E-029
  -2.9550000000000000E-002     4.2770581060687250E-029
  -2.9499999999999998E-002     5.7875251191626303E-029
  -2.9450000000000000E-002     6.0309214004211705E-029
  -2.9400000000000003E-002     4.1483902421651474E-029
  -2.9350000000000001E-002    -3.4831069496847126E-030
  -2.9300000000000000E-002    -7.1589305804009530E-029
  -2.9249999999999998E-002    -1.4893338662117189E-028
  -2.9200000000000000E-002    -2.1078651024290564E-028
  -2.9150000000000002E-002    -2.2622287286945652E-028
  -2.9100000000000001E-002    -1.6747534923219796E-028
  -2.9049999999999999E-002    -2.2232384754904951E-029
  -2.8999999999999998E-002     1.9489976565615687E-028
  -2.8950000000000000E-002     4.3672521023455027E-028
  -2.8900000000000002E-002     6.2808561553312965E-028
  -2.8850000000000001E-002     6.8281847595461903E-028
  -2.8799999999999999E-002     5.3090629548537981E-028
  -2.8749999999999998E-002     1.4897852589323184E-028
  -2.8700000000000000E-002    -4.1613508096470405E-028
  -2.8650000000000002E-002    -1.0415487571602777E-027
  -2.8600000000000000E-002    -1.5472989785453561E-027
  -2.8549999999999999E-002    -1.7399728766787953E-027
  -2.8500000000000001E-002    -1.4717370965331236E-027
  -2.8450000000000000E-002    -6.9787700788452703E-028
  -2.8400000000000002E-002     4.8694066867343228E-028
  -2.8350000000000000E-002     1.8495003727574110E-027
  -2.8299999999999999E-002     3.0612567501539913E-027
  -2.8250000000000001E-002     3.7751774812114124E-027
  -2.8200000000000003E-002     3.7150005208570418E-027
  -2.8150000000000001E-002     2.7501311359048168E-027
  -2.8100000000000000E-002     9.3392848181735653E-028
  -2.8049999999999999E-002    -1.5031215281665624E-027
  -2.8000000000000001E-002    -4.1961202870807852E-027
  -2.7950000000000003E-002    -6.7015978597335715E-027
  -2.7900000000000001E-002    -8.5420600333071453E-027
  -2.7850000000000000E-002    -9.2282638793943882E-027
  -2.7799999999999998E-002    -8.2726311367577236E-027
  -2.7750000000000000E-002    -5.2310193863925115E-027
  -2.7700000000000002E-002     1.8221654660379837E-028
  -2.7650000000000001E-002     7.8819114905944575E-027
  -2.7600000000000000E-002     1.7130529317319989E-026
  -2.7549999999999998E-002     2.6285220899401182E-026
  -2.7500000000000000E-002     3.2730881185502987E-026
  -2.7450000000000002E-002     3.3170154800859539E-026
  -2.7400000000000001E-002     2.4379484483331008E-026
  -2.7349999999999999E-002     4.3951896328471354E-027
  -2.7299999999999998E-002    -2.6108913546413348E-026
  -2.7250000000000000E-002    -6.2690198915478211E-026
  -2.7200000000000002E-002    -9.6803237249272749E-026
  -2.7150000000000001E-002    -1.1676065968604923E-025
  -2.7099999999999999E-002    -1.1022209916019140E-025
  -2.7049999999999998E-002    -6.7987101317832906E-026
  -2.7000000000000000E-002     1.1684233778463823E-026
  -2.6950000000000002E-002     1.1948308913907635E-025
  -2.6900000000000000E-002     2.3367892709073180E-025
  -2.6849999999999999E-002     3.2223979051243169E-025
  -2.6800000000000001E-002     3.4902223848111335E-025
  -2.6749999999999999E-002     2.8348068492573656E-025
  -2.6700000000000002E-002     1.1202854997247741E-025
  -2.6650000000000000E-002    -1.5195628262388544E-025
  -2.6599999999999999E-002    -4.6303708296603802E-025
  -2.6550000000000001E-002    -7.4669049749620291E-025
  -2.6500000000000003E-002    -9.1199941018077811E-025
  -2.6450000000000001E-002    -8.7325166947861603E-025
  -2.6400000000000000E-002    -5.7668077587085792E-025
  -2.6349999999999998E-002    -2.5907122901148613E-026
  -2.6300000000000000E-002     7.0185476893450401E-025
  -2.6250000000000002E-002     1.4562857399844404E-024
  -2.6200000000000001E-002     2.0357579762386987E-024
  -2.6150000000000000E-002     2.2300136216247000E-024
  -2.6099999999999998E-002     1.8770205259726564E-024
  -2.6050000000000000E-002     9.2134687317973260E-025
  -2.6000000000000002E-002    -5.4234420276344224E-025
  -2.5950000000000001E-002    -2.2568800348783725E-024
  -2.5899999999999999E-002    -3.8323926564276510E-024
  -2.5849999999999998E-002    -4.8199341356049354E-024
  -2.5800000000000000E-002    -4.8182195896052229E-024
  -2.5750000000000002E-002    -3.5910283370045669E-024
  -2.5700000000000001E-002    -1.1650985610368329E-024
  -2.5649999999999999E-002     2.1220390018877225E-024
  -2.5599999999999998E-002     5.6464254848261623E-024
  -2.5550000000000000E-002     8.6001414101014156E-024
  -2.5500000000000002E-002     1.0157313623519031E-023
  -2.5450000000000000E-002     9.6700051979270012E-024
  -2.5399999999999999E-002     6.8485021210793949E-024
  -2.5349999999999998E-002     1.8803202544799831E-024
  -2.5300000000000000E-002    -4.5453317576837501E-024
  -2.5250000000000002E-002    -1.1318849090937073E-023
  -2.5200000000000000E-002    -1.7083484675224910E-023
  -2.5149999999999999E-002    -2.0466539702008291E-023
  -2.5100000000000001E-002    -2.0325485903858016E-023
  -2.5049999999999999E-002    -1.5970189266878832E-023
  -2.5000000000000001E-002    -7.3360704858686345E-024
  -2.4950000000000000E-002     4.9019747474152184E-024
  -2.4899999999999999E-002     1.9278594746600206E-023
  -2.4850000000000001E-002     3.3561202165208085E-023
  -2.4800000000000003E-002     4.4878704141295383E-023
  -2.4750000000000001E-002     5.0007300451576340E-023
  -2.4700000000000000E-002     4.5867246454276225E-023
  -2.4649999999999998E-002     3.0249637729265586E-023
  -2.4600000000000000E-002     2.7124014060274085E-024
  -2.4550000000000002E-002    -3.4529691781717513E-023
  -2.4500000000000001E-002    -7.6011178894137270E-023
  -2.4450000000000000E-002    -1.1307240477734229E-022
  -2.4399999999999998E-002    -1.3487893724253745E-022
  -2.4350000000000000E-002    -1.3053484580679809E-022
  -2.4299999999999999E-002    -9.2104847922448732E-023
  -2.4250000000000001E-002    -1.7972137186917948E-023
  -2.4199999999999999E-002     8.4387586286104435E-023
  -2.4150000000000001E-002     1.9730150196204822E-022
  -2.4100000000000000E-002     2.9440925364609186E-022
  -2.4049999999999998E-002     3.4522912855143837E-022
  -2.4000000000000000E-002     3.2240701523589045E-022
  -2.3949999999999999E-002     2.1032086246320647E-022
  -2.3900000000000001E-002     1.2892013854907076E-023
  -2.3850000000000000E-002    -2.4192877037392578E-022
  -2.3800000000000002E-002    -5.0323513015658518E-022
  -2.3750000000000000E-002    -7.0497270916912055E-022
  -2.3699999999999999E-002    -7.7996461600297915E-022
  -2.3650000000000001E-002    -6.7769938638484889E-022
  -2.3599999999999999E-002    -3.8176195225530514E-022
  -2.3550000000000001E-002     7.8025357349840242E-023
  -2.3500000000000000E-002     6.2323911139931094E-022
  -2.3449999999999999E-002     1.1369226675652354E-021
  -2.3400000000000001E-002     1.4858044741798942E-021
  -2.3349999999999999E-002     1.5509968408998081E-021
  -2.3300000000000001E-002     1.2605709731056032E-021
  -2.3250000000000000E-002     6.1581996171261585E-022
  -2.3199999999999998E-002    -2.9655409438209732E-022
  -2.3150000000000000E-002    -1.3115144305048552E-021
  -2.3099999999999999E-002    -2.2129134309420463E-021
  -2.3050000000000001E-002    -2.7767229151738699E-021
  -2.3000000000000000E-002    -2.8216504794513914E-021
  -2.2950000000000002E-002    -2.2558505869094542E-021
  -2.2900000000000000E-002    -1.1084309235278384E-021
  -2.2849999999999999E-002     4.6272838901131114E-022
  -2.2800000000000001E-002     2.1902843373876180E-021
  -2.2749999999999999E-002     3.7412847154136129E-021
  -2.2700000000000001E-002     4.7774946624338442E-021
  -2.2650000000000000E-002     5.0205944031808206E-021
  -2.2599999999999999E-002     4.3098409982588618E-021
  -2.2550000000000001E-002     2.6417814523717158E-021
  -2.2499999999999999E-002     1.8552618038365161E-022
  -2.2450000000000001E-002    -2.7283021837678707E-021
  -2.2400000000000000E-002    -5.6429532855713684E-021
  -2.2349999999999998E-002    -8.0309524371894093E-021
  -2.2300000000000000E-002    -9.3645530810955856E-021
  -2.2249999999999999E-002    -9.1964239136013178E-021
  -2.2200000000000001E-002    -7.2453715163152164E-021
  -2.2150000000000000E-002    -3.4797891465469822E-021
  -2.2100000000000002E-002     1.8128286461094780E-021
  -2.2050000000000000E-002     7.9874835966635997E-021
  -2.1999999999999999E-002     1.4055934617967075E-020
  -2.1950000000000001E-002     1.8774827860165792E-020
  -2.1899999999999999E-002     2.0820845171979921E-020
  -2.1850000000000001E-002     1.9048438946930258E-020
  -2.1800000000000000E-002     1.2800286801329278E-020
  -2.1749999999999999E-002     2.2121997831306594E-021
  -2.1700000000000001E-002    -1.1568593413441885E-020
  -2.1649999999999999E-002    -2.6340423417539706E-020
  -2.1600000000000001E-002    -3.9051940410482089E-020
  -2.1550000000000000E-002    -4.6283611134136641E-020
  -2.1499999999999998E-002    -4.4967852210397386E-020
  -2.1450000000000000E-002    -3.3231705168019591E-020
  -2.1399999999999999E-002    -1.1176887433270585E-020
  -2.1350000000000001E-002     1.8625015717244325E-020
  -2.1299999999999999E-002     5.1129522632788289E-020
  -2.1250000000000002E-002     7.9438340216833800E-020
  -2.1200000000000000E-002     9.6037083876744507E-020
  -2.1149999999999999E-002     9.4481709919026855E-020
  -2.1100000000000001E-002     7.1204301420707930E-020
  -2.1049999999999999E-002     2.7001647740105752E-020
  -2.1000000000000001E-002    -3.2241794629028643E-020
  -2.0950000000000000E-002    -9.5938818606949008E-020
  -2.0899999999999998E-002    -1.5041485463057946E-019
  -2.0850000000000000E-002    -1.8158138438562477E-019
  -2.0799999999999999E-002    -1.7819159188294521E-019
  -2.0750000000000001E-002    -1.3497067906193547E-019
  -2.0700000000000000E-002    -5.4829374557372137E-020
  -2.0649999999999998E-002     5.0522755987949723E-020
  -2.0600000000000000E-002     1.6194558316506352E-019
  -2.0549999999999999E-002     2.5615892625175710E-019
  -2.0500000000000001E-002     3.1041497730780563E-019
  -2.0449999999999999E-002     3.0761149706380364E-019
  -2.0400000000000001E-002     2.4070140862558060E-019
  -2.0350000000000000E-002     1.1531576273055860E-019
  -2.0299999999999999E-002    -5.0144457376424982E-020
  -2.0250000000000001E-002    -2.2715151436704490E-019
  -2.0199999999999999E-002    -3.8201181856085077E-019
  -2.0150000000000001E-002    -4.8218687136924734E-019
  -2.0100000000000000E-002    -5.0269356129465501E-019
  -2.0049999999999998E-002    -4.3128570624648663E-019
  -2.0000000000000000E-002    -2.7140280224372656E-019
  -1.9949999999999999E-002    -4.2376744739787034E-020
  -1.9900000000000001E-002     2.2303712145232771E-019
  -1.9850000000000000E-002     4.8324768561421759E-019
  -1.9799999999999998E-002     6.9369663020738863E-019
  -1.9750000000000000E-002     8.1313985803673907E-019
  -1.9699999999999999E-002     8.0964434734932558E-019
  -1.9650000000000001E-002     6.6584486759061201E-019
  -1.9599999999999999E-002     3.8317097147134862E-019
  -1.9550000000000001E-002    -1.5266237889539249E-020
  -1.9500000000000000E-002    -4.8365758216299554E-019
  -1.9449999999999999E-002    -9.5518207613737139E-019
  -1.9400000000000001E-002    -1.3474049052088344E-018
  -1.9349999999999999E-002    -1.5721967536193035E-018
  -1.9300000000000001E-002    -1.5502433882883922E-018
  -1.9250000000000000E-002    -1.2289238669494928E-018
  -1.9199999999999998E-002    -6.0074062436954088E-019
  -1.9150000000000000E-002     2.8198286194116596E-019
  -1.9099999999999999E-002     1.3011700384641826E-018
  -1.9050000000000001E-002     2.2803557295359037E-018
  -1.9000000000000000E-002     3.0078552842835328E-018
  -1.8949999999999998E-002     3.2747979744564257E-018
  -1.8900000000000000E-002     2.9228341463857973E-018
  -1.8849999999999999E-002     1.8922758150070661E-018
  -1.8800000000000001E-002     2.5883743215393148E-019
  -1.8749999999999999E-002    -1.7529279157859533E-018
  -1.8700000000000001E-002    -3.7882660074808617E-018
  -1.8650000000000000E-002    -5.4155390359082470E-018
  -1.8599999999999998E-002    -6.2086185322845736E-018
  -1.8550000000000001E-002    -5.8443082136610916E-018
  -1.8499999999999999E-002    -4.1942760505714924E-018
  -1.8450000000000001E-002    -1.3885174930813477E-018
  -1.8400000000000000E-002     2.1696776590095798E-018
  -1.8349999999999998E-002     5.8488084493123023E-018
  -1.8300000000000000E-002     8.8931728516012744E-018
  -1.8249999999999999E-002     1.0570365686869049E-017
  -1.8200000000000001E-002     1.0334299097060704E-017
  -1.8149999999999999E-002     7.9684597378780579E-018
  -1.8100000000000002E-002     3.6743664212206442E-018
  -1.8050000000000000E-002    -1.9209977738839163E-018
  -1.7999999999999999E-002    -7.8490973381558143E-018
  -1.7950000000000001E-002    -1.2965476843778172E-017
  -1.7899999999999999E-002    -1.6168115511428687E-017
  -1.7850000000000001E-002    -1.6625452293921494E-017
  -1.7800000000000000E-002    -1.3966043245268112E-017
  -1.7749999999999998E-002    -8.3876064229207868E-018
  -1.7700000000000000E-002    -6.5885883901357323E-019
  -1.7649999999999999E-002     7.9902446002254343E-018
  -1.7600000000000001E-002     1.6070891704061208E-017
  -1.7550000000000000E-002     2.2092256260052004E-017
  -1.7499999999999998E-002     2.4824261411373872E-017
  -1.7450000000000000E-002     2.3518287975306012E-017
  -1.7399999999999999E-002     1.8048590392368481E-017
  -1.7350000000000001E-002     8.9546569084389562E-018
  -1.7299999999999999E-002    -2.6159757159363633E-018
  -1.7250000000000001E-002    -1.5049233696215102E-017
  -1.7200000000000000E-002    -2.6465988944036952E-017
  -1.7149999999999999E-002    -3.4957851567565939E-017
  -1.7100000000000001E-002    -3.8835613145208602E-017
  -1.7049999999999999E-002    -3.6873695226983061E-017
  -1.7000000000000001E-002    -2.8535880407441856E-017
  -1.6950000000000000E-002    -1.4163012619951125E-017
  -1.6899999999999998E-002     4.9069426100404985E-018
  -1.6850000000000000E-002     2.6327368421380718E-017
  -1.6799999999999999E-002     4.6886233146558135E-017
  -1.6750000000000001E-002     6.2841236847175915E-017
  -1.6700000000000000E-002     7.0455546203197453E-017
  -1.6649999999999998E-002     6.6695087919480535E-017
  -1.6600000000000000E-002     4.9990120939153985E-017
  -1.6549999999999999E-002     2.0908997109527373E-017
  -1.6500000000000001E-002    -1.7438860264322590E-017
  -1.6449999999999999E-002    -5.9444629577142541E-017
  -1.6400000000000001E-002    -9.7599782475841419E-017
  -1.6350000000000000E-002    -1.2365848259142809E-016
  -1.6299999999999999E-002    -1.3022848937077350E-016
  -1.6250000000000001E-002    -1.1251713357646897E-016
  -1.6199999999999999E-002    -6.9858601576308340E-017
  -1.6150000000000001E-002    -6.6225730984197531E-018
  -1.6100000000000000E-002     6.7826512950134481E-017
  -1.6049999999999998E-002     1.4028341465031784E-016
  -1.6000000000000000E-002     1.9589630232828999E-016
  -1.5949999999999999E-002     2.2106850183025545E-016
  -1.5900000000000001E-002     2.0651732744292359E-016
  -1.5850000000000000E-002     1.4982198652481323E-016
  -1.5799999999999998E-002     5.6821779863056364E-017
  -1.5750000000000000E-002    -5.8589009605779692E-017
  -1.5699999999999999E-002    -1.7640849751770412E-016
  -1.5650000000000001E-002    -2.7397433369124071E-016
  -1.5599999999999999E-002    -3.3030573480904125E-016
  -1.5550000000000001E-002    -3.3048446354638631E-016
  -1.5500000000000000E-002    -2.6914239775075554E-016
  -1.5449999999999998E-002    -1.5225929906280974E-016
  -1.5400000000000000E-002     3.2037828919177256E-018
  -1.5349999999999999E-002     1.7186588446411981E-016
  -1.5300000000000001E-002     3.2424577871477289E-016
  -1.5250000000000000E-002     4.3202588109637229E-016
  -1.5199999999999998E-002     4.7324300865381441E-016
  -1.5150000000000000E-002     4.3640860419614737E-016
  -1.5099999999999999E-002     3.2279589559207520E-016
  -1.5050000000000001E-002     1.4651925511959595E-016
  -1.4999999999999999E-002    -6.7529547466841925E-017
  -1.4949999999999998E-002    -2.8743175005799400E-016
  -1.4900000000000000E-002    -4.7897143516775256E-016
  -1.4849999999999999E-002    -6.1056531023974906E-016
  -1.4800000000000001E-002    -6.5770806589197345E-016
  -1.4749999999999999E-002    -6.0645197047985646E-016
  -1.4700000000000001E-002    -4.5566593084505118E-016
  -1.4650000000000000E-002    -2.1798341270410752E-016
  -1.4599999999999998E-002     8.0580882454015384E-017
  -1.4550000000000000E-002     4.0239792114702029E-016
  -1.4499999999999999E-002     7.0148407567106560E-016
  -1.4450000000000001E-002     9.2836820260451822E-016
  -1.4400000000000000E-002     1.0365328762600923E-015
  -1.4349999999999998E-002     9.9006463389060609E-016
  -1.4300000000000000E-002     7.7165958099290735E-016
  -1.4249999999999999E-002     3.8960926275215186E-016
  -1.4200000000000001E-002    -1.1798587998104300E-016
  -1.4149999999999999E-002    -6.8355428667027556E-016
  -1.4099999999999998E-002    -1.2162555267903543E-015
  -1.4050000000000000E-002    -1.6143689038291778E-015
  -1.3999999999999999E-002    -1.7827927653200663E-015
  -1.3950000000000001E-002    -1.6530574587790892E-015
  -1.3899999999999999E-002    -1.2019995667614691E-015
  -1.3850000000000001E-002    -4.6465873061094947E-016
  -1.3800000000000000E-002     4.6264248559785589E-016
  -1.3749999999999998E-002     1.4315981087193263E-015
  -1.3700000000000000E-002     2.2637580558861329E-015
  -1.3649999999999999E-002     2.7821897137861793E-015
  -1.3600000000000001E-002     2.8475447241626017E-015
  -1.3550000000000000E-002     2.3912776650592869E-015
  -1.3499999999999998E-002     1.4383869828683005E-015
  -1.3450000000000000E-002     1.1342543234434037E-016
  -1.3399999999999999E-002    -1.3734660208987040E-015
  -1.3350000000000001E-002    -2.7596397860219126E-015
  -1.3299999999999999E-002    -3.7769416708442207E-015
  -1.3249999999999998E-002    -4.2039010554494860E-015
  -1.3200000000000000E-002    -3.9125390911859842E-015
  -1.3149999999999998E-002    -2.8996637990106528E-015
  -1.3100000000000001E-002    -1.2952777522538711E-015
  -1.3049999999999999E-002     6.5473158351521705E-016
  -1.3000000000000001E-002     2.6290565516175609E-015
  -1.2950000000000000E-002     4.2870925047740501E-015
  -1.2899999999999998E-002     5.3298325268509600E-015
  -1.2850000000000000E-002     5.5536697933671765E-015
  -1.2799999999999999E-002     4.8868472675408395E-015