  -4.0000000000000001E-002     0.0000000000000000     
  -3.9949999999999999E-002     0.0000000000000000     
  -3.9899999999999998E-002     0.0000000000000000     
  -3.9850000000000003E-002     0.0000000000000000     
  -3.9800000000000002E-002     0.0000000000000000     
  -3.9750000000000001E-002     0.0000000000000000     
  -3.9699999999999999E-002     0.0000000000000000     
  -3.9649999999999998E-002     0.0000000000000000     
  -3.9600000000000003E-002     0.0000000000000000     
  -3.9550000000000002E-002     0.0000000000000000     
  -3.9500000000000000E-002     0.0000000000000000     
  -3.9449999999999999E-002     0.0000000000000000     
  -3.9399999999999998E-002     0.0000000000000000     
  -3.9350000000000003E-002     0.0000000000000000     
  -3.9300000000000002E-002     0.0000000000000000     
  -3.9250000000000000E-002     0.0000000000000000     
  -3.9199999999999999E-002     0.0000000000000000     
  -3.9150000000000004E-002     0.0000000000000000     
  -3.9100000000000003E-002     0.0000000000000000     
  -3.9050000000000001E-002     0.0000000000000000     
  -3.9000000000000000E-002     0.0000000000000000     
  -3.8949999999999999E-002     0.0000000000000000     
  -3.8900000000000004E-002     0.0000000000000000     
  -3.8850000000000003E-002     0.0000000000000000     
  -3.8800000000000001E-002     0.0000000000000000     
  -3.8750000000000000E-002     0.0000000000000000     
  -3.8699999999999998E-002     0.0000000000000000     
  -3.8650000000000004E-002     0.0000000000000000     
  -3.8600000000000002E-002     0.0000000000000000     
  -3.8550000000000001E-002     0.0000000000000000     
  -3.8500000000000000E-002     8.7305307380866705E-040
  -3.8449999999999998E-002     8.9563390866130976E-039
  -3.8400000000000004E-002     3.1028103216653020E-038
  -3.8350000000000002E-002     7.7268297160822935E-038
  -3.8300000000000001E-002     1.4312026862654794E-037
  -3.8249999999999999E-002     1.6051480733910477E-037
  -3.8199999999999998E-002     2.5128531917810269E-039
  -3.8150000000000003E-002    -7.6868836664174848E-037
  -3.8100000000000002E-002    -2.9294333474920139E-036
  -3.8050000000000000E-002    -7.5969534772963023E-036
  -3.7999999999999999E-002    -1.5687873811005112E-035
  -3.7949999999999998E-002    -2.6071725282516664E-035
  -3.7900000000000003E-002    -3.1073521962632928E-035
  -3.7850000000000002E-002    -7.9960169075542111E-036
  -3.7800000000000000E-002     9.2455578816332129E-035
  -3.7749999999999999E-002     3.5239742793432373E-034
  -3.7699999999999997E-002     8.6339371457116319E-034
  -3.7650000000000003E-002     1.6277255954957027E-033
  -3.7600000000000001E-002     2.3288470261395436E-033
  -3.7550000000000000E-002     1.9594319259621974E-033
  -3.7499999999999999E-002    -1.5465434305622719E-033
  -3.7449999999999997E-002    -1.1221231278713614E-032
  -3.7400000000000003E-002    -2.9669079238848671E-032
  -3.7350000000000001E-002    -5.5385312771461753E-032
  -3.7300000000000000E-002    -7.6489763054957560E-032
  -3.7249999999999998E-002    -6.3787397279643162E-032
  -3.7200000000000004E-002     3.1041228777746826E-032
  -3.7150000000000002E-002     2.6206348316381019E-031
  -3.7100000000000001E-002     6.4950900719058595E-031
  -3.7050000000000000E-002     1.1108921111971654E-030
  -3.6999999999999998E-002     1.3814685457912619E-030
  -3.6950000000000004E-002     9.7669030465053212E-031
  -3.6900000000000002E-002    -7.1850202792535214E-031
  -3.6850000000000001E-002    -4.1479220164973954E-030
  -3.6799999999999999E-002    -9.0515396944500367E-030
  -3.6749999999999998E-002    -1.3839610608058570E-029
  -3.6700000000000003E-002    -1.5226358945852382E-029
  -3.6650000000000002E-002    -8.6451468613781112E-030
  -3.6600000000000001E-002     1.0081331475303358E-029
  -3.6549999999999999E-002     4.1771143409379950E-029
  -3.6499999999999998E-002     8.0400675531352777E-029
  -3.6450000000000003E-002     1.1087626488560871E-028
  -3.6400000000000002E-002     1.1038643148934450E-028
  -3.6350000000000000E-002     5.5102392586727379E-029
  -3.6299999999999999E-002    -6.8096377128583095E-029
  -3.6249999999999998E-002    -2.4842849711162957E-028
  -3.6200000000000003E-002    -4.4302155979644185E-028
  -3.6150000000000002E-002    -5.8062075733299956E-028
  -3.6100000000000000E-002    -5.8028804623512518E-028
  -3.6049999999999999E-002    -3.8049132577486268E-028
  -3.6000000000000004E-002     3.4129274067274342E-029
  -3.5950000000000003E-002     6.2366788971664620E-028
  -3.5900000000000001E-002     1.3088673602613059E-027
  -3.5850000000000000E-002     2.0010466055698797E-027
  -3.5799999999999998E-002     2.6157793884721125E-027
  -3.5750000000000004E-002     3.0367981522040572E-027
  -3.5700000000000003E-002     3.0248566356043707E-027
  -3.5650000000000001E-002     2.1257184389326668E-027
  -3.5600000000000000E-002    -3.0606907031656910E-028
  -3.5549999999999998E-002    -4.8390316749358676E-027
  -3.5500000000000004E-002    -1.1416132491683573E-026
  -3.5450000000000002E-002    -1.8696184844974176E-026
  -3.5400000000000001E-002    -2.3700672036653777E-026
  -3.5349999999999999E-002    -2.2298371583656528E-026
  -3.5299999999999998E-002    -1.0857904779491801E-026
  -3.5250000000000004E-002     1.1210724639186085E-026
  -3.5200000000000002E-002     3.9160268611782350E-026
  -3.5150000000000001E-002     6.2631385815101974E-026
  -3.5099999999999999E-002     6.8970340216791395E-026
  -3.5049999999999998E-002     5.0216431196809080E-026
  -3.5000000000000003E-002     1.1240095798608492E-026
  -3.4950000000000002E-002    -2.6068892248589858E-026
  -3.4900000000000000E-002    -2.8373758531039471E-026
  -3.4849999999999999E-002     3.0897491718253327E-026
  -3.4799999999999998E-002     1.4478140171102192E-025
  -3.4750000000000003E-002     2.5037402659301222E-025
  -3.4700000000000002E-002     2.2965683784295563E-025
  -3.4650000000000000E-002    -5.0376944797541489E-026
  -3.4599999999999999E-002    -6.5739226456254180E-025
  -3.4549999999999997E-002    -1.4975748887737227E-024
  -3.4500000000000003E-002    -2.2534842966666737E-024
  -3.4450000000000001E-002    -2.4153778148428742E-024
  -3.4400000000000000E-002    -1.4446334505010891E-024
  -3.4349999999999999E-002     9.4757233291511260E-025
  -3.4299999999999997E-002     4.4985648197476993E-024
  -3.4250000000000003E-002     8.2228612755419326E-024
  -3.4200000000000001E-002     1.0529099841325698E-023
  -3.4150000000000000E-002     9.7010360274222226E-024
  -3.4099999999999998E-002     4.6566649576798174E-024
  -3.4049999999999997E-002    -4.2864257591882432E-024
  -3.4000000000000002E-002    -1.5027472093757709E-023
  -3.3950000000000001E-002    -2.4020755105201951E-023
  -3.3900000000000000E-002    -2.7423178091609685E-023
  -3.3849999999999998E-002    -2.2741069103861206E-023
  -3.3799999999999997E-002    -1.0288567772233199E-023
  -3.3750000000000002E-002     6.3675904151274447E-024
  -3.3700000000000001E-002     2.1530433242703349E-023
  -3.3649999999999999E-002     2.9932339104252771E-023
  -3.3599999999999998E-002     2.9737933657194687E-023
  -3.3550000000000003E-002     2.4375537805018217E-023
  -3.3500000000000002E-002     2.1654143066585668E-023
  -3.3450000000000001E-002     2.9618403716629268E-023
  -3.3399999999999999E-002     5.0310543453527290E-023
  -3.3349999999999998E-002     7.4358543712921677E-023
  -3.3300000000000003E-002     8.0121452783486854E-023
  -3.3250000000000002E-002     4.0164921724481258E-023
  -3.3200000000000000E-002    -6.5065420733491148E-023
  -3.3149999999999999E-002    -2.3055413446701061E-022
  -3.3099999999999997E-002    -4.1466589649362234E-022
  -3.3050000000000003E-002    -5.4025364683408533E-022
  -3.3000000000000002E-002    -5.1427130136495831E-022
  -3.2950000000000000E-002    -2.6417979611934677E-022
  -3.2899999999999999E-002     2.1936694788928697E-022
  -3.2850000000000004E-002     8.5091422520208049E-022
  -3.2800000000000003E-002     1.4480075718030328E-021
  -3.2750000000000001E-002     1.7695686723396165E-021
  -3.2700000000000000E-002     1.5916247756184148E-021
  -3.2649999999999998E-002     8.0011803773459244E-022
  -3.2600000000000004E-002    -5.3225510235282437E-022
  -3.2550000000000003E-002    -2.1199872284393802E-021
  -3.2500000000000001E-002    -3.5117471783731473E-021
  -3.2450000000000000E-002    -4.2081886364757958E-021
  -3.2399999999999998E-002    -3.8201033986120298E-021
  -3.2350000000000004E-002    -2.2157951141168278E-021
  -3.2300000000000002E-002     3.9646433704586010E-022
  -3.2250000000000001E-002     3.4866373972050709E-021
  -3.2199999999999999E-002     6.3228162021309348E-021
  -3.2149999999999998E-002     8.1560457179878026E-021
  -3.2100000000000004E-002     8.4086111137196532E-021
  -3.2050000000000002E-002     6.8049075996195280E-021
  -3.2000000000000001E-002     3.4113997805283014E-021
  -3.1949999999999999E-002    -1.4050815427835894E-021
  -3.1899999999999998E-002    -7.0540498809283025E-021
  -3.1850000000000003E-002    -1.2775529264494996E-020
  -3.1800000000000002E-002    -1.7640137494424788E-020
  -3.1750000000000000E-002    -2.0518628170771678E-020
  -3.1699999999999999E-002    -2.0102073808954693E-020
  -3.1649999999999998E-002    -1.5078607696264888E-020
  -3.1600000000000003E-002    -4.5362372000832343E-021
  -3.1550000000000002E-002     1.1440241825755110E-020
  -3.1500000000000000E-002     3.1147442225454608E-020
  -3.1449999999999999E-002     5.0900762585874836E-020
  -3.1399999999999997E-002     6.5240827948295169E-020
  -3.1350000000000003E-002     6.7909947496000672E-020
  -3.1300000000000001E-002     5.3558369722222170E-020
  -3.1250000000000000E-002     1.9828843436341903E-020
  -3.1199999999999999E-002    -3.0801621248735321E-020
  -3.1150000000000001E-002    -9.0149986613406243E-020
  -3.1100000000000003E-002    -1.4500935666978866E-019
  -3.1050000000000001E-002    -1.7957442764395047E-019
  -3.1000000000000000E-002    -1.7924935856965923E-019
  -3.0949999999999998E-002    -1.3494909880476281E-019
  -3.0900000000000000E-002    -4.6695208836127395E-020
  -3.0850000000000002E-002     7.4640403282228562E-020
  -3.0800000000000001E-002     2.0815481628644913E-019
  -3.0750000000000000E-002     3.2630885292100859E-019
  -3.0699999999999998E-002     4.0018370419384642E-019
  -3.0650000000000000E-002     4.0538932205496658E-019
  -3.0600000000000002E-002     3.2732415053713287E-019
  -3.0550000000000001E-002     1.6481628562535854E-019
  -3.0499999999999999E-002    -6.8247964657324511E-020
  -3.0449999999999998E-002    -3.4316962900107731E-019
  -3.0400000000000000E-002    -6.1820638019805572E-019
  -3.0350000000000002E-002    -8.4173808862972550E-019
  -3.0300000000000001E-002    -9.5722046351646716E-019
  -3.0249999999999999E-002    -9.1075101689837419E-019
  -3.0200000000000001E-002    -6.6194683871751551E-019
  -3.0150000000000000E-002    -1.9782441103464467E-019
  -3.0100000000000002E-002     4.5248104847265661E-019
  -3.0050000000000000E-002     1.2064700201378992E-018
  -2.9999999999999999E-002     1.9263271145757905E-018
  -2.9950000000000001E-002     2.4318890573086240E-018
  -2.9899999999999999E-002     2.5315445560015945E-018
  -2.9850000000000002E-002     2.0691116922895054E-018
  -2.9800000000000000E-002     9.7844249988407691E-019
  -2.9749999999999999E-002    -6.6818814586190105E-019
  -2.9700000000000001E-002    -2.6346823872435013E-018
  -2.9650000000000003E-002    -4.5335741409720930E-018
  -2.9600000000000001E-002    -5.8839100910665402E-018
  -2.9550000000000000E-002    -6.2105066987407417E-018
  -2.9499999999999998E-002    -5.1673486369210809E-018
  -2.9450000000000000E-002    -2.6569807103722815E-018
  -2.9400000000000003E-002     1.0870706704930846E-018
  -2.9350000000000001E-002     5.4840472759333815E-018
  -2.9300000000000000E-002     9.6725040786970747E-018
  -2.9249999999999998E-002     1.2657364211083861E-017
  -2.9200000000000000E-002     1.3514450937230157E-017
  -2.9150000000000002E-002     1.1612417148666684E-017
  -2.9100000000000001E-002     6.8033687784726199E-018
  -2.9049999999999999E-002    -4.6413633631859634E-019
  -2.8999999999999998E-002    -9.1427922011496867E-018
  -2.8950000000000000E-002    -1.7707254921554535E-017
  -2.8900000000000002E-002    -2.4386271519814779E-017
  -2.8850000000000001E-002    -2.7473205014246725E-017
  -2.8799999999999999E-002    -2.5666129214148365E-017
  -2.8749999999999998E-002    -1.8381145107161040E-017
  -2.8700000000000000E-002    -5.9826383289702115E-018
  -2.8650000000000002E-002     1.0118702052332324E-017
  -2.8600000000000000E-002     2.7536399547334758E-017
  -2.8549999999999999E-002     4.3165146713651721E-017
  -2.8500000000000001E-002     5.3617661024171900E-017
  -2.8450000000000000E-002     5.5804420279346673E-017
  -2.8400000000000002E-002     4.7584664417816534E-017
  -2.8350000000000000E-002     2.8383544604083563E-017
  -2.8299999999999999E-002    -3.5360836297388151E-019
  -2.8250000000000001E-002    -3.5002443046010599E-017
  -2.8200000000000003E-002    -7.0003074822984535E-017
  -2.8150000000000001E-002    -9.8553553637155045E-017
  -2.8100000000000000E-002    -1.1371341815503066E-016
  -2.8049999999999999E-002    -1.0977585157475070E-016
  -2.8000000000000001E-002    -8.3674237619750725E-017
  -2.7950000000000003E-002    -3.6130652003963807E-017
  -2.7900000000000001E-002     2.7747831115973226E-017
  -2.7850000000000000E-002     9.8654417959971510E-017
  -2.7799999999999998E-002     1.6415031958000164E-016
  -2.7750000000000000E-002     2.1054742110854680E-016
  -2.7700000000000002E-002     2.2536005981656851E-016
  -2.7650000000000001E-002     1.9993082692413916E-016
  -2.7600000000000000E-002     1.3174895681533540E-016
  -2.7549999999999998E-002     2.5976303638110094E-017
  -2.7500000000000000E-002    -1.0421874486834086E-016
  -2.7450000000000002E-002    -2.3875432492855385E-016
  -2.7400000000000001E-002    -3.5317262695974299E-016
  -2.7349999999999999E-002    -4.2239322531064628E-016
  -2.7299999999999998E-002    -4.2521751732537685E-016
  -2.7250000000000000E-002    -3.4892052117784512E-016
  -2.7200000000000002E-002    -1.9313770461486966E-016
  -2.7150000000000001E-002     2.7773008904809719E-017
  -2.7099999999999999E-002     2.8461641207639090E-016
  -2.7049999999999998E-002     5.3596644148924530E-016
  -2.7000000000000000E-002     7.3357611756254611E-016
  -2.6950000000000002E-002     8.3016562202749543E-016
  -2.6900000000000000E-002     7.8859927980122477E-016
  -2.6849999999999999E-002     5.9096157995193091E-016
  -2.6800000000000001E-002     2.4571503241592013E-016
  -2.6749999999999999E-002    -2.0888884430828883E-016
  -2.6700000000000002E-002    -7.0660018562494197E-016
  -2.6650000000000000E-002    -1.1608378368569830E-015
  -2.6599999999999999E-002    -1.4778127562511876E-015
  -2.6550000000000001E-002    -1.5734624565281558E-015
  -2.6500000000000003E-002    -1.3914493195645980E-015
  -2.6450000000000001E-002    -9.1876812667744101E-016
  -2.6400000000000000E-002    -1.9543416531425629E-016
  -2.6349999999999998E-002     6.8462380022323558E-016
  -2.6300000000000000E-002     1.5829810919412504E-015
  -2.6250000000000002E-002     2.3361050007761825E-015
  -2.6200000000000001E-002     2.7823522823255347E-015
  -2.6150000000000000E-002     2.7924271603662634E-015
  -2.6099999999999998E-002     2.2979875682247046E-015
  -2.6050000000000000E-002     1.3128160552033445E-015
  -2.6000000000000002E-002    -5.8272843043012344E-017
  -2.5950000000000001E-002    -1.6258977625903244E-015
  -2.5899999999999999E-002    -3.1386410462103973E-015
  -2.5849999999999998E-002    -4.3195457852048606E-015
  -2.5800000000000000E-002    -4.9118277421502427E-015
  -2.5750000000000002E-002    -4.7269248712781304E-015
  -2.5700000000000001E-002    -3.6868228169449962E-015
  -2.5649999999999999E-002    -1.8526209944913665E-015
  -2.5599999999999998E-002     5.6733117354153609E-016
  -2.5550000000000000E-002     3.2337869449235702E-015
  -2.5500000000000002E-002     5.7178630268423141E-015
  -2.5450000000000000E-002     7.5633952216840341E-015
  -2.5399999999999999E-002     8.3624738316430139E-015
  -2.5349999999999998E-002     7.8327970211936991E-015
  -2.5300000000000000E-002     5.8836228765421389E-015
  -2.5250000000000002E-002     2.6572291609779841E-015
  -2.5200000000000000E-002    -1.4646675155600572E-015
  -2.5149999999999999E-002    -5.8953298968917653E-015
  -2.5100000000000001E-002    -9.9175420199072405E-015
  -2.5049999999999999E-002    -1.2790367757532353E-014
  -2.5000000000000001E-002    -1.3873497548210957E-014
  -2.4950000000000000E-002    -1.2749697868147049E-014
  -2.4899999999999999E-002    -9.3239127793137517E-015
  -2.4850000000000001E-002    -3.8792453854152825E-015
  -2.4800000000000003E-002     2.9246763850239986E-015
  -2.4750000000000001E-002     1.0117137938018009E-014
  -2.4700000000000000E-002     1.6541678462744430E-014
  -2.4649999999999998E-002     2.1026981935321042E-014
  -2.4600000000000000E-002     2.2580087212629827E-014
  -2.4550000000000002E-002     2.0572670118300074E-014
  -2.4500000000000001E-002     1.4889217113997604E-014
  -2.4450000000000000E-002     6.0087395142934094E-015
  -2.4399999999999998E-002    -5.0009539976160902E-015
  -2.4350000000000000E-002    -1.6585938220780124E-014
  -2.4299999999999999E-002    -2.6901154628328959E-014
  -2.4250000000000001E-002    -3.4077759031279305E-014
  -2.4199999999999999E-002    -3.6528759002965813E-014
  -2.4150000000000001E-002    -3.3247975277512761E-014
  -2.4100000000000000E-002    -2.4052148506437266E-014
  -2.4049999999999998E-002    -9.7181581557482279E-015
  -2.4000000000000000E-002     8.0222251355759295E-015
  -2.3949999999999999E-002     2.6648936621650093E-014
  -2.3900000000000001E-002     4.3175560007525420E-014
  -2.3850000000000000E-002     5.4593004694041048E-014
  -2.3800000000000002E-002     5.8374924391643595E-014
  -2.3750000000000000E-002     5.2965698402208020E-014
  -2.3699999999999999E-002     3.8163793205192393E-014
  -2.3650000000000001E-002     1.5320286454653978E-014
  -2.3599999999999999E-002    -1.2705242773678667E-014
  -2.3550000000000001E-002    -4.1853256520373889E-014
  -2.3500000000000000E-002    -6.7414701633419429E-014
  -2.3449999999999999E-002    -8.4755139323036352E-014
  -2.3400000000000001E-002    -9.0105935746674353E-014
  -2.3349999999999999E-002    -8.1292738569196287E-014
  -2.3300000000000001E-002    -5.8268843304297731E-014
  -2.3250000000000000E-002    -2.3342119574724406E-014
  -2.3199999999999998E-002     1.8973748686985894E-014
  -2.3150000000000000E-002     6.2493763931187674E-014
  -2.3099999999999999E-002     1.0022787549223502E-013
  -2.3050000000000001E-002     1.2546255197787660E-013
  -2.3000000000000000E-002     1.3289525158940438E-013
  -2.2950000000000002E-002     1.1963696254514793E-013
  -2.2900000000000000E-002     8.5904449502630203E-014
  -2.2849999999999999E-002     3.5261461375007537E-014
  -2.2800000000000001E-002    -2.5668249207540506E-014
  -2.2749999999999999E-002    -8.8011842599690247E-014
  -2.2700000000000001E-002    -1.4189176368135116E-013
  -2.2650000000000000E-002    -1.7793407949833758E-013
  -2.2599999999999999E-002    -1.8881716985415018E-013
  -2.2550000000000001E-002    -1.7061292059611414E-013
  -2.2499999999999999E-002    -1.2368959466358324E-013
  -2.2450000000000001E-002    -5.3000637540245326E-014
  -2.2400000000000000E-002     3.2330428799573988E-014
  -2.2349999999999998E-002     1.2011124412782574E-013
  -2.2300000000000000E-002     1.9674225104441964E-013
  -2.2249999999999999E-002     2.4921686431794652E-013
  -2.2200000000000001E-002     2.6717500598502293E-013
  -2.2150000000000000E-002     2.4470052424583490E-013
  -2.2100000000000002E-002     1.8157620629671364E-013
  -2.2050000000000000E-002     8.3776089425624399E-014
  -2.1999999999999999E-002    -3.6925697280028063E-014
  -2.1950000000000001E-002    -1.6422866322290257E-013
  -2.1899999999999999E-002    -2.7933790171228315E-013
  -2.1850000000000001E-002    -3.6351676109417403E-013
  -2.1800000000000000E-002    -4.0083766777927266E-013
  -2.1749999999999999E-002    -3.8076055677108481E-013
  -2.1700000000000001E-002    -3.0016453260488084E-013
  -2.1649999999999999E-002    -1.6450267896594480E-013
  -2.1600000000000001E-002     1.2160691848504448E-014
  -2.1550000000000000E-002     2.0834055773684546E-013
  -2.1499999999999998E-002     3.9750251908682883E-013
  -2.1450000000000000E-002     5.5139490546371267E-013
  -2.1399999999999999E-002     6.4395947782514179E-013
  -2.1350000000000001E-002     6.5530795916632763E-013
  -2.1299999999999999E-002     5.7518172366580227E-013
  -2.1250000000000002E-002     4.0532082959901698E-013
  -2.1200000000000000E-002     1.6027064591753536E-013
  -2.1149999999999999E-002    -1.3365160297219328E-013
  -2.1100000000000001E-002    -4.4124258463386414E-013
  -2.1049999999999999E-002    -7.2286473815472307E-013
  -2.1000000000000001E-002    -9.3988864389268641E-013
  -2.0950000000000000E-002    -1.0603341827714852E-012
  -2.0899999999999998E-002    -1.0638152983541185E-012
  -2.0850000000000000E-002    -9.4494123386610441E-013
  -2.0799999999999999E-002    -7.1452928579022755E-013
  -2.0750000000000001E-002    -3.9831890408502624E-013
  -2.0700000000000000E-002    -3.3296111003658996E-014
  -2.0649999999999998E-002     3.3784388964602834E-013
  -2.0600000000000000E-002     6.7320356817833322E-013
  -2.0549999999999999E-002     9.3806130223452511E-013
  -2.0500000000000001E-002     1.1099929902328221E-012
  -2.0449999999999999E-002     1.1817922148118547E-012
  -2.0400000000000001E-002     1.1616065915700562E-012
  -2.0350000000000000E-002     1.0701918912876832E-012
  -2.0299999999999999E-002     9.3571084782867305E-013
  -2.0250000000000001E-002     7.8697512528426817E-013
  -2.0199999999999999E-002     6.4634913793860795E-013
  -2.0150000000000001E-002     5.2366193318454999E-013
  -2.0100000000000000E-002     4.1236328408850718E-013
  -2.0049999999999998E-002     2.8883191821290229E-013
  -2.0000000000000000E-002     1.1525888450575867E-013
  -1.9949999999999999E-002    -1.5404387058641611E-013
  -1.9900000000000001E-002    -5.6362096106650420E-013
  -1.9850000000000000E-002    -1.1462965099929396E-012
  -1.9799999999999998E-002    -1.9124758427317937E-012
  -1.9750000000000000E-002    -2.8408358112646468E-012
  -1.9699999999999999E-002    -3.8717380488478880E-012
  -1.9650000000000001E-002    -4.9043900015031664E-012
  -1.9599999999999999E-002    -5.7982871960858156E-012
  -1.9550000000000001E-002    -6.3789884865235630E-012
  -1.9500000000000000E-002    -6.4477638062440142E-012
  -1.9449999999999999E-002    -5.7942681742719610E-012
  -1.9400000000000001E-002    -4.2110574060183987E-012
  -1.9349999999999999E-002    -1.5086169381130636E-012
  -1.9300000000000001E-002     2.4704790705905409E-012
  -1.9250000000000000E-002     7.8396148960771440E-012
  -1.9199999999999998E-002     1.4659552888126011E-011
  -1.9150000000000000E-002     2.2934100727731899E-011
  -1.9099999999999999E-002     3.2610650898449969E-011
  -1.9050000000000001E-002     4.3585645545349697E-011
  -1.9000000000000000E-002     5.5714671784680999E-011
  -1.8949999999999998E-002     6.8826217503121625E-011
  -1.8900000000000000E-002     8.2737711859577730E-011
  -1.8849999999999999E-002     9.7271978158457027E-011
  -1.8800000000000001E-002     1.1227210717187885E-010
  -1.8749999999999999E-002     1.2761275388573907E-010
  -1.8700000000000001E-002     1.4320636128689852E-010
  -1.8650000000000000E-002     1.5900338751061615E-010
  -1.8599999999999998E-002     1.7498669440152789E-010
  -1.8550000000000001E-002     1.9116095414770660E-010
  -1.8499999999999999E-002     2.0753929923131333E-010
  -1.8450000000000001E-002     2.2412948363350281E-010
  -1.8400000000000000E-002     2.4092234072147077E-010
  -1.8349999999999998E-002     2.5788493319119227E-010
  -1.8300000000000000E-002     2.7495985729240691E-010
  -1.8249999999999999E-002     2.9207085490755387E-010
  -1.8200000000000001E-002     3.0913408312437545E-010
  -1.8149999999999999E-002     3.2607289545394727E-010
  -1.8100000000000002E-002     3.4283317025708029E-010
  -1.8050000000000000E-002     3.5939648868145394E-010
  -1.7999999999999999E-002     3.7578802725936422E-010
  -1.7950000000000001E-002     3.9207821941656686E-010
  -1.7899999999999999E-002     4.0837692516206044E-010
  -1.7850000000000001E-002     4.2482159178304865E-010
  -1.7800000000000000E-002     4.4156140331028531E-010
  -1.7749999999999998E-002     4.5873989470478798E-010
  -1.7700000000000000E-002     4.7647942774704346E-010
  -1.7649999999999999E-002     4.9486998664462262E-010
  -1.7600000000000001E-002     5.1396365555013011E-010
  -1.7550000000000000E-002     5.3377595915044621E-010
  -1.7499999999999998E-002     5.5429240282549191E-010
  -1.7450000000000000E-002     5.7547927230645295E-010
  -1.7399999999999999E-002     5.9729577604686975E-010
  -1.7350000000000001E-002     6.1970520141542126E-010
  -1.7299999999999999E-002     6.4268285515207808E-010
  -1.7250000000000001E-002     6.6622038848920929E-010
  -1.7200000000000000E-002     6.9032584300843243E-010
  -1.7149999999999999E-002     7.1501953273779914E-010
  -1.7100000000000001E-002     7.4032843563470419E-010
  -1.7049999999999999E-002     7.6627965273090025E-010
  -1.7000000000000001E-002     7.9289526584286015E-010
  -1.6950000000000000E-002     8.2018897666748891E-010
  -1.6899999999999998E-002     8.4816588591309464E-010
  -1.6850000000000000E-002     8.7682413778448246E-010
  -1.6799999999999999E-002     9.0615875776169472E-010
  -1.6750000000000001E-002     9.3616586709975391E-010
  -1.6700000000000000E-002     9.6684670999938897E-010
  -1.6649999999999998E-002     9.9821062396593883E-010
  -1.6600000000000000E-002     1.0302774061595829E-009
  -1.6549999999999999E-002     1.0630775942734552E-009
  -1.6500000000000001E-002     1.0966538380813575E-009
  -1.6449999999999999E-002     1.1310610812558275E-009
  -1.6400000000000001E-002     1.1663671559614203E-009
  -1.6350000000000000E-002     1.2026527355812115E-009
  -1.6299999999999999E-002     1.2400121101797036E-009
  -1.6250000000000001E-002     1.2785497126284653E-009
  -1.6199999999999999E-002     1.3183761698915304E-009
  -1.6150000000000001E-002     1.3596005758253243E-009
  -1.6100000000000000E-002     1.4023201009474190E-009
  -1.6049999999999998E-002     1.4466085952793503E-009
  -1.6000000000000000E-002     1.4925064544100716E-009
  -1.5949999999999999E-002     1.5400129122943474E-009
  -1.5900000000000001E-002     1.5890850079977984E-009
  -1.5850000000000000E-002     1.6396418289221750E-009
  -1.5799999999999998E-002     1.6915769445898958E-009
  -1.5750000000000000E-002     1.7447766214422834E-009
  -1.5699999999999999E-002     1.7991422569699892E-009
  -1.5650000000000001E-002     1.8546105021449015E-009
  -1.5599999999999999E-002     1.9111725681097126E-009
  -1.5550000000000001E-002     1.9688844277641341E-009
  -1.5500000000000000E-002     2.0278660812370046E-009
  -1.5449999999999998E-002     2.0882913839612579E-009
  -1.5400000000000000E-002     2.1503689391337720E-009
  -1.5349999999999999E-002     2.2143159489656303E-009
  -1.5300000000000001E-002     2.2803316417078537E-009
  -1.5250000000000000E-002     2.3485745545871161E-009
  -1.5199999999999998E-002     2.4191473085062050E-009
  -1.5150000000000000E-002     2.4920920107533575E-009
  -1.5099999999999999E-002     2.5673985679947679E-009
  -1.5050000000000001E-002     2.6450221287693652E-009
  -1.4999999999999999E-002     2.7249073634093213E-009
  -1.4949999999999998E-002     2.8070136818923077E-009
  -1.4900000000000000E-002     2.8913361283106821E-009
  -1.4849999999999999E-002     2.9779165673282370E-009
  -1.4800000000000001E-002     3.0668447287663196E-009
  -1.4749999999999999E-002     3.1582482585932367E-009
  -1.4700000000000001E-002     3.2522735969238372E-009
  -1.4650000000000000E-002     3.3490612573092983E-009
  -1.4599999999999998E-002     3.4487211804611010E-009
  -1.4550000000000000E-002     3.5513186085514846E-009
  -1.4499999999999999E-002     3.6568650961944490E-009
  -1.4450000000000001E-002     3.7653261224734557E-009
  -1.4400000000000000E-002     3.8766393324280291E-009
  -1.4349999999999998E-002     3.9907390917185658E-009
  -1.4300000000000000E-002     4.1075840455117081E-009
  -1.4249999999999999E-002     4.2271805981882892E-009
  -1.4200000000000001E-002     4.3495994359618134E-009
  -1.4149999999999999E-002     4.4749814001297807E-009
  -1.4099999999999998E-002     4.6035295055600301E-009
  -1.4050000000000000E-002     4.7354960807606492E-009
  -1.3999999999999999E-002     4.8711599913342069E-009
  -1.3950000000000001E-002     5.0108025254724141E-009
  -1.3899999999999999E-002     5.1546846651196192E-009
  -1.3850000000000001E-002     5.3030273125140532E-009
  -1.3800000000000000E-002     5.4560035168181225E-009
  -1.3749999999999998E-002     5.6137313843740589E-009
  -1.3700000000000000E-002     5.7762781403421900E-009
  -1.3649999999999999E-002     5.9436654739475109E-009
  -1.3600000000000001E-002     6.1158765021386344E-009
  -1.3550000000000000E-002     6.2928652820166838E-009
  -1.3499999999999998E-002     6.4745677240813911E-009
  -1.3450000000000000E-002     6.6609148375293517E-009
  -1.3399999999999999E-002     6.8518477351555468E-009
  -1.3350000000000001E-002     7.0473343460722487E-009
  -1.3299999999999999E-002     7.2473850258810377E-009
  -1.3249999999999998E-002     7.4520656772522839E-009
  -1.3200000000000000E-002     7.6615137711545774E-009
  -1.3149999999999998E-002     7.8759400653252898E-009
  -1.3100000000000001E-002     8.0956274444746747E-009
  -1.3049999999999999E-002     8.3209206334909780E-009
  -1.3000000000000001E-002     8.5522091148921973E-009
  -1.2950000000000000E-002     8.7898962146372170E-009
  -1.2899999999999998E-002     9.0343693571898319E-009
  -1.2850000000000000E-002     9.2859692342607801E-009
  -1.2799999999999999E-002     9.5449627321620628E-009