  -4.0000000000000001E-002     0.0000000000000000     
  -3.9949999999999999E-002     0.0000000000000000     
  -3.9899999999999998E-002     0.0000000000000000     
  -3.9850000000000003E-002     0.0000000000000000     
  -3.9800000000000002E-002     0.0000000000000000     
  -3.9750000000000001E-002     0.0000000000000000     
  -3.9699999999999999E-002     0.0000000000000000     
  -3.9649999999999998E-002     0.0000000000000000     
  -3.9600000000000003E-002     0.0000000000000000     
  -3.9550000000000002E-002     0.0000000000000000     
  -3.9500000000000000E-002     0.0000000000000000     
  -3.9449999999999999E-002     0.0000000000000000     
  -3.9399999999999998E-002     0.0000000000000000     
  -3.9350000000000003E-002     0.0000000000000000     
  -3.9300000000000002E-002     0.0000000000000000     
  -3.9250000000000000E-002     0.0000000000000000     
  -3.9199999999999999E-002     0.0000000000000000     
  -3.9150000000000004E-002     0.0000000000000000     
  -3.9100000000000003E-002     0.0000000000000000     
  -3.9050000000000001E-002     0.0000000000000000     
  -3.9000000000000000E-002     0.0000000000000000     
  -3.8949999999999999E-002     0.0000000000000000     
  -3.8900000000000004E-002     0.0000000000000000     
  -3.8850000000000003E-002     0.0000000000000000     
  -3.8800000000000001E-002     0.0000000000000000     
  -3.8750000000000000E-002     0.0000000000000000     
  -3.8699999999999998E-002     0.0000000000000000     
  -3.8650000000000004E-002     0.0000000000000000     
  -3.8600000000000002E-002     0.0000000000000000     
  -3.8550000000000001E-002     0.0000000000000000     
  -3.8500000000000000E-002     0.0000000000000000     
  -3.8449999999999998E-002     0.0000000000000000     
  -3.8400000000000004E-002     0.0000000000000000     
  -3.8350000000000002E-002     0.0000000000000000     
  -3.8300000000000001E-002     0.0000000000000000     
  -3.8249999999999999E-002     0.0000000000000000     
  -3.8199999999999998E-002     0.0000000000000000     
  -3.8150000000000003E-002     0.0000000000000000     
  -3.8100000000000002E-002     0.0000000000000000     
  -3.8050000000000000E-002     0.0000000000000000     
  -3.7999999999999999E-002     0.0000000000000000     
  -3.7949999999999998E-002     0.0000000000000000     
  -3.7900000000000003E-002     0.0000000000000000     
  -3.7850000000000002E-002     0.0000000000000000     
  -3.7800000000000000E-002     0.0000000000000000     
  -3.7749999999999999E-002     0.0000000000000000     
  -3.7699999999999997E-002     0.0000000000000000     
  -3.7650000000000003E-002     0.0000000000000000     
  -3.7600000000000001E-002     0.0000000000000000     
  -3.7550000000000000E-002     0.0000000000000000     
  -3.7499999999999999E-002     0.0000000000000000     
  -3.7449999999999997E-002     0.0000000000000000     
  -3.7400000000000003E-002     0.0000000000000000     
  -3.7350000000000001E-002     0.0000000000000000     
  -3.7300000000000000E-002     0.0000000000000000     
  -3.7249999999999998E-002     0.0000000000000000     
  -3.7200000000000004E-002     0.0000000000000000     
  -3.7150000000000002E-002     0.0000000000000000     
  -3.7100000000000001E-002     0.0000000000000000     
  -3.7050000000000000E-002     0.0000000000000000     
  -3.6999999999999998E-002     0.0000000000000000     
  -3.6950000000000004E-002     0.0000000000000000     
  -3.6900000000000002E-002     0.0000000000000000     
  -3.6850000000000001E-002     0.0000000000000000     
  -3.6799999999999999E-002     0.0000000000000000     
  -3.6749999999999998E-002     0.0000000000000000     
  -3.6700000000000003E-002     0.0000000000000000     
  -3.6650000000000002E-002     0.0000000000000000     
  -3.6600000000000001E-002     0.0000000000000000     
  -3.6549999999999999E-002     0.0000000000000000     
  -3.6499999999999998E-002     0.0000000000000000     
  -3.6450000000000003E-002     0.0000000000000000     
  -3.6400000000000002E-002     0.0000000000000000     
  -3.6350000000000000E-002     0.0000000000000000     
  -3.6299999999999999E-002     0.0000000000000000     
  -3.6249999999999998E-002     0.0000000000000000     
  -3.6200000000000003E-002     0.0000000000000000     
  -3.6150000000000002E-002     0.0000000000000000     
  -3.6100000000000000E-002     0.0000000000000000     
  -3.6049999999999999E-002     0.0000000000000000     
  -3.6000000000000004E-002     0.0000000000000000     
  -3.5950000000000003E-002     0.0000000000000000     
  -3.5900000000000001E-002     0.0000000000000000     
  -3.5850000000000000E-002     0.0000000000000000     
  -3.5799999999999998E-002     0.0000000000000000     
  -3.5750000000000004E-002     0.0000000000000000     
  -3.5700000000000003E-002     0.0000000000000000     
  -3.5650000000000001E-002     0.0000000000000000     
  -3.5600000000000000E-002     0.0000000000000000     
  -3.5549999999999998E-002     0.0000000000000000     
  -3.5500000000000004E-002     0.0000000000000000     
  -3.5450000000000002E-002     0.0000000000000000     
  -3.5400000000000001E-002     0.0000000000000000     
  -3.5349999999999999E-002     0.0000000000000000     
  -3.5299999999999998E-002     0.0000000000000000     
  -3.5250000000000004E-002     0.0000000000000000     
  -3.5200000000000002E-002     0.0000000000000000     
  -3.5150000000000001E-002     0.0000000000000000     
  -3.5099999999999999E-002     0.0000000000000000     
  -3.5049999999999998E-002     0.0000000000000000     
  -3.5000000000000003E-002     0.0000000000000000     
  -3.4950000000000002E-002     0.0000000000000000     
  -3.4900000000000000E-002     0.0000000000000000     
  -3.4849999999999999E-002     0.0000000000000000     
  -3.4799999999999998E-002     0.0000000000000000     
  -3.4750000000000003E-002     0.0000000000000000     
  -3.4700000000000002E-002     0.0000000000000000     
  -3.4650000000000000E-002     0.0000000000000000     
  -3.4599999999999999E-002     0.0000000000000000     
  -3.4549999999999997E-002     0.0000000000000000     
  -3.4500000000000003E-002     0.0000000000000000     
  -3.4450000000000001E-002     0.0000000000000000     
  -3.4400000000000000E-002     0.0000000000000000     
  -3.4349999999999999E-002     0.0000000000000000     
  -3.4299999999999997E-002     0.0000000000000000     
  -3.4250000000000003E-002     0.0000000000000000     
  -3.4200000000000001E-002     0.0000000000000000     
  -3.4150000000000000E-002     0.0000000000000000     
  -3.4099999999999998E-002     0.0000000000000000     
  -3.4049999999999997E-002     0.0000000000000000     
  -3.4000000000000002E-002     0.0000000000000000     
  -3.3950000000000001E-002     0.0000000000000000     
  -3.3900000000000000E-002     0.0000000000000000     
  -3.3849999999999998E-002     0.0000000000000000     
  -3.3799999999999997E-002     0.0000000000000000     
  -3.3750000000000002E-002     0.0000000000000000     
  -3.3700000000000001E-002     0.0000000000000000     
  -3.3649999999999999E-002     0.0000000000000000     
  -3.3599999999999998E-002     0.0000000000000000     
  -3.3550000000000003E-002     0.0000000000000000     
  -3.3500000000000002E-002     0.0000000000000000     
  -3.3450000000000001E-002     0.0000000000000000     
  -3.3399999999999999E-002     0.0000000000000000     
  -3.3349999999999998E-002     0.0000000000000000     
  -3.3300000000000003E-002     0.0000000000000000     
  -3.3250000000000002E-002     0.0000000000000000     
  -3.3200000000000000E-002     0.0000000000000000     
  -3.3149999999999999E-002     0.0000000000000000     
  -3.3099999999999997E-002     0.0000000000000000     
  -3.3050000000000003E-002     0.0000000000000000     
  -3.3000000000000002E-002     0.0000000000000000     
  -3.2950000000000000E-002     0.0000000000000000     
  -3.2899999999999999E-002     0.0000000000000000     
  -3.2850000000000004E-002     0.0000000000000000     
  -3.2800000000000003E-002     0.0000000000000000     
  -3.2750000000000001E-002     0.0000000000000000     
  -3.2700000000000000E-002     0.0000000000000000     
  -3.2649999999999998E-002     0.0000000000000000     
  -3.2600000000000004E-002     0.0000000000000000     
  -3.2550000000000003E-002     0.0000000000000000     
  -3.2500000000000001E-002     0.0000000000000000     
  -3.2450000000000000E-002     0.0000000000000000     
  -3.2399999999999998E-002     0.0000000000000000     
  -3.2350000000000004E-002     0.0000000000000000     
  -3.2300000000000002E-002     0.0000000000000000     
  -3.2250000000000001E-002     0.0000000000000000     
  -3.2199999999999999E-002     0.0000000000000000     
  -3.2149999999999998E-002     0.0000000000000000     
  -3.2100000000000004E-002     0.0000000000000000     
  -3.2050000000000002E-002     0.0000000000000000     
  -3.2000000000000001E-002     0.0000000000000000     
  -3.1949999999999999E-002     0.0000000000000000     
  -3.1899999999999998E-002     0.0000000000000000     
  -3.1850000000000003E-002     0.0000000000000000     
  -3.1800000000000002E-002    -1.0320338582038793E-039
  -3.1750000000000000E-002    -2.1760977769589053E-039
  -3.1699999999999999E-002    -2.3884863428520701E-039
  -3.1649999999999998E-002     0.0000000000000000     
  -3.1600000000000003E-002     5.4811495262514667E-039
  -3.1550000000000002E-002     1.2131072979293953E-038
  -3.1500000000000000E-002     1.5140420013613319E-038
  -3.1449999999999999E-002     1.2424525879945583E-038
  -3.1399999999999997E-002     1.9120212956955699E-039
  -3.1350000000000003E-002    -7.6560088335371281E-039
  -3.1300000000000001E-002    -1.8889775275150409E-038
  -3.1250000000000000E-002    -3.4057470329147409E-038
  -3.1199999999999999E-002    -4.5877207222645018E-038
  -3.1150000000000001E-002    -7.5287762178359857E-038
  -3.1100000000000003E-002    -1.1209401811741025E-037
  -3.1050000000000001E-002    -1.2660382349420387E-037
  -3.1000000000000000E-002    -8.2281921613414487E-038
  -3.0949999999999998E-002     4.3189771359650246E-038
  -3.0900000000000000E-002     2.4084539793925261E-037
  -3.0850000000000002E-002     4.8542454249822580E-037
  -3.0800000000000001E-002     7.2334274786152597E-037
  -3.0750000000000000E-002     8.5222932805581329E-037
  -3.0699999999999998E-002     7.3954570387242084E-037
  -3.0650000000000000E-002     2.5939067105064072E-037
  -3.0600000000000002E-002    -6.4150428568507961E-037
  -3.0550000000000001E-002    -1.8630988681671158E-036
  -3.0499999999999999E-002    -3.1006181498341168E-036
  -3.0449999999999998E-002    -3.8563200121330519E-036
  -3.0400000000000000E-002    -3.5527705388453683E-036
  -3.0350000000000002E-002    -1.7369841013205257E-036
  -3.0300000000000001E-002     1.6641076596175521E-036
  -3.0249999999999999E-002     6.1256060161293152E-036
  -3.0200000000000001E-002     1.0461128935228940E-035
  -3.0150000000000000E-002     1.3014790339955773E-035
  -3.0100000000000002E-002     1.2146053434170643E-035
  -3.0050000000000000E-002     6.9117404233933027E-036
  -2.9999999999999999E-002    -2.2947129432682648E-036
  -2.9950000000000001E-002    -1.3482914236132321E-035
  -2.9899999999999999E-002    -2.3478495910439615E-035
  -2.9850000000000002E-002    -2.9060628715668020E-035
  -2.9800000000000000E-002    -2.8476517595510787E-035
  -2.9749999999999999E-002    -2.2577800886903490E-035
  -2.9700000000000001E-002    -1.4665186370574818E-035
  -2.9650000000000003E-002    -8.4671329029227345E-036
  -2.9600000000000001E-002    -4.6005737224740664E-036
  -2.9550000000000000E-002     2.8615715331232880E-036
  -2.9499999999999998E-002     2.7050899592214948E-035
  -2.9450000000000000E-002     8.3532693212197785E-035
  -2.9400000000000003E-002     1.7916895535814218E-034
  -2.9350000000000001E-002     2.9717948698317568E-034
  -2.9300000000000000E-002     3.8526731137012741E-034
  -2.9249999999999998E-002     3.5673470121733257E-034
  -2.9200000000000000E-002     1.1375657006030546E-034
  -2.9150000000000002E-002    -4.0458286788598024E-034
  -2.9100000000000001E-002    -1.1591475657714171E-033
  -2.9049999999999999E-002    -1.9568334714652243E-033
  -2.8999999999999998E-002    -2.4407970359672920E-033
  -2.8950000000000000E-002    -2.1582352303782344E-033
  -2.8900000000000002E-002    -7.1942523943505380E-034
  -2.8850000000000001E-002     1.9761179338355875E-033
  -2.8799999999999999E-002     5.5172413720368216E-033
  -2.8749999999999998E-002     8.8704695746972357E-033
  -2.8700000000000000E-002     1.0493359285014097E-032
  -2.8650000000000002E-002     8.7375112505957980E-033
  -2.8600000000000000E-002     2.5064995740064244E-033
  -2.8549999999999999E-002    -7.9981365897378692E-033
  -2.8500000000000001E-002    -2.0727031201936700E-032
  -2.8450000000000000E-002    -3.1755838948301721E-032
  -2.8400000000000002E-002    -3.6023422397946131E-032
  -2.8350000000000000E-002    -2.8852734062445021E-032
  -2.8299999999999999E-002    -7.9478859819690981E-033
  -2.8250000000000001E-002     2.4757920442651297E-032
  -2.8200000000000003E-002     6.2202532484899795E-032
  -2.8150000000000001E-002     9.2942267274727611E-032
  -2.8100000000000000E-002     1.0382020347083112E-031
  -2.8049999999999999E-002     8.4148501151607947E-032
  -2.8000000000000001E-002     3.0269699090070105E-032
  -2.7950000000000003E-002    -5.1121059692921622E-032
  -2.7900000000000001E-002    -1.4247001145871700E-031
  -2.7850000000000000E-002    -2.1855322175761614E-031
  -2.7799999999999998E-002    -2.5299965618921799E-031
  -2.7750000000000000E-002    -2.2640037634314487E-031
  -2.7700000000000002E-002    -1.3328485720869131E-031
  -2.7650000000000001E-002     1.4768308289313504E-032
  -2.7600000000000000E-002     1.9143184406849372E-031
  -2.7549999999999998E-002     3.6274955924088857E-031
  -2.7500000000000000E-002     4.9618524669398651E-031
  -2.7450000000000002E-002     5.6736097615281757E-031
  -2.7400000000000001E-002     5.6084061852676096E-031
  -2.7349999999999999E-002     4.6418784881448034E-031
  -2.7299999999999998E-002     2.5894681309090948E-031
  -2.7250000000000000E-002    -8.3712162369748342E-032
  -2.7200000000000002E-002    -5.9362908812732463E-031
  -2.7150000000000001E-002    -1.2731315535183011E-030
  -2.7099999999999999E-002    -2.0529278494187099E-030
  -2.7049999999999998E-002    -2.7483668539903551E-030
  -2.7000000000000000E-002    -3.0429920124939615E-030
  -2.6950000000000002E-002    -2.5294865913186510E-030
  -2.6900000000000000E-002    -8.2775223837498847E-031
  -2.6849999999999999E-002     2.2260848599648977E-030
  -2.6800000000000001E-002     6.3633023153720804E-030
  -2.6749999999999999E-002     1.0719805508104867E-029
  -2.6700000000000002E-002     1.3828641707829947E-029
  -2.6650000000000000E-002     1.3856490047778892E-029
  -2.6599999999999999E-002     9.1157520004895834E-030
  -2.6550000000000001E-002    -1.2136821213628595E-030
  -2.6500000000000003E-002    -1.6334812849091944E-029
  -2.6450000000000001E-002    -3.3333545807926165E-029
  -2.6400000000000000E-002    -4.7234276564220237E-029
  -2.6349999999999998E-002    -5.1839091088057728E-029
  -2.6300000000000000E-002    -4.1381014303094961E-029
  -2.6250000000000002E-002    -1.2732426310544803E-029
  -2.6200000000000001E-002     3.2398131453005663E-029
  -2.6150000000000000E-002     8.6065971096565255E-029
  -2.6099999999999998E-002     1.3428761603119241E-028
  -2.6050000000000000E-002     1.5936972963196468E-028
  -2.6000000000000002E-002     1.4435292661443102E-028
  -2.5950000000000001E-002     7.8818516818780661E-029
  -2.5899999999999999E-002    -3.5414814186796018E-029
  -2.5849999999999998E-002    -1.8062582442866503E-028
  -2.5800000000000000E-002    -3.2341353319995174E-028
  -2.5750000000000002E-002    -4.1995527482527250E-028
  -2.5700000000000001E-002    -4.2614633793336814E-028
  -2.5649999999999999E-002    -3.1085319336501744E-028
  -2.5599999999999998E-002    -6.9038229275424356E-029
  -2.5550000000000000E-002     2.6928918294470157E-028
  -2.5500000000000002E-002     6.3805314414226931E-028
  -2.5450000000000000E-002     9.4424153535173267E-028
  -2.5399999999999999E-002     1.0868511888688822E-027
  -2.5349999999999998E-002     9.8236445430892989E-028
  -2.5300000000000000E-002     5.9098447709272186E-028
  -2.5250000000000002E-002    -6.3299905384053239E-029
  -2.5200000000000000E-002    -8.8505931466396763E-028
  -2.5149999999999999E-002    -1.7158858663134627E-027
  -2.5100000000000001E-002    -2.3589272948687699E-027
  -2.5049999999999999E-002    -2.6155951650057957E-027
  -2.5000000000000001E-002    -2.3277284257251338E-027
  -2.4950000000000000E-002    -1.4175480847728572E-027
  -2.4899999999999999E-002     8.1339937894224585E-029
  -2.4850000000000001E-002     2.0065517562189058E-027
  -2.4800000000000003E-002     4.0658721887705562E-027
  -2.4750000000000001E-002     5.8546778535121989E-027
  -2.4700000000000000E-002     6.8949535014399970E-027
  -2.4649999999999998E-002     6.7004781266277580E-027
  -2.4600000000000000E-002     4.8722622285122442E-027
  -2.4550000000000002E-002     1.2229666224041987E-027
  -2.4500000000000001E-002    -4.0829440950755568E-027
  -2.4450000000000000E-002    -1.0404118111461959E-026
  -2.4399999999999998E-002    -1.6561373623010100E-026
  -2.4350000000000000E-002    -2.0900293782319074E-026
  -2.4299999999999999E-002    -2.1529095849389100E-026
  -2.4250000000000001E-002    -1.6750262300600604E-026
  -2.4199999999999999E-002    -5.6449782776969304E-027
  -2.4150000000000001E-002     1.1306266931282114E-026
  -2.4100000000000000E-002     3.1753819369584869E-026
  -2.4049999999999998E-002     5.1382605525512490E-026
  -2.4000000000000000E-002     6.4384944674972124E-026
  -2.3949999999999999E-002     6.4590367484311441E-026
  -2.3900000000000001E-002     4.7158418548737050E-026
  -2.3850000000000000E-002     1.0518299049259953E-026
  -2.3800000000000002E-002    -4.1960159399998078E-026
  -2.3750000000000000E-002    -1.0118212997665018E-025
  -2.3699999999999999E-002    -1.5298370960346313E-025
  -2.3650000000000001E-002    -1.8051766992843146E-025
  -2.3599999999999999E-002    -1.6821644795861701E-025
  -2.3550000000000001E-002    -1.0664781711252528E-025
  -2.3500000000000000E-002     2.9011943692108228E-027
  -2.3449999999999999E-002     1.4553684157925423E-025
  -2.3400000000000001E-002     2.9289218940519406E-025
  -2.3349999999999999E-002     4.0708303987009922E-025
  -2.3300000000000001E-002     4.4838976448554675E-025
  -2.3250000000000000E-002     3.8547974440053081E-025
  -2.3199999999999998E-002     2.0597745438471752E-025
  -2.3150000000000000E-002    -7.5417206645972711E-026
  -2.3099999999999999E-002    -4.1401559525798868E-025
  -2.3050000000000001E-002    -7.3936663722303590E-025
  -2.3000000000000000E-002    -9.6705139104815360E-025
  -2.2950000000000002E-002    -1.0165815716174371E-024
  -2.2900000000000000E-002    -8.3210259255764437E-025
  -2.2849999999999999E-002    -4.0132057106623459E-025
  -2.2800000000000001E-002     2.3224509151041840E-025
  -2.2749999999999999E-002     9.6774365383643997E-025
  -2.2700000000000001E-002     1.6583666990504154E-024
  -2.2650000000000000E-002     2.1351606067823229E-024
  -2.2599999999999999E-002     2.2400594038317435E-024
  -2.2550000000000001E-002     1.8625931180377015E-024
  -2.2499999999999999E-002     9.7334541472379227E-025
  -2.2450000000000001E-002    -3.5297666692245290E-025
  -2.2400000000000000E-002    -1.9309602547932290E-024
  -2.2349999999999998E-002    -3.4784520358870043E-024
  -2.2300000000000000E-002    -4.6523394866849980E-024
  -2.2249999999999999E-002    -5.1041542459472379E-024
  -2.2200000000000001E-002    -4.5499719372897620E-024
  -2.2150000000000000E-002    -2.8454183067941753E-024
  -2.2100000000000002E-002    -5.3161687139710194E-026
  -2.2050000000000000E-002     3.5124372581179432E-024
  -2.1999999999999999E-002     7.2798111393265495E-024
  -2.1950000000000001E-002     1.0468080346315484E-023
  -2.1899999999999999E-002     1.2196364650948861E-023
  -2.1850000000000001E-002     1.1651428303635351E-023
  -2.1800000000000000E-002     8.2951884800325441E-024
  -2.1749999999999999E-002     2.0764607299475576E-024
  -2.1700000000000001E-002    -6.4035654588922785E-024
  -2.1649999999999999E-002    -1.5829729191632109E-023
  -2.1600000000000001E-002    -2.4266630690066174E-023
  -2.1550000000000000E-002    -2.9436487235886560E-023
  -2.1499999999999998E-002    -2.9170816136939360E-023
  -2.1450000000000000E-002    -2.1975717976899185E-023
  -2.1399999999999999E-002    -7.6003831046283041E-024
  -2.1350000000000001E-002     1.2537499967014165E-023
  -2.1299999999999999E-002     3.5222773426957021E-023
  -2.1250000000000002E-002     5.5730563131265582E-023
  -2.1200000000000000E-002     6.8575400547456414E-023
  -2.1149999999999999E-002     6.8657138825941489E-023
  -2.1100000000000001E-002     5.2617131649180492E-023
  -2.1049999999999999E-002     2.0113845696905298E-023
  -2.1000000000000001E-002    -2.5326385111853906E-023
  -2.0950000000000000E-002    -7.6203816052974378E-023
  -2.0899999999999998E-002    -1.2189150451276827E-022
  -2.0850000000000000E-002    -1.5044593032161366E-022
  -2.0799999999999999E-002    -1.5115427255726029E-022
  -2.0750000000000001E-002    -1.1735725068524385E-022
  -2.0700000000000000E-002    -4.8920465732887426E-023
  -2.0649999999999998E-002     4.6313402673133682E-023
  -2.0600000000000000E-002     1.5264393006165036E-022
  -2.0549999999999999E-002     2.4848319668286240E-022
  -2.0500000000000001E-002     3.1006974143066637E-022
  -2.0449999999999999E-002     3.1639237598354758E-022
  -2.0400000000000001E-002     2.5442230549108311E-022
  -2.0350000000000000E-002     1.2353366319078295E-022
  -2.0299999999999999E-002    -6.1999473638302644E-023
  -2.0250000000000001E-002    -2.7329011028648767E-022
  -2.0199999999999999E-002    -4.7029605288457900E-022
  -2.0150000000000001E-002    -6.0822399928169872E-022
  -2.0100000000000000E-002    -6.4601650542206222E-022
  -2.0049999999999998E-002    -5.5552649295297978E-022
  -2.0000000000000000E-002    -3.2965692788931747E-022
  -1.9949999999999999E-002     1.2287466187084310E-023
  -1.9900000000000001E-002     4.2351335470076384E-022
  -1.9850000000000000E-002     8.3382567092653205E-022
  -1.9799999999999998E-002     1.1590085392230697E-021
  -1.9750000000000000E-002     1.3147032632798909E-021
  -1.9699999999999999E-002     1.2330614214192987E-021
  -1.9650000000000001E-002     8.7963248568782589E-022
  -1.9599999999999999E-002     2.6738140169319398E-022
  -1.9550000000000001E-002    -5.3544826577556483E-022
  -1.9500000000000000E-002    -1.4065642329316145E-021
  -1.9449999999999999E-002    -2.1819135871816719E-021
  -1.9400000000000001E-002    -2.6793566984005377E-021
  -1.9349999999999999E-002    -2.7318620935407173E-021
  -1.9300000000000001E-002    -2.2258565719455373E-021
  -1.9250000000000000E-002    -1.1380256000149471E-021
  -1.9199999999999998E-002     4.3772417794597182E-022
  -1.9150000000000000E-002     2.2816435548718892E-021
  -1.9099999999999999E-002     4.0646368596790034E-021
  -1.9050000000000001E-002     5.3928640418592263E-021
  -1.9000000000000000E-002     5.8777781442287112E-021
  -1.8949999999999998E-002     5.2223254936766223E-021
  -1.8900000000000000E-002     3.3078207545606433E-021
  -1.8849999999999999E-002     2.6184914365807233E-022
  -1.8800000000000001E-002    -3.5129543676666834E-021
  -1.8749999999999999E-002    -7.3651435980874401E-021
  -1.8700000000000001E-002    -1.0482508447832690E-020
  -1.8650000000000000E-002    -1.2035826437699769E-020
  -1.8599999999999998E-002    -1.1357845410776771E-020
  -1.8550000000000001E-002    -8.1243641994276035E-021
  -1.8499999999999999E-002    -2.4967928739569705E-021
  -1.8450000000000001E-002     4.8138679338308088E-021
  -1.8400000000000000E-002     1.2591652376626546E-020
  -1.8349999999999998E-002     1.9279904816661681E-020
  -1.8300000000000000E-002     2.3251301392555113E-020
  -1.8249999999999999E-002     2.3143498379124352E-020
  -1.8200000000000001E-002     1.8198717030947301E-020
  -1.8149999999999999E-002     8.5343808547373252E-021
  -1.8100000000000002E-002    -4.7250511246040860E-021
  -1.8050000000000000E-002    -1.9505866645995881E-020
  -1.7999999999999999E-002    -3.3050811310575208E-020
  -1.7950000000000001E-002    -4.2369896835120759E-020
  -1.7899999999999999E-002    -4.4811783844428242E-020
  -1.7850000000000001E-002    -3.8657503350098328E-020
  -1.7800000000000000E-002    -2.3620179875638435E-020
  -1.7749999999999998E-002    -1.1377856289675196E-021
  -1.7700000000000000E-002     2.5628802538051133E-020
  -1.7649999999999999E-002     5.2134639058591809E-020
  -1.7600000000000001E-002     7.3110248322321245E-020
  -1.7550000000000000E-002     8.3463637547363503E-020
  -1.7499999999999998E-002     7.9291239144871973E-020
  -1.7450000000000000E-002     5.8826148121169096E-020
  -1.7399999999999999E-002     2.3138644186392730E-020
  -1.7350000000000001E-002    -2.3579058940954194E-020
  -1.7299999999999999E-002    -7.4264351634016986E-020
  -1.7250000000000001E-002    -1.1981723338793468E-019
  -1.7200000000000000E-002    -1.5046412321612287E-019
  -1.7149999999999999E-002    -1.5749798956431253E-019
  -1.7100000000000001E-002    -1.3514307445370061E-019
  -1.7049999999999999E-002    -8.2219465776742636E-020
  -1.7000000000000001E-002    -3.2538602058972926E-021
  -1.6950000000000000E-002     9.1288055559074484E-020
  -1.6899999999999998E-002     1.8587482460370903E-019
  -1.6850000000000000E-002     2.6195013596685843E-019
  -1.6799999999999999E-002     3.0098701512341339E-019
  -1.6750000000000001E-002     2.8816359624727877E-019
  -1.6700000000000000E-002     2.1605330035899340E-019
  -1.6649999999999998E-002     8.7585120267213410E-020
  -1.6600000000000000E-002    -8.2487607695592074E-020
  -1.6549999999999999E-002    -2.6822535266463826E-019
  -1.6500000000000001E-002    -4.3555528730702419E-019
  -1.6449999999999999E-002    -5.4760138985133266E-019
  -1.6400000000000001E-002    -5.7164110108730392E-019
  -1.6350000000000000E-002    -4.8655923909106213E-019
  -1.6299999999999999E-002    -2.8933429450616381E-019
  -1.6250000000000001E-002     9.8735310769897746E-022
  -1.6199999999999999E-002     3.4313568865375100E-019
  -1.6150000000000001E-002     6.7801536362844003E-019
  -1.6100000000000000E-002     9.3755935492177966E-019
  -1.6049999999999998E-002     1.0569763714926909E-018
  -1.6000000000000000E-002     9.8842860796948468E-019
  -1.5949999999999999E-002     7.1354994390282833E-019
  -1.5900000000000001E-002     2.5203134398419515E-019
  -1.5850000000000000E-002    -3.3611447755993244E-019
  -1.5799999999999998E-002    -9.5605806846602659E-019
  -1.5750000000000000E-002    -1.4914935536619212E-018
  -1.5699999999999999E-002    -1.8242947965573722E-018
  -1.5650000000000001E-002    -1.8574722507514097E-018
  -1.5599999999999999E-002    -1.5373481546989122E-018
  -1.5550000000000001E-002    -8.7046943842797998E-019
  -1.5500000000000000E-002     6.8759589320608423E-020
  -1.5449999999999998E-002     1.1424567140712871E-018
  -1.5400000000000000E-002     2.1664073133079460E-018
  -1.5349999999999999E-002     2.9383959702909361E-018
  -1.5300000000000001E-002     3.2738503488646192E-018
  -1.5250000000000000E-002     3.0430851091431618E-018
  -1.5199999999999998E-002     2.2034592427574011E-018
  -1.5150000000000000E-002     8.1986990988711588E-019
  -1.5099999999999999E-002    -9.3170362261974105E-019
  -1.5050000000000001E-002    -2.7805262394849770E-018
  -1.4999999999999999E-002    -4.3970703897746513E-018
  -1.4949999999999998E-002    -5.4448916089880502E-018
  -1.4900000000000000E-002    -5.6413931143733036E-018
  -1.4849999999999999E-002    -4.8178847533037500E-018
  -1.4800000000000001E-002    -2.9680767625284634E-018
  -1.4749999999999999E-002    -2.7450759789652107E-019
  -1.4700000000000001E-002     2.8953254491818187E-018
  -1.4650000000000000E-002     6.0273292026204781E-018
  -1.4599999999999998E-002     8.5323619631765363E-018
  -1.4550000000000000E-002     9.8434074612748364E-018
  -1.4499999999999999E-002     9.5247804460507871E-018
  -1.4450000000000001E-002     7.3751226634995138E-018
  -1.4400000000000000E-002     3.5037921918029401E-018
  -1.4349999999999998E-002    -1.6384317957564100E-018
  -1.4300000000000000E-002    -7.2881629307442192E-018
  -1.4249999999999999E-002    -1.2462628455082327E-017
  -1.4200000000000001E-002    -1.6110568305020210E-017
  -1.4149999999999999E-002    -1.7301577076335538E-017
  -1.4099999999999998E-002    -1.5423651754289658E-017
  -1.4050000000000000E-002    -1.0351785299914449E-017
  -1.3999999999999999E-002    -2.5497221831956423E-018
  -1.3950000000000001E-002     6.9261324953014636E-018
  -1.3899999999999999E-002     1.6537289237583097E-017
  -1.3850000000000001E-002     2.4484745685686085E-017
  -1.3800000000000000E-002     2.9015316010841884E-017
  -1.3749999999999998E-002     2.8765431490822157E-017
  -1.3700000000000000E-002     2.3080489528197683E-017
  -1.3649999999999999E-002     1.2243548961260804E-017
  -1.3600000000000001E-002    -2.4444941215587256E-018
  -1.3550000000000000E-002    -1.8769667516664384E-017
  -1.3499999999999998E-002    -3.3899678781458851E-017
  -1.3450000000000000E-002    -4.4837004226241863E-017
  -1.3399999999999999E-002    -4.8963717322092694E-017
  -1.3350000000000001E-002    -4.4585259229718659E-017
  -1.3299999999999999E-002    -3.1369247042785925E-017
  -1.3249999999999998E-002    -1.0583201651715750E-017
  -1.3200000000000000E-002     1.4937863340161644E-017
  -1.3149999999999998E-002     4.1119739536198309E-017
  -1.3100000000000001E-002     6.3246474685240072E-017
  -1.3049999999999999E-002     7.6747349352412840E-017
  -1.3000000000000001E-002     7.8050341061495320E-017
  -1.2950000000000000E-002     6.5353971153372765E-017
  -1.2899999999999998E-002     3.9168814142336114E-017
  -1.2850000000000000E-002     2.5056989279293528E-018
  -1.2799999999999999E-002    -3.9362139958944877E-017