  -4.0000000000000001E-002     0.0000000000000000     
  -3.9949999999999999E-002     0.0000000000000000     
  -3.9899999999999998E-002     0.0000000000000000     
  -3.9850000000000003E-002     0.0000000000000000     
  -3.9800000000000002E-002     0.0000000000000000     
  -3.9750000000000001E-002     0.0000000000000000     
  -3.9699999999999999E-002     0.0000000000000000     
  -3.9649999999999998E-002     0.0000000000000000     
  -3.9600000000000003E-002     0.0000000000000000     
  -3.9550000000000002E-002     0.0000000000000000     
  -3.9500000000000000E-002     0.0000000000000000     
  -3.9449999999999999E-002     0.0000000000000000     
  -3.9399999999999998E-002     0.0000000000000000     
  -3.9350000000000003E-002     0.0000000000000000     
  -3.9300000000000002E-002     0.0000000000000000     
  -3.9250000000000000E-002     0.0000000000000000     
  -3.9199999999999999E-002     0.0000000000000000     
  -3.9150000000000004E-002     0.0000000000000000     
  -3.9100000000000003E-002     0.0000000000000000     
  -3.9050000000000001E-002     0.0000000000000000     
  -3.9000000000000000E-002     0.0000000000000000     
  -3.8949999999999999E-002     0.0000000000000000     
  -3.8900000000000004E-002     0.0000000000000000     
  -3.8850000000000003E-002     0.0000000000000000     
  -3.8800000000000001E-002     0.0000000000000000     
  -3.8750000000000000E-002     0.0000000000000000     
  -3.8699999999999998E-002     0.0000000000000000     
  -3.8650000000000004E-002     0.0000000000000000     
  -3.8600000000000002E-002     0.0000000000000000     
  -3.8550000000000001E-002     0.0000000000000000     
  -3.8500000000000000E-002     0.0000000000000000     
  -3.8449999999999998E-002     0.0000000000000000     
  -3.8400000000000004E-002     0.0000000000000000     
  -3.8350000000000002E-002     0.0000000000000000     
  -3.8300000000000001E-002     0.0000000000000000     
  -3.8249999999999999E-002     0.0000000000000000     
  -3.8199999999999998E-002     0.0000000000000000     
  -3.8150000000000003E-002     0.0000000000000000     
  -3.8100000000000002E-002     0.0000000000000000     
  -3.8050000000000000E-002     0.0000000000000000     
  -3.7999999999999999E-002     0.0000000000000000     
  -3.7949999999999998E-002     0.0000000000000000     
  -3.7900000000000003E-002     0.0000000000000000     
  -3.7850000000000002E-002     0.0000000000000000     
  -3.7800000000000000E-002     0.0000000000000000     
  -3.7749999999999999E-002     0.0000000000000000     
  -3.7699999999999997E-002     0.0000000000000000     
  -3.7650000000000003E-002     0.0000000000000000     
  -3.7600000000000001E-002     0.0000000000000000     
  -3.7550000000000000E-002     0.0000000000000000     
  -3.7499999999999999E-002     0.0000000000000000     
  -3.7449999999999997E-002     0.0000000000000000     
  -3.7400000000000003E-002     0.0000000000000000     
  -3.7350000000000001E-002     0.0000000000000000     
  -3.7300000000000000E-002     0.0000000000000000     
  -3.7249999999999998E-002     0.0000000000000000     
  -3.7200000000000004E-002     0.0000000000000000     
  -3.7150000000000002E-002     0.0000000000000000     
  -3.7100000000000001E-002     0.0000000000000000     
  -3.7050000000000000E-002     0.0000000000000000     
  -3.6999999999999998E-002     0.0000000000000000     
  -3.6950000000000004E-002     0.0000000000000000     
  -3.6900000000000002E-002     0.0000000000000000     
  -3.6850000000000001E-002     0.0000000000000000     
  -3.6799999999999999E-002     0.0000000000000000     
  -3.6749999999999998E-002     0.0000000000000000     
  -3.6700000000000003E-002     0.0000000000000000     
  -3.6650000000000002E-002     0.0000000000000000     
  -3.6600000000000001E-002     0.0000000000000000     
  -3.6549999999999999E-002     0.0000000000000000     
  -3.6499999999999998E-002     0.0000000000000000     
  -3.6450000000000003E-002     0.0000000000000000     
  -3.6400000000000002E-002     0.0000000000000000     
  -3.6350000000000000E-002     0.0000000000000000     
  -3.6299999999999999E-002     0.0000000000000000     
  -3.6249999999999998E-002     0.0000000000000000     
  -3.6200000000000003E-002     0.0000000000000000     
  -3.6150000000000002E-002     0.0000000000000000     
  -3.6100000000000000E-002     0.0000000000000000     
  -3.6049999999999999E-002     0.0000000000000000     
  -3.6000000000000004E-002     0.0000000000000000     
  -3.5950000000000003E-002     0.0000000000000000     
  -3.5900000000000001E-002     0.0000000000000000     
  -3.5850000000000000E-002     0.0000000000000000     
  -3.5799999999999998E-002     0.0000000000000000     
  -3.5750000000000004E-002     0.0000000000000000     
  -3.5700000000000003E-002     0.0000000000000000     
  -3.5650000000000001E-002     0.0000000000000000     
  -3.5600000000000000E-002     0.0000000000000000     
  -3.5549999999999998E-002     0.0000000000000000     
  -3.5500000000000004E-002     0.0000000000000000     
  -3.5450000000000002E-002     0.0000000000000000     
  -3.5400000000000001E-002     0.0000000000000000     
  -3.5349999999999999E-002     0.0000000000000000     
  -3.5299999999999998E-002     0.0000000000000000     
  -3.5250000000000004E-002     0.0000000000000000     
  -3.5200000000000002E-002     0.0000000000000000     
  -3.5150000000000001E-002     0.0000000000000000     
  -3.5099999999999999E-002     0.0000000000000000     
  -3.5049999999999998E-002     0.0000000000000000     
  -3.5000000000000003E-002     0.0000000000000000     
  -3.4950000000000002E-002     0.0000000000000000     
  -3.4900000000000000E-002     0.0000000000000000     
  -3.4849999999999999E-002     0.0000000000000000     
  -3.4799999999999998E-002     0.0000000000000000     
  -3.4750000000000003E-002     0.0000000000000000     
  -3.4700000000000002E-002     0.0000000000000000     
  -3.4650000000000000E-002     0.0000000000000000     
  -3.4599999999999999E-002     0.0000000000000000     
  -3.4549999999999997E-002     0.0000000000000000     
  -3.4500000000000003E-002     0.0000000000000000     
  -3.4450000000000001E-002     0.0000000000000000     
  -3.4400000000000000E-002     0.0000000000000000     
  -3.4349999999999999E-002     0.0000000000000000     
  -3.4299999999999997E-002     0.0000000000000000     
  -3.4250000000000003E-002     0.0000000000000000     
  -3.4200000000000001E-002     0.0000000000000000     
  -3.4150000000000000E-002     0.0000000000000000     
  -3.4099999999999998E-002     0.0000000000000000     
  -3.4049999999999997E-002     0.0000000000000000     
  -3.4000000000000002E-002     0.0000000000000000     
  -3.3950000000000001E-002     0.0000000000000000     
  -3.3900000000000000E-002     0.0000000000000000     
  -3.3849999999999998E-002     0.0000000000000000     
  -3.3799999999999997E-002     0.0000000000000000     
  -3.3750000000000002E-002     0.0000000000000000     
  -3.3700000000000001E-002     0.0000000000000000     
  -3.3649999999999999E-002     0.0000000000000000     
  -3.3599999999999998E-002     0.0000000000000000     
  -3.3550000000000003E-002     0.0000000000000000     
  -3.3500000000000002E-002     0.0000000000000000     
  -3.3450000000000001E-002     0.0000000000000000     
  -3.3399999999999999E-002     0.0000000000000000     
  -3.3349999999999998E-002     0.0000000000000000     
  -3.3300000000000003E-002     0.0000000000000000     
  -3.3250000000000002E-002     0.0000000000000000     
  -3.3200000000000000E-002     0.0000000000000000     
  -3.3149999999999999E-002     0.0000000000000000     
  -3.3099999999999997E-002     0.0000000000000000     
  -3.3050000000000003E-002     0.0000000000000000     
  -3.3000000000000002E-002     0.0000000000000000     
  -3.2950000000000000E-002     0.0000000000000000     
  -3.2899999999999999E-002     0.0000000000000000     
  -3.2850000000000004E-002     0.0000000000000000     
  -3.2800000000000003E-002     0.0000000000000000     
  -3.2750000000000001E-002     0.0000000000000000     
  -3.2700000000000000E-002     0.0000000000000000     
  -3.2649999999999998E-002     0.0000000000000000     
  -3.2600000000000004E-002     0.0000000000000000     
  -3.2550000000000003E-002     0.0000000000000000     
  -3.2500000000000001E-002     0.0000000000000000     
  -3.2450000000000000E-002     0.0000000000000000     
  -3.2399999999999998E-002     0.0000000000000000     
  -3.2350000000000004E-002     0.0000000000000000     
  -3.2300000000000002E-002     0.0000000000000000     
  -3.2250000000000001E-002     0.0000000000000000     
  -3.2199999999999999E-002     0.0000000000000000     
  -3.2149999999999998E-002     0.0000000000000000     
  -3.2100000000000004E-002     0.0000000000000000     
  -3.2050000000000002E-002     0.0000000000000000     
  -3.2000000000000001E-002     0.0000000000000000     
  -3.1949999999999999E-002     0.0000000000000000     
  -3.1899999999999998E-002     0.0000000000000000     
  -3.1850000000000003E-002     0.0000000000000000     
  -3.1800000000000002E-002     0.0000000000000000     
  -3.1750000000000000E-002     0.0000000000000000     
  -3.1699999999999999E-002     0.0000000000000000     
  -3.1649999999999998E-002     0.0000000000000000     
  -3.1600000000000003E-002     0.0000000000000000     
  -3.1550000000000002E-002     0.0000000000000000     
  -3.1500000000000000E-002     0.0000000000000000     
  -3.1449999999999999E-002     0.0000000000000000     
  -3.1399999999999997E-002     0.0000000000000000     
  -3.1350000000000003E-002     0.0000000000000000     
  -3.1300000000000001E-002     0.0000000000000000     
  -3.1250000000000000E-002     0.0000000000000000     
  -3.1199999999999999E-002     0.0000000000000000     
  -3.1150000000000001E-002     0.0000000000000000     
  -3.1100000000000003E-002     0.0000000000000000     
  -3.1050000000000001E-002     0.0000000000000000     
  -3.1000000000000000E-002     0.0000000000000000     
  -3.0949999999999998E-002     0.0000000000000000     
  -3.0900000000000000E-002     0.0000000000000000     
  -3.0850000000000002E-002     0.0000000000000000     
  -3.0800000000000001E-002     0.0000000000000000     
  -3.0750000000000000E-002     0.0000000000000000     
  -3.0699999999999998E-002     0.0000000000000000     
  -3.0650000000000000E-002     0.0000000000000000     
  -3.0600000000000002E-002     0.0000000000000000     
  -3.0550000000000001E-002     0.0000000000000000     
  -3.0499999999999999E-002     0.0000000000000000     
  -3.0449999999999998E-002     0.0000000000000000     
  -3.0400000000000000E-002     0.0000000000000000     
  -3.0350000000000002E-002     0.0000000000000000     
  -3.0300000000000001E-002     0.0000000000000000     
  -3.0249999999999999E-002     0.0000000000000000     
  -3.0200000000000001E-002     0.0000000000000000     
  -3.0150000000000000E-002     0.0000000000000000     
  -3.0100000000000002E-002     0.0000000000000000     
  -3.0050000000000000E-002     0.0000000000000000     
  -2.9999999999999999E-002     0.0000000000000000     
  -2.9950000000000001E-002     0.0000000000000000     
  -2.9899999999999999E-002     0.0000000000000000     
  -2.9850000000000002E-002     0.0000000000000000     
  -2.9800000000000000E-002     0.0000000000000000     
  -2.9749999999999999E-002     0.0000000000000000     
  -2.9700000000000001E-002     0.0000000000000000     
  -2.9650000000000003E-002     0.0000000000000000     
  -2.9600000000000001E-002     0.0000000000000000     
  -2.9550000000000000E-002     0.0000000000000000     
  -2.9499999999999998E-002     0.0000000000000000     
  -2.9450000000000000E-002     0.0000000000000000     
  -2.9400000000000003E-002     0.0000000000000000     
  -2.9350000000000001E-002     0.0000000000000000     
  -2.9300000000000000E-002     0.0000000000000000     
  -2.9249999999999998E-002     0.0000000000000000     
  -2.9200000000000000E-002     0.0000000000000000     
  -2.9150000000000002E-002     0.0000000000000000     
  -2.9100000000000001E-002     0.0000000000000000     
  -2.9049999999999999E-002     0.0000000000000000     
  -2.8999999999999998E-002     0.0000000000000000     
  -2.8950000000000000E-002     0.0000000000000000     
  -2.8900000000000002E-002     0.0000000000000000     
  -2.8850000000000001E-002     0.0000000000000000     
  -2.8799999999999999E-002     0.0000000000000000     
  -2.8749999999999998E-002     0.0000000000000000     
  -2.8700000000000000E-002     0.0000000000000000     
  -2.8650000000000002E-002     0.0000000000000000     
  -2.8600000000000000E-002     0.0000000000000000     
  -2.8549999999999999E-002     0.0000000000000000     
  -2.8500000000000001E-002     0.0000000000000000     
  -2.8450000000000000E-002     0.0000000000000000     
  -2.8400000000000002E-002     0.0000000000000000     
  -2.8350000000000000E-002     0.0000000000000000     
  -2.8299999999999999E-002     0.0000000000000000     
  -2.8250000000000001E-002     0.0000000000000000     
  -2.8200000000000003E-002     0.0000000000000000     
  -2.8150000000000001E-002     0.0000000000000000     
  -2.8100000000000000E-002     0.0000000000000000     
  -2.8049999999999999E-002     0.0000000000000000     
  -2.8000000000000001E-002     0.0000000000000000     
  -2.7950000000000003E-002     0.0000000000000000     
  -2.7900000000000001E-002     0.0000000000000000     
  -2.7850000000000000E-002     0.0000000000000000     
  -2.7799999999999998E-002     0.0000000000000000     
  -2.7750000000000000E-002     0.0000000000000000     
  -2.7700000000000002E-002     0.0000000000000000     
  -2.7650000000000001E-002     0.0000000000000000     
  -2.7600000000000000E-002     0.0000000000000000     
  -2.7549999999999998E-002     0.0000000000000000     
  -2.7500000000000000E-002     0.0000000000000000     
  -2.7450000000000002E-002     0.0000000000000000     
  -2.7400000000000001E-002     0.0000000000000000     
  -2.7349999999999999E-002     0.0000000000000000     
  -2.7299999999999998E-002     0.0000000000000000     
  -2.7250000000000000E-002     0.0000000000000000     
  -2.7200000000000002E-002     0.0000000000000000     
  -2.7150000000000001E-002     0.0000000000000000     
  -2.7099999999999999E-002     0.0000000000000000     
  -2.7049999999999998E-002     0.0000000000000000     
  -2.7000000000000000E-002     0.0000000000000000     
  -2.6950000000000002E-002     0.0000000000000000     
  -2.6900000000000000E-002     0.0000000000000000     
  -2.6849999999999999E-002     0.0000000000000000     
  -2.6800000000000001E-002     0.0000000000000000     
  -2.6749999999999999E-002     0.0000000000000000     
  -2.6700000000000002E-002     0.0000000000000000     
  -2.6650000000000000E-002     0.0000000000000000     
  -2.6599999999999999E-002     0.0000000000000000     
  -2.6550000000000001E-002     0.0000000000000000     
  -2.6500000000000003E-002     0.0000000000000000     
  -2.6450000000000001E-002     1.1814007714332390E-040
  -2.6400000000000000E-002     7.4753094169932089E-040
  -2.6349999999999998E-002     1.6527200060177925E-039
  -2.6300000000000000E-002     1.8913598897945534E-039
  -2.6250000000000002E-002     5.6861681914490468E-040
  -2.6200000000000001E-002    -2.9382341423311103E-039
  -2.6150000000000000E-002    -7.4865689681342364E-039
  -2.6099999999999998E-002    -1.1049852174221458E-038
  -2.6050000000000000E-002    -1.0359657670559751E-038
  -2.6000000000000002E-002    -4.2649105983761763E-039
  -2.5950000000000001E-002    -1.2110097611855915E-038
  -2.5899999999999999E-002    -3.5973782877237193E-038
  -2.5849999999999998E-002    -6.9213902660177319E-038
  -2.5800000000000000E-002    -5.5235218216665406E-038
  -2.5750000000000002E-002     3.1123949033149943E-038
  -2.5700000000000001E-002     1.6079103463616630E-037
  -2.5649999999999999E-002     2.8251959252550513E-037
  -2.5599999999999998E-002     3.3846162196100002E-037
  -2.5550000000000000E-002     2.5759987767629324E-037
  -2.5500000000000002E-002     1.7246955363698098E-038
  -2.5450000000000000E-002    -3.3974341839117276E-037
  -2.5399999999999999E-002    -7.0416168232311288E-037
  -2.5349999999999998E-002    -9.3166269559307644E-037
  -2.5300000000000000E-002    -8.9140659466461756E-037
  -2.5250000000000002E-002    -5.1586854639089894E-037
  -2.5200000000000000E-002     1.6299276361917400E-037
  -2.5149999999999999E-002     1.0038077456224980E-036
  -2.5100000000000001E-002     1.7753372441575151E-036
  -2.5049999999999999E-002     2.2090442418262900E-036
  -2.5000000000000001E-002     2.0808596110065505E-036
  -2.4950000000000000E-002     1.3074002740092058E-036
  -2.4899999999999999E-002     8.2125178139969480E-039
  -2.4850000000000001E-002    -1.5025663079512598E-036
  -2.4800000000000003E-002    -2.8228390711921405E-036
  -2.4750000000000001E-002    -3.5979694328783542E-036
  -2.4700000000000000E-002    -3.7241755228372521E-036
  -2.4649999999999998E-002    -3.3617772190526803E-036
  -2.4600000000000000E-002    -2.8204138687811135E-036
  -2.4550000000000002E-002    -2.2605097964249118E-036
  -2.4500000000000001E-002    -1.4168720697830484E-036
  -2.4450000000000000E-002     5.0513494009578868E-037
  -2.4399999999999998E-002     4.5801257144702504E-036
  -2.4350000000000000E-002     1.1503869942128514E-035
  -2.4299999999999999E-002     2.0671331222941297E-035
  -2.4250000000000001E-002     2.9368631370927642E-035
  -2.4199999999999999E-002     3.2623701776941760E-035
  -2.4150000000000001E-002     2.4222804418452791E-035
  -2.4100000000000000E-002    -9.1056629094246121E-037
  -2.4049999999999998E-002    -4.3368963799068835E-035
  -2.4000000000000000E-002    -9.6046926701477110E-035
  -2.3949999999999999E-002    -1.4269932327252266E-034
  -2.3900000000000001E-002    -1.5993494084788654E-034
  -2.3850000000000000E-002    -1.2354557103794603E-034
  -2.3800000000000002E-002    -1.8541108088491962E-035
  -2.3750000000000000E-002     1.4970782389999773E-034
  -2.3699999999999999E-002     3.4750799168328003E-034
  -2.3650000000000001E-002     5.1290918189394191E-034
  -2.3599999999999999E-002     5.6735868857434291E-034
  -2.3550000000000001E-002     4.3917959315250202E-034
  -2.3500000000000000E-002     9.4351952712945333E-035
  -2.3449999999999999E-002    -4.3468855342716632E-034
  -2.3400000000000001E-002    -1.0343065814206568E-033
  -2.3349999999999999E-002    -1.5200125772514632E-033
  -2.3300000000000001E-002    -1.6771263315446310E-033
  -2.3250000000000000E-002    -1.3271295861855336E-033
  -2.3199999999999998E-002    -4.0373050443638266E-034
  -2.3150000000000000E-002     9.8612381663313970E-034
  -2.3099999999999999E-002     2.5430829834758563E-033
  -2.3050000000000001E-002     3.8173403354559814E-033
  -2.3000000000000000E-002     4.3141016553113735E-033
  -2.2950000000000002E-002     3.6427651898977663E-033
  -2.2900000000000000E-002     1.6695861145554068E-033
  -2.2849999999999999E-002    -1.3768567922520513E-033
  -2.2800000000000001E-002    -4.8923193212437820E-033
  -2.2749999999999999E-002    -7.9974270111204344E-033
  -2.2700000000000001E-002    -9.7387303752729082E-033
  -2.2650000000000000E-002    -9.3411829708713240E-033
  -2.2599999999999999E-002    -6.4404014191416115E-033
  -2.2550000000000001E-002    -1.2243803995260797E-033
  -2.2499999999999999E-002     5.5579818997090289E-033
  -2.2450000000000001E-002     1.2718847341031698E-032
  -2.2400000000000000E-002     1.8836513859266389E-032
  -2.2349999999999998E-002     2.2473425303436470E-032
  -2.2300000000000000E-002     2.2350519773123295E-032
  -2.2249999999999999E-002     1.7469696503017269E-032
  -2.2200000000000001E-002     7.2378497309689311E-033
  -2.2150000000000000E-002    -8.3161210891937764E-033
  -2.2100000000000002E-002    -2.8162919152472547E-032
  -2.2050000000000000E-002    -4.9766776610100372E-032
  -2.1999999999999999E-002    -6.8647139144244517E-032
  -2.1950000000000001E-002    -7.8361123916787662E-032
  -2.1899999999999999E-002    -7.1319120460008751E-032
  -2.1850000000000001E-002    -4.0715499185966475E-032
  -2.1800000000000000E-002     1.6504562617918767E-032
  -2.1749999999999999E-002     9.6262505436842127E-032
  -2.1700000000000001E-002     1.8472702183570314E-031
  -2.1649999999999999E-002     2.5796858412080149E-031
  -2.1600000000000001E-002     2.8524469256226677E-031
  -2.1550000000000000E-002     2.3647572194599729E-031
  -2.1499999999999998E-002     9.3074904949332877E-032
  -2.1450000000000000E-002    -1.4038489119724475E-031
  -2.1399999999999999E-002    -4.2759656250344692E-031
  -2.1350000000000001E-002    -6.9944683006453846E-031
  -2.1299999999999999E-002    -8.6386472658914653E-031
  -2.1250000000000002E-002    -8.2737623722979338E-031
  -2.1200000000000000E-002    -5.2527166912875793E-031
  -2.1149999999999999E-002     4.6829519854793878E-032
  -2.1100000000000001E-002     8.1018837077587845E-031
  -2.1049999999999999E-002     1.5994578386044014E-030
  -2.1000000000000001E-002     2.1858640972860765E-030
  -2.0950000000000000E-002     2.3278050691322635E-030
  -2.0899999999999998E-002     1.8408536399389400E-030
  -2.0850000000000000E-002     6.7062477414104627E-031
  -2.0799999999999999E-002    -1.0533685842511473E-030
  -2.0750000000000001E-002    -3.0043780629353431E-030
  -2.0700000000000000E-002    -4.6997961293141993E-030
  -2.0649999999999998E-002    -5.5980665274367097E-030
  -2.0600000000000000E-002    -5.2355101354748142E-030
  -2.0549999999999999E-002    -3.3725616655868390E-030
  -2.0500000000000001E-002    -1.1044675470009712E-031
  -2.0449999999999999E-002     4.0591453866989355E-030
  -2.0400000000000001E-002     8.2963788729764556E-030
  -2.0350000000000000E-002     1.1551640093975717E-029
  -2.0299999999999999E-002     1.2779847529455710E-029
  -2.0250000000000001E-002     1.1189805708853270E-029
  -2.0199999999999999E-002     6.4761021059654793E-030
  -2.0150000000000001E-002    -1.0184046725701026E-030
  -2.0100000000000000E-002    -1.0249547743366085E-029
  -2.0049999999999998E-002    -1.9549379419208986E-029
  -2.0000000000000000E-002    -2.6835065515464807E-029
  -1.9949999999999999E-002    -2.9932936565827165E-029
  -1.9900000000000001E-002    -2.6988819847568726E-029
  -1.9850000000000000E-002    -1.6924506743074273E-029
  -1.9799999999999998E-002     1.1480387063061586E-031
  -1.9750000000000000E-002     2.2399839545813257E-029
  -1.9699999999999999E-002     4.6448521122865364E-029
  -1.9650000000000001E-002     6.7175425279566174E-029
  -1.9599999999999999E-002     7.8480245561438360E-029
  -1.9550000000000001E-002     7.4342167969930873E-029
  -1.9500000000000000E-002     5.0371648963844404E-029
  -1.9449999999999999E-002     5.5997935210450033E-030
  -1.9400000000000001E-002    -5.5905811188497378E-029
  -1.9349999999999999E-002    -1.2415896241935847E-028
  -1.9300000000000001E-002    -1.8369572480854722E-028
  -1.9250000000000000E-002    -2.1576825334329643E-028
  -1.9199999999999998E-002    -2.0234663227055881E-028
  -1.9150000000000000E-002    -1.3143314216907722E-028
  -1.9099999999999999E-002    -2.5864728714603673E-030
  -1.9050000000000001E-002     1.6892624874342319E-028
  -1.9000000000000000E-002     3.5107562888632737E-028
  -1.8949999999999998E-002     4.9848668620008415E-028
  -1.8900000000000000E-002     5.6079427895404052E-028
  -1.8849999999999999E-002     4.9506717597998807E-028
  -1.8800000000000001E-002     2.7994704723470657E-028
  -1.8749999999999999E-002    -7.2055535366557447E-029
  -1.8700000000000001E-002    -5.0814465261039277E-028
  -1.8650000000000000E-002    -9.3814785311513217E-028
  -1.8599999999999998E-002    -1.2484424616985940E-027
  -1.8550000000000001E-002    -1.3259061191000943E-027
  -1.8499999999999999E-002    -1.0878645262844158E-027
  -1.8450000000000001E-002    -5.1140549697769747E-028
  -1.8400000000000000E-002     3.4589121891690299E-028
  -1.8349999999999998E-002     1.3411784955402334E-027
  -1.8300000000000000E-002     2.2622190784437426E-027
  -1.8249999999999999E-002     2.8642006366302948E-027
  -1.8200000000000001E-002     2.9225162475502907E-027
  -1.8149999999999999E-002     2.2916719748089312E-027
  -1.8100000000000002E-002     9.5730679188185391E-028
  -1.8050000000000000E-002    -9.3220358307260362E-028
  -1.7999999999999999E-002    -3.0654901651632678E-027
  -1.7950000000000001E-002    -5.0048505832208080E-027
  -1.7899999999999999E-002    -6.2581810736377356E-027
  -1.7850000000000001E-002    -6.3768918719902562E-027
  -1.7800000000000000E-002    -5.0638821585738184E-027
  -1.7749999999999998E-002    -2.2713124071317175E-027
  -1.7700000000000000E-002     1.7333587825431963E-027
  -1.7649999999999999E-002     6.3523844667910422E-027
  -1.7600000000000001E-002     1.0707501758093045E-026
  -1.7550000000000000E-002     1.3759376864094150E-026
  -1.7499999999999998E-002     1.4490132859351494E-026
  -1.7450000000000000E-002     1.2128875407091386E-026
  -1.7399999999999999E-002     6.3860248665814503E-027
  -1.7350000000000001E-002    -2.3501728836889742E-027
  -1.7299999999999999E-002    -1.2909017855180918E-026
  -1.7250000000000001E-002    -2.3376907972885781E-026
  -1.7200000000000000E-002    -3.1318676115292747E-026
  -1.7149999999999999E-002    -3.4188485680879662E-026
  -1.7100000000000001E-002    -2.9894360234883106E-026
  -1.7049999999999999E-002    -1.7429358166009727E-026
  -1.7000000000000001E-002     2.5649324752474035E-027
  -1.6950000000000000E-002     2.7465428929086560E-026
  -1.6899999999999998E-002     5.2722605037922992E-026
  -1.6850000000000000E-002     7.2410857987885143E-026
  -1.6799999999999999E-002     8.0285464224421665E-026
  -1.6750000000000001E-002     7.1227512765984558E-026
  -1.6700000000000000E-002     4.2819967548783062E-026
  -1.6649999999999998E-002    -3.3114708165994657E-027
  -1.6600000000000000E-002    -6.0801852887235349E-026
  -1.6549999999999999E-002    -1.1884868732487435E-025
  -1.6500000000000001E-002    -1.6370086100943587E-025
  -1.6449999999999999E-002    -1.8126589412550893E-025
  -1.6400000000000001E-002    -1.6046148950698112E-025
  -1.6350000000000000E-002    -9.6655678683832389E-026
  -1.6299999999999999E-002     5.6393852218622154E-027
  -1.6250000000000001E-002     1.3166049710545233E-025
  -1.6199999999999999E-002     2.5750826843813655E-025
  -1.6150000000000001E-002     3.5370964757195355E-025
  -1.6100000000000000E-002     3.9090441083124083E-025
  -1.6049999999999998E-002     3.4675397622516973E-025
  -1.6000000000000000E-002     2.1269606635595479E-025
  -1.5949999999999999E-002    -1.0637394531540169E-027
  -1.5900000000000001E-002    -2.6383323837311912E-025
  -1.5850000000000000E-002    -5.2702874353233645E-025
  -1.5799999999999998E-002    -7.3134270840836892E-025
  -1.5750000000000000E-002    -8.1777010046692984E-025
  -1.5699999999999999E-002    -7.4080240878514112E-025
  -1.5650000000000001E-002    -4.8132238346348180E-025
  -1.5599999999999999E-002    -5.6357635242907609E-026
  -1.5550000000000001E-002     4.7700545175147054E-025
  -1.5500000000000000E-002     1.0255206844673597E-024
  -1.5449999999999998E-002     1.4722244615308441E-024
  -1.5400000000000000E-002     1.6965428555386953E-024
  -1.5349999999999999E-002     1.5994493742334494E-024
  -1.5300000000000001E-002     1.1294972146515100E-024
  -1.5250000000000000E-002     3.0449153572713860E-025
  -1.5199999999999998E-002    -7.7670060410040570E-025
  -1.5150000000000000E-002    -1.9369248289766191E-024
  -1.5099999999999999E-002    -2.9409148303814097E-024
  -1.5050000000000001E-002    -3.5327158998691723E-024
  -1.4999999999999999E-002    -3.4865105682813279E-024
  -1.4949999999999998E-002    -2.6631437244927170E-024
  -1.4900000000000000E-002    -1.0614194743701496E-024
  -1.4849999999999999E-002     1.1484581711468486E-024
  -1.4800000000000001E-002     3.6212465146518621E-024
  -1.4749999999999999E-002     5.8712037699210848E-024
  -1.4700000000000001E-002     7.3466794156079229E-024
  -1.4650000000000000E-002     7.5379232933388782E-024
  -1.4599999999999998E-002     6.1018151262342037E-024
  -1.4550000000000000E-002     2.9790962859997376E-024
  -1.4499999999999999E-002    -1.5247906290468227E-024
  -1.4450000000000001E-002    -6.7228137736546601E-024
  -1.4400000000000000E-002    -1.1612810742069966E-023
  -1.4349999999999998E-002    -1.5031734637218740E-023
  -1.4300000000000000E-002    -1.5882562278318085E-023
  -1.4249999999999999E-002    -1.3398072384920284E-023
  -1.4200000000000001E-002    -7.3888293268718922E-024
  -1.4149999999999999E-002     1.5855137983343805E-024
  -1.4099999999999998E-002     1.2177993273462565E-023
  -1.4050000000000000E-002     2.2386903758879346E-023
  -1.3999999999999999E-002     2.9865254616666331E-023
  -1.3950000000000001E-002     3.2373676806363536E-023
  -1.3899999999999999E-002     2.8303502156114496E-023
  -1.3850000000000001E-002     1.7166047633039669E-023
  -1.3800000000000000E-002    -6.8779260981018726E-026
  -1.3749999999999998E-002    -2.0890186754606139E-023
  -1.3700000000000000E-002    -4.1488799042743617E-023
  -1.3649999999999999E-002    -5.7332602470714293E-023
  -1.3600000000000001E-002    -6.4013445509994320E-023
  -1.3550000000000000E-002    -5.8230258212926836E-023
  -1.3499999999999998E-002    -3.8720880107846911E-023
  -1.3450000000000000E-002    -6.9316260864567867E-024
  -1.3399999999999999E-002     3.2767686372487722E-023
  -1.3350000000000001E-002     7.3453356525190032E-023
  -1.3299999999999999E-002     1.0663143272179060E-022
  -1.3249999999999998E-002     1.2374087439261180E-022
  -1.3200000000000000E-002     1.1795613933828742E-022
  -1.3149999999999998E-002     8.5966762548475350E-023
  -1.3100000000000001E-002     2.9357518825541879E-023
  -1.3049999999999999E-002    -4.4773889968750254E-023
  -1.3000000000000001E-002    -1.2423524953591558E-022
  -1.2950000000000000E-002    -1.9330604906210932E-022
  -1.2899999999999998E-002    -2.3534766143663174E-022
  -1.2850000000000000E-002    -2.3611853343838852E-022
  -1.2799999999999999E-002    -1.8724205218121343E-022