  -4.0000000000000001E-002     0.0000000000000000     
  -3.9949999999999999E-002     0.0000000000000000     
  -3.9899999999999998E-002     0.0000000000000000     
  -3.9850000000000003E-002     0.0000000000000000     
  -3.9800000000000002E-002     0.0000000000000000     
  -3.9750000000000001E-002     0.0000000000000000     
  -3.9699999999999999E-002     0.0000000000000000     
  -3.9649999999999998E-002     0.0000000000000000     
  -3.9600000000000003E-002     0.0000000000000000     
  -3.9550000000000002E-002     0.0000000000000000     
  -3.9500000000000000E-002     0.0000000000000000     
  -3.9449999999999999E-002     0.0000000000000000     
  -3.9399999999999998E-002     0.0000000000000000     
  -3.9350000000000003E-002     0.0000000000000000     
  -3.9300000000000002E-002     0.0000000000000000     
  -3.9250000000000000E-002     0.0000000000000000     
  -3.9199999999999999E-002     0.0000000000000000     
  -3.9150000000000004E-002     0.0000000000000000     
  -3.9100000000000003E-002     0.0000000000000000     
  -3.9050000000000001E-002     0.0000000000000000     
  -3.9000000000000000E-002     0.0000000000000000     
  -3.8949999999999999E-002     0.0000000000000000     
  -3.8900000000000004E-002     0.0000000000000000     
  -3.8850000000000003E-002     0.0000000000000000     
  -3.8800000000000001E-002     0.0000000000000000     
  -3.8750000000000000E-002     0.0000000000000000     
  -3.8699999999999998E-002     0.0000000000000000     
  -3.8650000000000004E-002     0.0000000000000000     
  -3.8600000000000002E-002     0.0000000000000000     
  -3.8550000000000001E-002     0.0000000000000000     
  -3.8500000000000000E-002     0.0000000000000000     
  -3.8449999999999998E-002     0.0000000000000000     
  -3.8400000000000004E-002     0.0000000000000000     
  -3.8350000000000002E-002     0.0000000000000000     
  -3.8300000000000001E-002     0.0000000000000000     
  -3.8249999999999999E-002     0.0000000000000000     
  -3.8199999999999998E-002     0.0000000000000000     
  -3.8150000000000003E-002     0.0000000000000000     
  -3.8100000000000002E-002     0.0000000000000000     
  -3.8050000000000000E-002     0.0000000000000000     
  -3.7999999999999999E-002     0.0000000000000000     
  -3.7949999999999998E-002     0.0000000000000000     
  -3.7900000000000003E-002     0.0000000000000000     
  -3.7850000000000002E-002     0.0000000000000000     
  -3.7800000000000000E-002     0.0000000000000000     
  -3.7749999999999999E-002     0.0000000000000000     
  -3.7699999999999997E-002     0.0000000000000000     
  -3.7650000000000003E-002     0.0000000000000000     
  -3.7600000000000001E-002     0.0000000000000000     
  -3.7550000000000000E-002     0.0000000000000000     
  -3.7499999999999999E-002     0.0000000000000000     
  -3.7449999999999997E-002     0.0000000000000000     
  -3.7400000000000003E-002     0.0000000000000000     
  -3.7350000000000001E-002     0.0000000000000000     
  -3.7300000000000000E-002     0.0000000000000000     
  -3.7249999999999998E-002     0.0000000000000000     
  -3.7200000000000004E-002     0.0000000000000000     
  -3.7150000000000002E-002     0.0000000000000000     
  -3.7100000000000001E-002     0.0000000000000000     
  -3.7050000000000000E-002     0.0000000000000000     
  -3.6999999999999998E-002     0.0000000000000000     
  -3.6950000000000004E-002     0.0000000000000000     
  -3.6900000000000002E-002     0.0000000000000000     
  -3.6850000000000001E-002     0.0000000000000000     
  -3.6799999999999999E-002     0.0000000000000000     
  -3.6749999999999998E-002     0.0000000000000000     
  -3.6700000000000003E-002     0.0000000000000000     
  -3.6650000000000002E-002     0.0000000000000000     
  -3.6600000000000001E-002     0.0000000000000000     
  -3.6549999999999999E-002     0.0000000000000000     
  -3.6499999999999998E-002     0.0000000000000000     
  -3.6450000000000003E-002     0.0000000000000000     
  -3.6400000000000002E-002     0.0000000000000000     
  -3.6350000000000000E-002     0.0000000000000000     
  -3.6299999999999999E-002     0.0000000000000000     
  -3.6249999999999998E-002     0.0000000000000000     
  -3.6200000000000003E-002     0.0000000000000000     
  -3.6150000000000002E-002     0.0000000000000000     
  -3.6100000000000000E-002     0.0000000000000000     
  -3.6049999999999999E-002     0.0000000000000000     
  -3.6000000000000004E-002     0.0000000000000000     
  -3.5950000000000003E-002     0.0000000000000000     
  -3.5900000000000001E-002     0.0000000000000000     
  -3.5850000000000000E-002     0.0000000000000000     
  -3.5799999999999998E-002     0.0000000000000000     
  -3.5750000000000004E-002     0.0000000000000000     
  -3.5700000000000003E-002     0.0000000000000000     
  -3.5650000000000001E-002     0.0000000000000000     
  -3.5600000000000000E-002     0.0000000000000000     
  -3.5549999999999998E-002     0.0000000000000000     
  -3.5500000000000004E-002     0.0000000000000000     
  -3.5450000000000002E-002     0.0000000000000000     
  -3.5400000000000001E-002     0.0000000000000000     
  -3.5349999999999999E-002     0.0000000000000000     
  -3.5299999999999998E-002     0.0000000000000000     
  -3.5250000000000004E-002     0.0000000000000000     
  -3.5200000000000002E-002     0.0000000000000000     
  -3.5150000000000001E-002     0.0000000000000000     
  -3.5099999999999999E-002     0.0000000000000000     
  -3.5049999999999998E-002     0.0000000000000000     
  -3.5000000000000003E-002     0.0000000000000000     
  -3.4950000000000002E-002     0.0000000000000000     
  -3.4900000000000000E-002     0.0000000000000000     
  -3.4849999999999999E-002     0.0000000000000000     
  -3.4799999999999998E-002     0.0000000000000000     
  -3.4750000000000003E-002     0.0000000000000000     
  -3.4700000000000002E-002     0.0000000000000000     
  -3.4650000000000000E-002     0.0000000000000000     
  -3.4599999999999999E-002     0.0000000000000000     
  -3.4549999999999997E-002     0.0000000000000000     
  -3.4500000000000003E-002     0.0000000000000000     
  -3.4450000000000001E-002     0.0000000000000000     
  -3.4400000000000000E-002     0.0000000000000000     
  -3.4349999999999999E-002     0.0000000000000000     
  -3.4299999999999997E-002     0.0000000000000000     
  -3.4250000000000003E-002     0.0000000000000000     
  -3.4200000000000001E-002     0.0000000000000000     
  -3.4150000000000000E-002     0.0000000000000000     
  -3.4099999999999998E-002     0.0000000000000000     
  -3.4049999999999997E-002     0.0000000000000000     
  -3.4000000000000002E-002     0.0000000000000000     
  -3.3950000000000001E-002     0.0000000000000000     
  -3.3900000000000000E-002     0.0000000000000000     
  -3.3849999999999998E-002     0.0000000000000000     
  -3.3799999999999997E-002     0.0000000000000000     
  -3.3750000000000002E-002     0.0000000000000000     
  -3.3700000000000001E-002     0.0000000000000000     
  -3.3649999999999999E-002     0.0000000000000000     
  -3.3599999999999998E-002     0.0000000000000000     
  -3.3550000000000003E-002     0.0000000000000000     
  -3.3500000000000002E-002     0.0000000000000000     
  -3.3450000000000001E-002     0.0000000000000000     
  -3.3399999999999999E-002     0.0000000000000000     
  -3.3349999999999998E-002     0.0000000000000000     
  -3.3300000000000003E-002     0.0000000000000000     
  -3.3250000000000002E-002     0.0000000000000000     
  -3.3200000000000000E-002     0.0000000000000000     
  -3.3149999999999999E-002     0.0000000000000000     
  -3.3099999999999997E-002     0.0000000000000000     
  -3.3050000000000003E-002     0.0000000000000000     
  -3.3000000000000002E-002     0.0000000000000000     
  -3.2950000000000000E-002     0.0000000000000000     
  -3.2899999999999999E-002     0.0000000000000000     
  -3.2850000000000004E-002     0.0000000000000000     
  -3.2800000000000003E-002     0.0000000000000000     
  -3.2750000000000001E-002     0.0000000000000000     
  -3.2700000000000000E-002     0.0000000000000000     
  -3.2649999999999998E-002     0.0000000000000000     
  -3.2600000000000004E-002     0.0000000000000000     
  -3.2550000000000003E-002     0.0000000000000000     
  -3.2500000000000001E-002     0.0000000000000000     
  -3.2450000000000000E-002     0.0000000000000000     
  -3.2399999999999998E-002     0.0000000000000000     
  -3.2350000000000004E-002     0.0000000000000000     
  -3.2300000000000002E-002     0.0000000000000000     
  -3.2250000000000001E-002     0.0000000000000000     
  -3.2199999999999999E-002     0.0000000000000000     
  -3.2149999999999998E-002     0.0000000000000000     
  -3.2100000000000004E-002     0.0000000000000000     
  -3.2050000000000002E-002     0.0000000000000000     
  -3.2000000000000001E-002     0.0000000000000000     
  -3.1949999999999999E-002     0.0000000000000000     
  -3.1899999999999998E-002     0.0000000000000000     
  -3.1850000000000003E-002     0.0000000000000000     
  -3.1800000000000002E-002     0.0000000000000000     
  -3.1750000000000000E-002     0.0000000000000000     
  -3.1699999999999999E-002     0.0000000000000000     
  -3.1649999999999998E-002     0.0000000000000000     
  -3.1600000000000003E-002     0.0000000000000000     
  -3.1550000000000002E-002     0.0000000000000000     
  -3.1500000000000000E-002     0.0000000000000000     
  -3.1449999999999999E-002     0.0000000000000000     
  -3.1399999999999997E-002     0.0000000000000000     
  -3.1350000000000003E-002     0.0000000000000000     
  -3.1300000000000001E-002     0.0000000000000000     
  -3.1250000000000000E-002     0.0000000000000000     
  -3.1199999999999999E-002     0.0000000000000000     
  -3.1150000000000001E-002     0.0000000000000000     
  -3.1100000000000003E-002     0.0000000000000000     
  -3.1050000000000001E-002     0.0000000000000000     
  -3.1000000000000000E-002     0.0000000000000000     
  -3.0949999999999998E-002     0.0000000000000000     
  -3.0900000000000000E-002     0.0000000000000000     
  -3.0850000000000002E-002     0.0000000000000000     
  -3.0800000000000001E-002     0.0000000000000000     
  -3.0750000000000000E-002     0.0000000000000000     
  -3.0699999999999998E-002     0.0000000000000000     
  -3.0650000000000000E-002     0.0000000000000000     
  -3.0600000000000002E-002     0.0000000000000000     
  -3.0550000000000001E-002     0.0000000000000000     
  -3.0499999999999999E-002     0.0000000000000000     
  -3.0449999999999998E-002     0.0000000000000000     
  -3.0400000000000000E-002     0.0000000000000000     
  -3.0350000000000002E-002     0.0000000000000000     
  -3.0300000000000001E-002     0.0000000000000000     
  -3.0249999999999999E-002     0.0000000000000000     
  -3.0200000000000001E-002     0.0000000000000000     
  -3.0150000000000000E-002     0.0000000000000000     
  -3.0100000000000002E-002     0.0000000000000000     
  -3.0050000000000000E-002     0.0000000000000000     
  -2.9999999999999999E-002     0.0000000000000000     
  -2.9950000000000001E-002     0.0000000000000000     
  -2.9899999999999999E-002     0.0000000000000000     
  -2.9850000000000002E-002     0.0000000000000000     
  -2.9800000000000000E-002     0.0000000000000000     
  -2.9749999999999999E-002     0.0000000000000000     
  -2.9700000000000001E-002     0.0000000000000000     
  -2.9650000000000003E-002     0.0000000000000000     
  -2.9600000000000001E-002     0.0000000000000000     
  -2.9550000000000000E-002     0.0000000000000000     
  -2.9499999999999998E-002     0.0000000000000000     
  -2.9450000000000000E-002     0.0000000000000000     
  -2.9400000000000003E-002     0.0000000000000000     
  -2.9350000000000001E-002     0.0000000000000000     
  -2.9300000000000000E-002     0.0000000000000000     
  -2.9249999999999998E-002     0.0000000000000000     
  -2.9200000000000000E-002     0.0000000000000000     
  -2.9150000000000002E-002     0.0000000000000000     
  -2.9100000000000001E-002     0.0000000000000000     
  -2.9049999999999999E-002     0.0000000000000000     
  -2.8999999999999998E-002     0.0000000000000000     
  -2.8950000000000000E-002     0.0000000000000000     
  -2.8900000000000002E-002     0.0000000000000000     
  -2.8850000000000001E-002     0.0000000000000000     
  -2.8799999999999999E-002     0.0000000000000000     
  -2.8749999999999998E-002     0.0000000000000000     
  -2.8700000000000000E-002     0.0000000000000000     
  -2.8650000000000002E-002     0.0000000000000000     
  -2.8600000000000000E-002     0.0000000000000000     
  -2.8549999999999999E-002     0.0000000000000000     
  -2.8500000000000001E-002     0.0000000000000000     
  -2.8450000000000000E-002     0.0000000000000000     
  -2.8400000000000002E-002     0.0000000000000000     
  -2.8350000000000000E-002     0.0000000000000000     
  -2.8299999999999999E-002     0.0000000000000000     
  -2.8250000000000001E-002     0.0000000000000000     
  -2.8200000000000003E-002     0.0000000000000000     
  -2.8150000000000001E-002     0.0000000000000000     
  -2.8100000000000000E-002     0.0000000000000000     
  -2.8049999999999999E-002     0.0000000000000000     
  -2.8000000000000001E-002     0.0000000000000000     
  -2.7950000000000003E-002     0.0000000000000000     
  -2.7900000000000001E-002     0.0000000000000000     
  -2.7850000000000000E-002     0.0000000000000000     
  -2.7799999999999998E-002     0.0000000000000000     
  -2.7750000000000000E-002     0.0000000000000000     
  -2.7700000000000002E-002     0.0000000000000000     
  -2.7650000000000001E-002     0.0000000000000000     
  -2.7600000000000000E-002     0.0000000000000000     
  -2.7549999999999998E-002     0.0000000000000000     
  -2.7500000000000000E-002     0.0000000000000000     
  -2.7450000000000002E-002     0.0000000000000000     
  -2.7400000000000001E-002     0.0000000000000000     
  -2.7349999999999999E-002     0.0000000000000000     
  -2.7299999999999998E-002     0.0000000000000000     
  -2.7250000000000000E-002     0.0000000000000000     
  -2.7200000000000002E-002     0.0000000000000000     
  -2.7150000000000001E-002     0.0000000000000000     
  -2.7099999999999999E-002     0.0000000000000000     
  -2.7049999999999998E-002     0.0000000000000000     
  -2.7000000000000000E-002     0.0000000000000000     
  -2.6950000000000002E-002     0.0000000000000000     
  -2.6900000000000000E-002     0.0000000000000000     
  -2.6849999999999999E-002     0.0000000000000000     
  -2.6800000000000001E-002     0.0000000000000000     
  -2.6749999999999999E-002     0.0000000000000000     
  -2.6700000000000002E-002     0.0000000000000000     
  -2.6650000000000000E-002     0.0000000000000000     
  -2.6599999999999999E-002     0.0000000000000000     
  -2.6550000000000001E-002     0.0000000000000000     
  -2.6500000000000003E-002     0.0000000000000000     
  -2.6450000000000001E-002     0.0000000000000000     
  -2.6400000000000000E-002     0.0000000000000000     
  -2.6349999999999998E-002     0.0000000000000000     
  -2.6300000000000000E-002     0.0000000000000000     
  -2.6250000000000002E-002     0.0000000000000000     
  -2.6200000000000001E-002     0.0000000000000000     
  -2.6150000000000000E-002     0.0000000000000000     
  -2.6099999999999998E-002     0.0000000000000000     
  -2.6050000000000000E-002     0.0000000000000000     
  -2.6000000000000002E-002     0.0000000000000000     
  -2.5950000000000001E-002     0.0000000000000000     
  -2.5899999999999999E-002     0.0000000000000000     
  -2.5849999999999998E-002     0.0000000000000000     
  -2.5800000000000000E-002     0.0000000000000000     
  -2.5750000000000002E-002     0.0000000000000000     
  -2.5700000000000001E-002     0.0000000000000000     
  -2.5649999999999999E-002     0.0000000000000000     
  -2.5599999999999998E-002     0.0000000000000000     
  -2.5550000000000000E-002     0.0000000000000000     
  -2.5500000000000002E-002     0.0000000000000000     
  -2.5450000000000000E-002     0.0000000000000000     
  -2.5399999999999999E-002     0.0000000000000000     
  -2.5349999999999998E-002     0.0000000000000000     
  -2.5300000000000000E-002     0.0000000000000000     
  -2.5250000000000002E-002     0.0000000000000000     
  -2.5200000000000000E-002     0.0000000000000000     
  -2.5149999999999999E-002     0.0000000000000000     
  -2.5100000000000001E-002     0.0000000000000000     
  -2.5049999999999999E-002     0.0000000000000000     
  -2.5000000000000001E-002     0.0000000000000000     
  -2.4950000000000000E-002     0.0000000000000000     
  -2.4899999999999999E-002     0.0000000000000000     
  -2.4850000000000001E-002     0.0000000000000000     
  -2.4800000000000003E-002     0.0000000000000000     
  -2.4750000000000001E-002     0.0000000000000000     
  -2.4700000000000000E-002     0.0000000000000000     
  -2.4649999999999998E-002     0.0000000000000000     
  -2.4600000000000000E-002     0.0000000000000000     
  -2.4550000000000002E-002     0.0000000000000000     
  -2.4500000000000001E-002     0.0000000000000000     
  -2.4450000000000000E-002     0.0000000000000000     
  -2.4399999999999998E-002     0.0000000000000000     
  -2.4350000000000000E-002     0.0000000000000000     
  -2.4299999999999999E-002     0.0000000000000000     
  -2.4250000000000001E-002     0.0000000000000000     
  -2.4199999999999999E-002     0.0000000000000000     
  -2.4150000000000001E-002     0.0000000000000000     
  -2.4100000000000000E-002     0.0000000000000000     
  -2.4049999999999998E-002     0.0000000000000000     
  -2.4000000000000000E-002     0.0000000000000000     
  -2.3949999999999999E-002     0.0000000000000000     
  -2.3900000000000001E-002     0.0000000000000000     
  -2.3850000000000000E-002     0.0000000000000000     
  -2.3800000000000002E-002     0.0000000000000000     
  -2.3750000000000000E-002     0.0000000000000000     
  -2.3699999999999999E-002     0.0000000000000000     
  -2.3650000000000001E-002     0.0000000000000000     
  -2.3599999999999999E-002     0.0000000000000000     
  -2.3550000000000001E-002     0.0000000000000000     
  -2.3500000000000000E-002     0.0000000000000000     
  -2.3449999999999999E-002     0.0000000000000000     
  -2.3400000000000001E-002     0.0000000000000000     
  -2.3349999999999999E-002     0.0000000000000000     
  -2.3300000000000001E-002     0.0000000000000000     
  -2.3250000000000000E-002     0.0000000000000000     
  -2.3199999999999998E-002     0.0000000000000000     
  -2.3150000000000000E-002     0.0000000000000000     
  -2.3099999999999999E-002     6.9682583765204972E-040
  -2.3050000000000001E-002     1.8130391618473993E-039
  -2.3000000000000000E-002     2.6460268545841894E-039
  -2.2950000000000002E-002     1.6439218967892033E-039
  -2.2900000000000000E-002    -2.3673763801364062E-039
  -2.2849999999999999E-002    -6.9407237834045407E-039
  -2.2800000000000001E-002    -1.0590657687767749E-038
  -2.2749999999999999E-002    -9.4052739301011513E-039
  -2.2700000000000001E-002    -1.8692157442232627E-039
  -2.2650000000000000E-002     1.3257620352612444E-038
  -2.2599999999999999E-002     2.7844912568698551E-038
  -2.2550000000000001E-002     3.3467983989785423E-038
  -2.2499999999999999E-002     2.3188405349570191E-038
  -2.2450000000000001E-002    -2.8923715125096154E-039
  -2.2400000000000000E-002    -2.8482578177299349E-038
  -2.2349999999999998E-002    -4.6128278531806049E-038
  -2.2300000000000000E-002    -5.6678014060328149E-038
  -2.2249999999999999E-002    -5.8739595340097738E-038
  -2.2200000000000001E-002    -6.0291790373860817E-038
  -2.2150000000000000E-002    -3.9730471363028241E-038
  -2.2100000000000002E-002    -2.6040112200136724E-038
  -2.2050000000000000E-002     8.9956402723247334E-039
  -2.1999999999999999E-002     6.5674524946344418E-038
  -2.1950000000000001E-002     1.6686564442035528E-037
  -2.1899999999999999E-002     2.7090511412934145E-037
  -2.1850000000000001E-002     3.3501590749963312E-037
  -2.1800000000000000E-002     2.9434530403304288E-037
  -2.1749999999999999E-002     1.0235248498899124E-037
  -2.1700000000000001E-002    -2.5005698529071947E-037
  -2.1649999999999999E-002    -7.0732305330150225E-037
  -2.1600000000000001E-002    -1.1131354901248472E-036
  -2.1550000000000000E-002    -1.2915118751413089E-036
  -2.1499999999999998E-002    -1.0653917031049707E-036
  -2.1450000000000000E-002    -3.3882581178408001E-037
  -2.1399999999999999E-002     8.3534148251927333E-037
  -2.1350000000000001E-002     2.2257936291306281E-036
  -2.1299999999999999E-002     3.4160099462937369E-036
  -2.1250000000000002E-002     3.9026136979344611E-036
  -2.1200000000000000E-002     3.2258963147802275E-036
  -2.1149999999999999E-002     1.1569590026204991E-036
  -2.1100000000000001E-002    -2.1263210469758852E-036
  -2.1049999999999999E-002    -5.9427812893339081E-036
  -2.1000000000000001E-002    -9.1650133294714019E-036
  -2.0950000000000000E-002    -1.0465426827807752E-035
  -2.0899999999999998E-002    -8.7254386894231262E-036
  -2.0850000000000000E-002    -3.5073709876192430E-036
  -2.0799999999999999E-002     4.5730029125914330E-036
  -2.0750000000000001E-002     1.3743710461819128E-035
  -2.0700000000000000E-002     2.1358791754549008E-035
  -2.0649999999999998E-002     2.4563925547139387E-035
  -2.0600000000000000E-002     2.1196495277038145E-035
  -2.0549999999999999E-002     1.0647581380996966E-035
  -2.0500000000000001E-002    -5.6254301601255327E-036
  -2.0449999999999999E-002    -2.4175858112217704E-035
  -2.0400000000000001E-002    -4.0299090933061929E-035
  -2.0350000000000000E-002    -4.9248316187822104E-035
  -2.0299999999999999E-002    -4.7567324764324430E-035
  -2.0250000000000001E-002    -3.4095536387575401E-035
  -2.0199999999999999E-002    -1.0298435530669734E-035
  -2.0150000000000001E-002     2.0162633912047803E-035
  -2.0100000000000000E-002     5.2384426879926707E-035
  -2.0049999999999998E-002     8.1218521092030188E-035
  -2.0000000000000000E-002     1.0181214667907170E-034
  -1.9949999999999999E-002     1.0946527503112061E-034
  -1.9900000000000001E-002     9.9069895185268924E-035
  -1.9850000000000000E-002     6.4899751198305918E-035
  -1.9799999999999998E-002     1.7393624196792911E-036
  -1.9750000000000000E-002    -9.1984325385751428E-035
  -1.9699999999999999E-002    -2.0934811301398262E-034
  -1.9650000000000001E-002    -3.2997848396596025E-034
  -1.9599999999999999E-002    -4.1783221766429732E-034
  -1.9550000000000001E-002    -4.2492467714349774E-034
  -1.9500000000000000E-002    -3.0315395333845064E-034
  -1.9449999999999999E-002    -2.3673249316352427E-035
  -1.9400000000000001E-002     4.0055463938838291E-034
  -1.9349999999999999E-002     8.9708653592274830E-034
  -1.9300000000000001E-002     1.3311346538990368E-033
  -1.9250000000000000E-002     1.5258372625992040E-033
  -1.9199999999999998E-002     1.3081787596761743E-033
  -1.9150000000000000E-002     5.7379477041378889E-034
  -1.9099999999999999E-002    -6.4636725338176559E-034
  -1.9050000000000001E-002    -2.1420201137733918E-033
  -1.9000000000000000E-002    -3.5272553479967200E-033
  -1.8949999999999998E-002    -4.3083060006503523E-033
  -1.8900000000000000E-002    -4.0135687839681348E-033
  -1.8849999999999999E-002    -2.3607164251908053E-033
  -1.8800000000000001E-002     5.8581443154873750E-034
  -1.8749999999999999E-002     4.3247229173444604E-033
  -1.8700000000000001E-002     7.9463194485052251E-033
  -1.8650000000000000E-002     1.0304017529171203E-032
  -1.8599999999999998E-002     1.0310747567700004E-032
  -1.8550000000000001E-002     7.2950680221819011E-033
  -1.8499999999999999E-002     1.3157879553609134E-033
  -1.8450000000000001E-002    -6.6756191922129377E-033
  -1.8400000000000000E-002    -1.4909582764285804E-032
  -1.8349999999999998E-002    -2.1135174621887303E-032
  -1.8300000000000000E-002    -2.3165269151862190E-032
  -1.8249999999999999E-002    -1.9501978510113170E-032
  -1.8200000000000001E-002    -9.8705490329514961E-033
  -1.8149999999999999E-002     4.5039032002441618E-033
  -1.8100000000000002E-002     2.0982538065889075E-032
  -1.8050000000000000E-002     3.5969368753319087E-032
  -1.7999999999999999E-002     4.5640354157359167E-032
  -1.7950000000000001E-002     4.6770917246638660E-032
  -1.7899999999999999E-002     3.7469055941115597E-032
  -1.7850000000000001E-002     1.7665698885894533E-032
  -1.7800000000000000E-002    -1.0698141128765229E-032
  -1.7749999999999998E-002    -4.3758843554856783E-032
  -1.7700000000000000E-002    -7.6018765198193601E-032
  -1.7649999999999999E-002    -1.0078900443939880E-031
  -1.7600000000000001E-002    -1.1082710420911976E-031
  -1.7550000000000000E-002    -9.9305898816177211E-032
  -1.7499999999999998E-002    -6.1272142224637120E-032
  -1.7450000000000000E-002     4.3705889730871532E-033
  -1.7399999999999999E-002     9.2613738076763810E-032
  -1.7350000000000001E-002     1.9048861600374683E-031
  -1.7299999999999999E-002     2.7661340108068995E-031
  -1.7250000000000001E-002     3.2324042892071592E-031
  -1.7200000000000000E-002     3.0154086408915865E-031
  -1.7149999999999999E-002     1.8997574897859144E-031
  -1.7100000000000001E-002    -1.5683876485747586E-032
  -1.7049999999999999E-002    -2.9345809511924655E-031
  -1.7000000000000001E-002    -5.9100904145192888E-031
  -1.6950000000000000E-002    -8.2971719671600698E-031
  -1.6899999999999998E-002    -9.1895168327005708E-031
  -1.6850000000000000E-002    -7.7969278796904830E-031
  -1.6799999999999999E-002    -3.7312437169513840E-031
  -1.6750000000000001E-002     2.7343782303392008E-031
  -1.6700000000000000E-002     1.0526120971542304E-030
  -1.6649999999999998E-002     1.7833985353646970E-030
  -1.6600000000000000E-002     2.2423441322077654E-030
  -1.6549999999999999E-002     2.2170701539758198E-030
  -1.6500000000000001E-002     1.5720110893693841E-030
  -1.6449999999999999E-002     3.0960252800046009E-031
  -1.6400000000000001E-002    -1.3928023743588505E-030
  -1.6350000000000000E-002    -3.1874619785847135E-030
  -1.6299999999999999E-002    -4.6109330107007104E-030
  -1.6250000000000001E-002    -5.1846133201891161E-030
  -1.6199999999999999E-002    -4.5424596023235775E-030
  -1.6150000000000001E-002    -2.5555751212231006E-030
  -1.6100000000000000E-002     5.8144903517422280E-031
  -1.6049999999999998E-002     4.3330601330555547E-030
  -1.6000000000000000E-002     7.8908942628430337E-030
  -1.5949999999999999E-002     1.0323921222045448E-029
  -1.5900000000000001E-002     1.0785096952104601E-029
  -1.5850000000000000E-002     8.7316565659029917E-030
  -1.5799999999999998E-002     4.1083166789393822E-030
  -1.5750000000000000E-002    -2.5532408949949708E-030
  -1.5699999999999999E-002    -1.0150065422885090E-029
  -1.5650000000000001E-002    -1.7147945443867277E-029
  -1.5599999999999999E-002    -2.1831009551111367E-029
  -1.5550000000000001E-002    -2.2626030546666089E-029
  -1.5500000000000000E-002    -1.8453090880798993E-029
  -1.5449999999999998E-002    -9.0477410694851905E-030
  -1.5400000000000000E-002     4.8018387905465301E-030
  -1.5349999999999999E-002     2.1158278557539424E-029
  -1.5300000000000001E-002     3.7031054146262165E-029
  -1.5250000000000000E-002     4.8707324066666017E-029
  -1.5199999999999998E-002     5.2336371384566203E-029
  -1.5150000000000000E-002     4.4742601562987130E-029
  -1.5099999999999999E-002     2.4375326013234150E-029
  -1.5050000000000001E-002    -7.7782343147069658E-030
  -1.4999999999999999E-002    -4.7565562815365862E-029
  -1.4949999999999998E-002    -8.7612854180313683E-029
  -1.4900000000000000E-002    -1.1808970377618992E-028
  -1.4849999999999999E-002    -1.2840904775464473E-028
  -1.4800000000000001E-002    -1.0974507295194821E-028
  -1.4749999999999999E-002    -5.7959216336395114E-029
  -1.4700000000000001E-002     2.3755387851536487E-029
  -1.4650000000000000E-002     1.2336862726621319E-028
  -1.4599999999999998E-002     2.2046655293198204E-028
  -1.4550000000000000E-002     2.8917485843056791E-028
  -1.4499999999999999E-002     3.0350031981448837E-028
  -1.4450000000000001E-002     2.4430898145404858E-028
  -1.4400000000000000E-002     1.0644795502996936E-028
  -1.4349999999999998E-002    -9.5956631361593264E-029
  -1.4300000000000000E-002    -3.2801409718271228E-028
  -1.4249999999999999E-002    -5.3783104515234426E-028
  -1.4200000000000001E-002    -6.6584158432699389E-028
  -1.4149999999999999E-002    -6.5854496451925762E-028
  -1.4099999999999998E-002    -4.8399051678929449E-028
  -1.4050000000000000E-002    -1.4525595171019683E-028
  -1.3999999999999999E-002     3.1212336593751364E-028
  -1.3950000000000001E-002     8.0205534014170798E-028
  -1.3899999999999999E-002     1.2106031064077105E-027
  -1.3850000000000001E-002     1.4184563606338267E-027
  -1.3800000000000000E-002     1.3293932118720544E-027
  -1.3749999999999998E-002     8.9875710308293361E-028
  -1.3700000000000000E-002     1.5492780285618076E-028
  -1.3649999999999999E-002    -7.9269877827516891E-028
  -1.3600000000000001E-002    -1.7635066375443658E-027
  -1.3550000000000000E-002    -2.5339918312658315E-027
  -1.3499999999999998E-002    -2.8812302428393676E-027
  -1.3450000000000000E-002    -2.6341570600730193E-027
  -1.3399999999999999E-002    -1.7225519732257560E-027
  -1.3350000000000001E-002    -2.1264614302965451E-028
  -1.3299999999999999E-002     1.6805511070185842E-027
  -1.3249999999999998E-002     3.6108326122526744E-027
  -1.3200000000000000E-002     5.1499617990784804E-027
  -1.3149999999999998E-002     5.8641597727311873E-027
  -1.3100000000000001E-002     5.4075722361965239E-027
  -1.3049999999999999E-002     3.6170759938958381E-027
  -1.3000000000000001E-002     5.8920201551752413E-028
  -1.2950000000000000E-002    -3.2808818837774567E-027
  -1.2899999999999998E-002    -7.3157293352673217E-027
  -1.2850000000000000E-002    -1.0637816176572366E-026
  -1.2799999999999999E-002    -1.2316982417973695E-026