  -4.0000000000000001E-002     0.0000000000000000     
  -3.9949999999999999E-002     0.0000000000000000     
  -3.9899999999999998E-002     0.0000000000000000     
  -3.9850000000000003E-002     0.0000000000000000     
  -3.9800000000000002E-002     0.0000000000000000     
  -3.9750000000000001E-002     0.0000000000000000     
  -3.9699999999999999E-002     0.0000000000000000     
  -3.9649999999999998E-002     0.0000000000000000     
  -3.9600000000000003E-002     0.0000000000000000     
  -3.9550000000000002E-002     0.0000000000000000     
  -3.9500000000000000E-002     0.0000000000000000     
  -3.9449999999999999E-002     0.0000000000000000     
  -3.9399999999999998E-002     0.0000000000000000     
  -3.9350000000000003E-002     0.0000000000000000     
  -3.9300000000000002E-002     0.0000000000000000     
  -3.9250000000000000E-002     0.0000000000000000     
  -3.9199999999999999E-002     0.0000000000000000     
  -3.9150000000000004E-002     0.0000000000000000     
  -3.9100000000000003E-002     0.0000000000000000     
  -3.9050000000000001E-002     0.0000000000000000     
  -3.9000000000000000E-002     0.0000000000000000     
  -3.8949999999999999E-002     0.0000000000000000     
  -3.8900000000000004E-002     0.0000000000000000     
  -3.8850000000000003E-002     0.0000000000000000     
  -3.8800000000000001E-002     0.0000000000000000     
  -3.8750000000000000E-002     0.0000000000000000     
  -3.8699999999999998E-002     0.0000000000000000     
  -3.8650000000000004E-002     0.0000000000000000     
  -3.8600000000000002E-002     0.0000000000000000     
  -3.8550000000000001E-002     0.0000000000000000     
  -3.8500000000000000E-002     0.0000000000000000     
  -3.8449999999999998E-002     0.0000000000000000     
  -3.8400000000000004E-002     0.0000000000000000     
  -3.8350000000000002E-002     0.0000000000000000     
  -3.8300000000000001E-002     0.0000000000000000     
  -3.8249999999999999E-002     0.0000000000000000     
  -3.8199999999999998E-002     0.0000000000000000     
  -3.8150000000000003E-002     0.0000000000000000     
  -3.8100000000000002E-002     0.0000000000000000     
  -3.8050000000000000E-002     0.0000000000000000     
  -3.7999999999999999E-002     0.0000000000000000     
  -3.7949999999999998E-002     0.0000000000000000     
  -3.7900000000000003E-002     0.0000000000000000     
  -3.7850000000000002E-002     0.0000000000000000     
  -3.7800000000000000E-002     0.0000000000000000     
  -3.7749999999999999E-002     0.0000000000000000     
  -3.7699999999999997E-002     0.0000000000000000     
  -3.7650000000000003E-002     0.0000000000000000     
  -3.7600000000000001E-002     0.0000000000000000     
  -3.7550000000000000E-002     0.0000000000000000     
  -3.7499999999999999E-002     0.0000000000000000     
  -3.7449999999999997E-002     0.0000000000000000     
  -3.7400000000000003E-002     0.0000000000000000     
  -3.7350000000000001E-002     0.0000000000000000     
  -3.7300000000000000E-002    -4.5796515118817317E-040
  -3.7249999999999998E-002    -1.0201361849827892E-039
  -3.7200000000000004E-002    -5.4555849645191853E-040
  -3.7150000000000002E-002     2.1005579034563809E-039
  -3.7100000000000001E-002     8.0939189821290610E-039
  -3.7050000000000000E-002     1.7028223976770268E-038
  -3.6999999999999998E-002     2.1995500116586199E-038
  -3.6950000000000004E-002     1.0206537012139998E-038
  -3.6900000000000002E-002    -6.8697024427084276E-038
  -3.6850000000000001E-002    -2.2133399830394703E-037
  -3.6799999999999999E-002    -4.2886376230820750E-037
  -3.6749999999999998E-002    -5.9887804606380320E-037
  -3.6700000000000003E-002    -5.1143098398878613E-037
  -3.6650000000000002E-002     1.7803784679374967E-037
  -3.6600000000000001E-002     1.8551541444513694E-036
  -3.6549999999999999E-002     4.6973968131651312E-036
  -3.6499999999999998E-002     8.2211859017330592E-036
  -3.6450000000000003E-002     1.0693706307460053E-035
  -3.6400000000000002E-002     8.6816805719524307E-036
  -3.6350000000000000E-002    -2.7393448091283974E-036
  -3.6299999999999999E-002    -2.8396923238313528E-035
  -3.6249999999999998E-002    -6.9433693840988622E-035
  -3.6200000000000003E-002    -1.1774588028170109E-034
  -3.6150000000000002E-002    -1.4988494458379241E-034
  -3.6100000000000000E-002    -1.2392125391827253E-034
  -3.6049999999999999E-002     1.5146128184189370E-035
  -3.6000000000000004E-002     3.1513298798821176E-034
  -3.5950000000000003E-002     7.7787613913405183E-034
  -3.5900000000000001E-002     1.3060718337449861E-033
  -3.5850000000000000E-002     1.6535652155480168E-033
  -3.5799999999999998E-002     1.4137185235829930E-033
  -3.5750000000000004E-002     9.3006861850016360E-035
  -3.5700000000000003E-002    -2.6871334237415293E-033
  -3.5650000000000001E-002    -6.8522714125292898E-033
  -3.5600000000000000E-002    -1.1467723079007929E-032
  -3.5549999999999998E-002    -1.4435843344203560E-032
  -3.5500000000000004E-002    -1.2574409828079515E-032
  -3.5450000000000002E-002    -2.3834953850015937E-033
  -3.5400000000000001E-002     1.8318548786196904E-032
  -3.5349999999999999E-002     4.8058417659750495E-032
  -3.5299999999999998E-002     7.9392175228311691E-032
  -3.5250000000000004E-002     9.7927456704415287E-032
  -3.5200000000000002E-002     8.4310114078656563E-032
  -3.5150000000000001E-002     2.0403520463603460E-032
  -3.5099999999999999E-002    -1.0054134151073414E-031
  -3.5049999999999998E-002    -2.6232856009895447E-031
  -3.5000000000000003E-002    -4.1813941504318603E-031
  -3.4950000000000002E-002    -4.9351941578106619E-031
  -3.4900000000000000E-002    -4.0546221787956371E-031
  -3.4849999999999999E-002    -9.7604778696318216E-032
  -3.4799999999999998E-002     4.1743901612863305E-031
  -3.4750000000000003E-002     1.0271011397732467E-030
  -3.4700000000000002E-002     1.5223912128344958E-030
  -3.4650000000000000E-002     1.6529772323732946E-030
  -3.4599999999999999E-002     1.2309917408176374E-030
  -3.4549999999999997E-002     2.5086875220953920E-031
  -3.4500000000000003E-002    -1.0349933178267800E-030
  -3.4450000000000001E-002    -2.1515993982981401E-030
  -3.4400000000000000E-002    -2.5838883366519051E-030
  -3.4349999999999999E-002    -2.0717361894625750E-030
  -3.4299999999999997E-002    -8.9301675372877394E-031
  -3.4250000000000003E-002     5.2610465963147707E-032
  -3.4200000000000001E-002    -4.7264668208933871E-031
  -3.4150000000000000E-002    -3.3614046779382139E-030
  -3.4099999999999998E-002    -8.2788476914063615E-030
  -3.4049999999999997E-002    -1.3019646001973031E-029
  -3.4000000000000002E-002    -1.3638197149079878E-029
  -3.3950000000000001E-002    -5.7061647058191359E-030
  -3.3900000000000000E-002     1.3436232304110801E-029
  -3.3849999999999998E-002     4.2216225523193281E-029
  -3.3799999999999997E-002     7.3417036139061366E-029
  -3.3750000000000002E-002     9.5025831554146843E-029
  -3.3700000000000001E-002     9.3732216030025263E-029
  -3.3649999999999999E-002     6.0071339207468163E-029
  -3.3599999999999998E-002    -7.1216409637560172E-030
  -3.3550000000000003E-002    -9.9608803232440003E-029
  -3.3500000000000002E-002    -2.0327947430221090E-028
  -3.3450000000000001E-002    -3.0462062779248715E-028
  -3.3399999999999999E-002    -3.9520425946144257E-028
  -3.3349999999999998E-002    -4.6809194425338627E-028
  -3.3300000000000003E-002    -5.0315306576735514E-028
  -3.3250000000000002E-002    -4.4616880477734771E-028
  -3.3200000000000000E-002    -1.9663018804009634E-028
  -3.3149999999999999E-002     3.7453544407826218E-028
  -3.3099999999999997E-002     1.3605903389839075E-027
  -3.3050000000000003E-002     2.7110285379163241E-027
  -3.3000000000000002E-002     4.1153359272059800E-027
  -3.2950000000000000E-002     4.9459281873235185E-027
  -3.2899999999999999E-002     4.3397808452140588E-027
  -3.2850000000000004E-002     1.4707022662729900E-027
  -3.2800000000000003E-002    -4.0099999129537067E-027
  -3.2750000000000001E-002    -1.1491402186114717E-026
  -3.2700000000000000E-002    -1.9099823229408917E-026
  -3.2649999999999998E-002    -2.3821086463246586E-026
  -3.2600000000000004E-002    -2.2207086175932911E-026
  -3.2550000000000003E-002    -1.1618049313424582E-026
  -3.2500000000000001E-002     8.3212975012311041E-027
  -3.2450000000000000E-002     3.4602244898991959E-026
  -3.2399999999999998E-002     6.0654293447569612E-026
  -3.2350000000000004E-002     7.7505971655864069E-026
  -3.2300000000000002E-002     7.6225427797459206E-026
  -3.2250000000000001E-002     5.1023181906137986E-026
  -3.2199999999999999E-002     1.9779066020400367E-027
  -3.2149999999999998E-002    -6.3700174416410771E-026
  -3.2100000000000004E-002    -1.3251764828078358E-025
  -3.2050000000000002E-002    -1.8750954633587484E-025
  -3.2000000000000001E-002    -2.1205245794371563E-025
  -3.1949999999999999E-002    -1.9332714045368467E-025
  -3.1899999999999998E-002    -1.2441424214173653E-025
  -3.1850000000000003E-002    -5.0039593840277932E-027
  -3.1800000000000002E-002     1.5815188606832443E-025
  -3.1750000000000000E-002     3.4942138653934373E-025
  -3.1699999999999999E-002     5.4032649361774649E-025
  -3.1649999999999998E-002     6.8490252790578720E-025
  -3.1600000000000003E-002     7.1865645100199541E-025
  -3.1550000000000002E-002     5.6704068986365552E-025
  -3.1500000000000000E-002     1.6798248827756833E-025
  -3.1449999999999999E-002    -4.9236791401155195E-025
  -3.1399999999999997E-002    -1.3399512504089818E-024
  -3.1350000000000003E-002    -2.1867901177194497E-024
  -3.1300000000000001E-002    -2.7398149043362449E-024
  -3.1250000000000000E-002    -2.6601518644224377E-024
  -3.1199999999999999E-002    -1.6724939952764969E-024
  -3.1150000000000001E-002     2.9898614238096946E-025
  -3.1100000000000003E-002     3.0137785316876189E-024
  -3.1050000000000001E-002     5.8729577447129550E-024
  -3.1000000000000000E-002     7.9968307624735011E-024
  -3.0949999999999998E-002     8.4333770896466867E-024
  -3.0900000000000000E-002     6.4594437659694296E-024
  -3.0850000000000002E-002     1.8895040488692471E-024
  -3.0800000000000001E-002    -4.7175282297667837E-024
  -3.0750000000000000E-002    -1.2048432784810785E-023
  -3.0699999999999998E-002    -1.8262421957470959E-023
  -3.0650000000000000E-002    -2.1413948622491566E-023
  -3.0600000000000002E-002    -1.9956642071959452E-023
  -3.0550000000000001E-002    -1.3178285067609843E-023
  -3.0499999999999999E-002    -1.4413109924664309E-024
  -3.0449999999999998E-002     1.3818177188438607E-023
  -3.0400000000000000E-002     3.0282030545174960E-023
  -3.0350000000000002E-002     4.5016164013616207E-023
  -3.0300000000000001E-002     5.4706436347273554E-023
  -3.0249999999999999E-002     5.5857113779658072E-023
  -3.0200000000000001E-002     4.5086337001641578E-023
  -3.0150000000000000E-002     1.9751369621159822E-023
  -3.0100000000000002E-002    -2.0905929991948619E-023
  -3.0050000000000000E-002    -7.4141535291509665E-023
  -2.9999999999999999E-002    -1.3206561416238475E-022
  -2.9950000000000001E-002    -1.8082835370075523E-022
  -2.9899999999999999E-002    -2.0168307552491757E-022
  -2.9850000000000002E-002    -1.7472898138129133E-022
  -2.9800000000000000E-002    -8.5349550607733943E-023
  -2.9749999999999999E-002     6.7843168946466419E-023
  -2.9700000000000001E-002     2.6600556075414776E-022
  -2.9650000000000003E-002     4.6721263002223737E-022
  -2.9600000000000001E-002     6.1071167203035715E-022
  -2.9550000000000000E-002     6.2965712681619238E-022
  -2.9499999999999998E-002     4.7099002605234624E-022
  -2.9450000000000000E-002     1.1796785292106992E-022
  -2.9400000000000003E-002    -3.9165269903329570E-022
  -2.9350000000000001E-002    -9.5946294710002576E-022
  -2.9300000000000000E-002    -1.4380505803141246E-021
  -2.9249999999999998E-002    -1.6617194873841429E-021
  -2.9200000000000000E-002    -1.4914456407363860E-021
  -2.9150000000000002E-002    -8.6333945463697043E-022
  -2.9100000000000001E-002     1.7369182576670267E-022
  -2.9049999999999999E-002     1.4449340077007821E-021
  -2.8999999999999998E-002     2.6703255043371902E-021
  -2.8950000000000000E-002     3.5185269202167611E-021
  -2.8900000000000002E-002     3.6847861186093443E-021
  -2.8850000000000001E-002     2.9746269724511678E-021
  -2.8799999999999999E-002     1.3717991469960284E-021
  -2.8749999999999998E-002    -9.2863708061686288E-022
  -2.8700000000000000E-002    -3.5332940103760412E-021
  -2.8650000000000002E-002    -5.9096567490143296E-021
  -2.8600000000000000E-002    -7.4808759046667745E-021
  -2.8549999999999999E-002    -7.7382173091647640E-021
  -2.8500000000000001E-002    -6.3510327105162930E-021
  -2.8450000000000000E-002    -3.2565681004546523E-021
  -2.8400000000000002E-002     1.2832714117781456E-021
  -2.8350000000000000E-002     6.6668482387683544E-021
  -2.8299999999999999E-002     1.1986332230229510E-020
  -2.8250000000000001E-002     1.6117099068066234E-020
  -2.8200000000000003E-002     1.7869647535488807E-020
  -2.8150000000000001E-002     1.6204728129878832E-020
  -2.8100000000000000E-002     1.0497657338937143E-020
  -2.8049999999999999E-002     8.1436295485407196E-022
  -2.8000000000000001E-002    -1.1864859953170646E-020
  -2.7950000000000003E-002    -2.5557337953035712E-020
  -2.7900000000000001E-002    -3.7408923312112750E-020
  -2.7850000000000000E-002    -4.4097374239130128E-020
  -2.7799999999999998E-002    -4.2500887825128993E-020
  -2.7750000000000000E-002    -3.0541973481476415E-020
  -2.7700000000000002E-002    -8.0332009864294477E-021
  -2.7650000000000001E-002     2.2705828754181671E-020
  -2.7600000000000000E-002     5.6695801244684563E-020
  -2.7549999999999998E-002     8.6782000213690635E-020
  -2.7500000000000000E-002     1.0480026908803654E-019
  -2.7450000000000002E-002     1.0329889025446042E-019
  -2.7400000000000001E-002     7.7517400261994863E-020
  -2.7349999999999999E-002     2.7193619800000797E-020
  -2.7299999999999998E-002    -4.2276212945279373E-020
  -2.7250000000000000E-002    -1.1973804357270943E-019
  -2.7200000000000002E-002    -1.8948768728098929E-019
  -2.7150000000000001E-002    -2.3378344421689004E-019
  -2.7099999999999999E-002    -2.3637533094920243E-019
  -2.7049999999999998E-002    -1.8649221272049163E-019
  -2.7000000000000000E-002    -8.2524268725926796E-020
  -2.6950000000000002E-002     6.5452980296467467E-020
  -2.6900000000000000E-002     2.3511397383857238E-019
  -2.6849999999999999E-002     3.9386092930727176E-019
  -2.6800000000000001E-002     5.0354305055295285E-019
  -2.6749999999999999E-002     5.2758801012762922E-019
  -2.6700000000000002E-002     4.3960265548782272E-019
  -2.6650000000000000E-002     2.3190416880444853E-019
  -2.6599999999999999E-002    -7.7990065286363247E-020
  -2.6550000000000001E-002    -4.4498797797352097E-019
  -2.6500000000000003E-002    -7.9985989706238784E-019
  -2.6450000000000001E-002    -1.0592532645979370E-018
  -2.6400000000000000E-002    -1.1416315995860418E-018
  -2.6349999999999998E-002    -9.8680582080605627E-019
  -2.6300000000000000E-002    -5.7517403876659714E-019
  -2.6250000000000002E-002     5.8158890571876277E-020
  -2.6200000000000001E-002     8.1912206731677338E-019
  -2.6150000000000000E-002     1.5636318326159383E-018
  -2.6099999999999998E-002     2.1204993747979878E-018
  -2.6050000000000000E-002     2.3256383732863142E-018
  -2.6000000000000002E-002     2.0614965941455720E-018
  -2.5950000000000001E-002     1.2931429398299743E-018
  -2.5899999999999999E-002     9.1706612061383176E-020
  -2.5849999999999998E-002    -1.3625951039601424E-018
  -2.5800000000000000E-002    -2.8018547603890399E-018
  -2.5750000000000002E-002    -3.9150297177560971E-018
  -2.5700000000000001E-002    -4.4087455849443216E-018
  -2.5649999999999999E-002    -4.0728543377397774E-018
  -2.5599999999999998E-002    -2.8369439354778347E-018
  -2.5550000000000000E-002    -8.0470489800920808E-019
  -2.5500000000000002E-002     1.7432417942454280E-018
  -2.5450000000000000E-002     4.3815488515871237E-018
  -2.5399999999999999E-002     6.6040658950494627E-018
  -2.5349999999999998E-002     7.9099629692323168E-018
  -2.5300000000000000E-002     7.8981791060810806E-018
  -2.5250000000000002E-002     6.3544420760665077E-018
  -2.5200000000000000E-002     3.3158417627747301E-018
  -2.5149999999999999E-002    -8.9934090141599982E-019
  -2.5100000000000001E-002    -5.7047330192326949E-018
  -2.5049999999999999E-002    -1.0305260647236193E-017
  -2.5000000000000001E-002    -1.3800805572721695E-017
  -2.4950000000000000E-002    -1.5326201524836860E-017
  -2.4899999999999999E-002    -1.4212955037189222E-017
  -2.4850000000000001E-002    -1.0151089855652053E-017
  -2.4800000000000003E-002    -3.3230617338321265E-018
  -2.4750000000000001E-002     5.5220384478204496E-018
  -2.4700000000000000E-002     1.5084499117136118E-017
  -2.4649999999999998E-002     2.3642055715699234E-017
  -2.4600000000000000E-002     2.9294728001234919E-017
  -2.4550000000000002E-002     3.0306897339169489E-017
  -2.4500000000000001E-002     2.5499305474071961E-017
  -2.4450000000000000E-002     1.4618865168820682E-017
  -2.4399999999999998E-002    -1.4005009446527661E-018
  -2.4350000000000000E-002    -2.0370232192843972E-017
  -2.4299999999999999E-002    -3.9033527162740906E-017
  -2.4250000000000001E-002    -5.3522632449900503E-017
  -2.4199999999999999E-002    -6.0045905094905397E-017
  -2.4150000000000001E-002    -5.5702178616914753E-017
  -2.4100000000000000E-002    -3.9269786072191821E-017
  -2.4049999999999998E-002    -1.1792568444803394E-017
  -2.4000000000000000E-002     2.3204325440727735E-017
  -2.3949999999999999E-002     5.9985601807430827E-017
  -2.3900000000000001E-002     9.1395233510586372E-017
  -2.3850000000000000E-002     1.1008823247396298E-016
  -2.3800000000000002E-002     1.1002015548696658E-016
  -2.3750000000000000E-002     8.7922919865576966E-017
  -2.3699999999999999E-002     4.4453459964509184E-017
  -2.3650000000000001E-002    -1.5280355569557287E-017
  -2.3599999999999999E-002    -8.2027957253920754E-017
  -2.3550000000000001E-002    -1.4360826009532699E-016
  -2.3500000000000000E-002    -1.8691651819056511E-016
  -2.3449999999999999E-002    -2.0043388183088140E-016
  -2.3400000000000001E-002    -1.7679793287964137E-016
  -2.3349999999999999E-002    -1.1491393146035500E-016
  -2.3300000000000001E-002    -2.1105799548055995E-017
  -2.3250000000000000E-002     9.1066742838341667E-017
  -2.3199999999999998E-002     2.0247364768328212E-016
  -2.3150000000000000E-002     2.9142479474565807E-016
  -2.3099999999999999E-002     3.3759156905665138E-016
  -2.3050000000000001E-002     3.2616385309982247E-016
  -2.3000000000000000E-002     2.5143739925683837E-016
  -2.2950000000000002E-002     1.1905053509132222E-016
  -2.2900000000000000E-002    -5.3721515518595322E-017
  -2.2849999999999999E-002    -2.3987616671190879E-016
  -2.2800000000000001E-002    -4.0664557429767794E-016
  -2.2749999999999999E-002    -5.2094592971536188E-016
  -2.2700000000000001E-002    -5.5541684701716510E-016
  -2.2650000000000000E-002    -4.9398327990366706E-016
  -2.2599999999999999E-002    -3.3589371671798665E-016
  -2.2550000000000001E-002    -9.7411609747951886E-017
  -2.2499999999999999E-002     1.8929041515911905E-016
  -2.2450000000000001E-002     4.8002669312283984E-016
  -2.2400000000000000E-002     7.2482449838314180E-016
  -2.2349999999999998E-002     8.7564336170339795E-016
  -2.2300000000000000E-002     8.9450147056436171E-016
  -2.2249999999999999E-002     7.6082714670427867E-016
  -2.2200000000000001E-002     4.7689475436194709E-016
  -2.2150000000000000E-002     7.0373321858908511E-017
  -2.2100000000000002E-002    -4.0671553390040998E-016
  -2.2050000000000000E-002    -8.8296975771520113E-016
  -2.1999999999999999E-002    -1.2763940034964874E-015
  -2.1950000000000001E-002    -1.5063403508160520E-015
  -2.1899999999999999E-002    -1.5073338529083247E-015
  -2.1850000000000001E-002    -1.2429073333421816E-015
  -2.1800000000000000E-002    -7.1709307410616875E-016
  -2.1749999999999999E-002     1.8978755760119145E-017
  -2.1700000000000001E-002     8.6767615359180266E-016
  -2.1649999999999999E-002     1.6941563900710288E-015
  -2.1600000000000001E-002     2.3444939358147099E-015
  -2.1550000000000000E-002     2.6710124475003589E-015
  -2.1499999999999998E-002     2.5613162751769078E-015
  -2.1450000000000000E-002     1.9659434808794292E-015
  -2.1399999999999999E-002     9.1875925160550796E-016
  -2.1350000000000001E-002    -4.5545423482315155E-016
  -2.1299999999999999E-002    -1.9501250293774847E-015
  -2.1250000000000002E-002    -3.3038151710486014E-015
  -2.1200000000000000E-002    -4.2424303429120080E-015
  -2.1149999999999999E-002    -4.5305467020741859E-015
  -2.1100000000000001E-002    -4.0227743204017311E-015
  -2.1049999999999999E-002    -2.7047004822131002E-015
  -2.1000000000000001E-002    -7.1362799061836488E-016
  -2.0950000000000000E-002     1.6677997895578427E-015
  -2.0899999999999998E-002     4.0472916424069022E-015
  -2.0850000000000000E-002     5.9843837150442241E-015
  -2.0799999999999999E-002     7.0685062472834605E-015
  -2.0750000000000001E-002     7.0000990615046603E-015
  -2.0700000000000000E-002     5.6592390363391074E-015
  -2.0649999999999998E-002     3.1471983110863213E-015
  -2.0600000000000000E-002    -2.0964020701389479E-016
  -2.0549999999999999E-002    -3.8976647749169356E-015
  -2.0500000000000001E-002    -7.2921279039818149E-015
  -2.0449999999999999E-002    -9.7602889978250151E-015
  -2.0400000000000001E-002    -1.0774541107265836E-014
  -2.0350000000000000E-002    -1.0015481009715848E-014
  -2.0299999999999999E-002    -7.4455340221840137E-015
  -2.0250000000000001E-002    -3.3380673694545657E-015
  -2.0199999999999999E-002     1.7457956666475463E-015
  -2.0150000000000001E-002     7.0314932217650562E-015
  -2.0100000000000000E-002     1.1646311210128129E-014
  -2.0049999999999998E-002     1.4758081972143299E-014
  -2.0000000000000000E-002     1.5715281916266775E-014
  -1.9949999999999999E-002     1.4165760085837524E-014
  -1.9900000000000001E-002     1.0134311687485956E-014
  -1.9850000000000000E-002     4.0454920868446311E-015
  -1.9799999999999998E-002    -3.3138703363826889E-015
  -1.9750000000000000E-002    -1.0889188942814046E-014
  -1.9699999999999999E-002    -1.7498380415031564E-014
  -1.9650000000000001E-002    -2.2000243489567338E-014
  -1.9599999999999999E-002    -2.3469327035838280E-014
  -1.9550000000000001E-002    -2.1354110655532744E-014
  -1.9500000000000000E-002    -1.5596174206289782E-014
  -1.9449999999999999E-002    -6.6909852239816780E-015
  -1.9400000000000001E-002     4.3240730741854509E-015
  -1.9349999999999999E-002     1.5961796437253881E-014
  -1.9300000000000001E-002     2.6455712678473274E-014
  -1.9250000000000000E-002     3.3996631160581978E-014
  -1.9199999999999998E-002     3.7010735261588862E-014
  -1.9150000000000000E-002     3.4443380005633054E-014
  -1.9099999999999999E-002     2.6003889886944989E-014
  -1.9050000000000001E-002     1.2323481260755419E-014
  -1.9000000000000000E-002    -5.0169295811341683E-015
  -1.8949999999999998E-002    -2.3617795918312718E-014
  -1.8900000000000000E-002    -4.0556020369322578E-014
  -1.8849999999999999E-002    -5.2818752209668367E-014
  -1.8800000000000001E-002    -5.7818799344327077E-014
  -1.8749999999999999E-002    -5.3907736576090703E-014
  -1.8700000000000001E-002    -4.0788607852783081E-014
  -1.8650000000000000E-002    -1.9733765492068302E-014
  -1.8599999999999998E-002     6.4619941105903906E-015
  -1.8550000000000001E-002     3.3819735039032262E-014
  -1.8499999999999999E-002     5.7777270643587190E-014
  -1.8450000000000001E-002     7.3966694563047529E-014
  -1.8400000000000000E-002     7.9036084128661984E-014
  -1.8349999999999998E-002     7.1359034734264734E-014
  -1.8300000000000000E-002     5.1481442312373511E-014
  -1.8249999999999999E-002     2.2193472738357517E-014
  -1.8200000000000001E-002    -1.1820269337361682E-014
  -1.8149999999999999E-002    -4.4718866755146681E-014
  -1.8100000000000002E-002    -7.0517976804762331E-014
  -1.8050000000000000E-002    -8.4201674843091923E-014
  -1.7999999999999999E-002    -8.2726627421178946E-014
  -1.7950000000000001E-002    -6.5720963164966384E-014
  -1.7899999999999999E-002    -3.5728369875612090E-014
  -1.7850000000000001E-002     2.0724980300398888E-015
  -1.7800000000000000E-002     4.0648143081766754E-014
  -1.7749999999999998E-002     7.2272105812485936E-014
  -1.7700000000000000E-002     8.9878612405060929E-014
  -1.7649999999999999E-002     8.8380132656735589E-014
  -1.7600000000000001E-002     6.5723571066634327E-014
  -1.7550000000000000E-002     2.3501330201472666E-014
  -1.7499999999999998E-002    -3.2995095099064033E-014
  -1.7450000000000000E-002    -9.5303755610871261E-014
  -1.7399999999999999E-002    -1.5284012748353719E-013
  -1.7350000000000001E-002    -1.9432726379229712E-013
  -1.7299999999999999E-002    -2.0942075799323676E-013
  -1.7250000000000001E-002    -1.9031887028555856E-013
  -1.7200000000000000E-002    -1.3315246464259893E-013
  -1.7149999999999999E-002    -3.8976789010585648E-014
  -1.7100000000000001E-002     8.5770611102475525E-014
  -1.7049999999999999E-002     2.2942959134917656E-013
  -1.7000000000000001E-002     3.7592130992831691E-013
  -1.6950000000000000E-002     5.0616335610315853E-013
  -1.6899999999999998E-002     6.0000200023189553E-013
  -1.6850000000000000E-002     6.3850458028457700E-013
  -1.6799999999999999E-002     6.0639773310526133E-013
  -1.6750000000000001E-002     4.9438713038427919E-013
  -1.6700000000000000E-002     3.0106460796274487E-013
  -1.6649999999999998E-002     3.4113223866693077E-014
  -1.6600000000000000E-002    -2.8943682824517637E-013
  -1.6549999999999999E-002    -6.4405451331375513E-013
  -1.6500000000000001E-002    -9.9767534375565797E-013
  -1.6449999999999999E-002    -1.3146454054102710E-012
  -1.6400000000000001E-002    -1.5593296625490042E-012
  -1.6350000000000000E-002    -1.6999391142100178E-012
  -1.6299999999999999E-002    -1.7120540427277250E-012
  -1.6250000000000001E-002    -1.5813377644440252E-012
  -1.6199999999999999E-002    -1.3050482315935929E-012
  -1.6150000000000001E-002    -8.9215523887534144E-013
  -1.6100000000000000E-002    -3.6212595798476120E-013
  -1.6049999999999998E-002     2.5729799530511851E-013
  -1.6000000000000000E-002     9.3280328609372602E-013
  -1.5949999999999999E-002     1.6280626225600173E-012
  -1.5900000000000001E-002     2.3055649156609961E-012
  -1.5850000000000000E-002     2.9273344870837411E-012
  -1.5799999999999998E-002     3.4544626958815527E-012
  -1.5750000000000000E-002     3.8457481569552670E-012
  -1.5699999999999999E-002     4.0560909783381549E-012
  -1.5650000000000001E-002     4.0355176312790792E-012
  -1.5599999999999999E-002     3.7297792291017793E-012
  -1.5550000000000001E-002     3.0833147179044322E-012
  -1.5500000000000000E-002     2.0450175492046657E-012
  -1.5449999999999998E-002     5.7674722679637997E-013
  -1.5400000000000000E-002    -1.3360234990835039E-012
  -1.5349999999999999E-002    -3.6725385045202161E-012
  -1.5300000000000001E-002    -6.3655197130533317E-012
  -1.5250000000000000E-002    -9.2919444739094074E-012
  -1.5199999999999998E-002    -1.2267289749699140E-011
  -1.5150000000000000E-002    -1.5044332731035245E-011
  -1.5099999999999999E-002    -1.7317068363457602E-011
  -1.5050000000000001E-002    -1.8729711592284807E-011
  -1.4999999999999999E-002    -1.8890169089683374E-011
  -1.4949999999999998E-002    -1.7386911298266205E-011
  -1.4900000000000000E-002    -1.3807870670278881E-011
  -1.4849999999999999E-002    -7.7599056258463937E-012
  -1.4800000000000001E-002     1.1126150160566877E-012
  -1.4749999999999999E-002     1.3111326269383538E-011
  -1.4700000000000001E-002     2.8470510721725324E-011
  -1.4650000000000000E-002     4.7347554088468382E-011
  -1.4599999999999998E-002     6.9817688919013927E-011
  -1.4550000000000000E-002     9.5873215194242741E-011
  -1.4499999999999999E-002     1.2542710692453850E-010
  -1.4450000000000001E-002     1.5832075003825949E-010
  -1.4400000000000000E-002     1.9433512418100782E-010
  -1.4349999999999998E-002     2.3320471439934796E-010
  -1.4300000000000000E-002     2.7463298301528271E-010
  -1.4249999999999999E-002     3.1830834457176992E-010
  -1.4200000000000001E-002     3.6391893774462356E-010
  -1.4149999999999999E-002     4.1116570659196734E-010
  -1.4099999999999998E-002     4.5977247899464162E-010
  -1.4050000000000000E-002     5.0949288421786743E-010
  -1.3999999999999999E-002     5.6011378381586846E-010
  -1.3950000000000001E-002     6.1145627494072540E-010
  -1.3899999999999999E-002     6.6337495852183499E-010
  -1.3850000000000001E-002     7.1575639262282063E-010
  -1.3800000000000000E-002     7.6851817466712079E-010
  -1.3749999999999998E-002     8.2160904073196228E-010
  -1.3700000000000000E-002     8.7501033083435732E-010
  -1.3649999999999999E-002     9.2873855485374797E-010
  -1.3600000000000001E-002     9.8284789201468056E-010
  -1.3550000000000000E-002     1.0374316249204673E-009
  -1.3499999999999998E-002     1.0926207740126149E-009
  -1.3450000000000000E-002     1.1485792313447432E-009
  -1.3399999999999999E-002     1.2054950206471619E-009
  -1.3350000000000001E-002     1.2635672745051193E-009
  -1.3299999999999999E-002     1.3229913269470121E-009
  -1.3249999999999998E-002     1.3839433586348693E-009
  -1.3200000000000000E-002     1.4465668151111576E-009
  -1.3149999999999998E-002     1.5109636945254812E-009
  -1.3100000000000001E-002     1.5771917600155622E-009
  -1.3049999999999999E-002     1.6452689476677458E-009
  -1.3000000000000001E-002     1.7151840152896874E-009
  -1.2950000000000000E-002     1.7869128220358649E-009
  -1.2899999999999998E-002     1.8604351180505471E-009
  -1.2850000000000000E-002     1.9357521422838536E-009
  -1.2799999999999999E-002     2.0128989599739896E-009