  -4.0000000000000001E-002     0.0000000000000000     
  -3.9949999999999999E-002     0.0000000000000000     
  -3.9899999999999998E-002     0.0000000000000000     
  -3.9850000000000003E-002     0.0000000000000000     
  -3.9800000000000002E-002     0.0000000000000000     
  -3.9750000000000001E-002     0.0000000000000000     
  -3.9699999999999999E-002     0.0000000000000000     
  -3.9649999999999998E-002     0.0000000000000000     
  -3.9600000000000003E-002     0.0000000000000000     
  -3.9550000000000002E-002     0.0000000000000000     
  -3.9500000000000000E-002     0.0000000000000000     
  -3.9449999999999999E-002     0.0000000000000000     
  -3.9399999999999998E-002     0.0000000000000000     
  -3.9350000000000003E-002     0.0000000000000000     
  -3.9300000000000002E-002     0.0000000000000000     
  -3.9250000000000000E-002     0.0000000000000000     
  -3.9199999999999999E-002     0.0000000000000000     
  -3.9150000000000004E-002     0.0000000000000000     
  -3.9100000000000003E-002     0.0000000000000000     
  -3.9050000000000001E-002     0.0000000000000000     
  -3.9000000000000000E-002     0.0000000000000000     
  -3.8949999999999999E-002     0.0000000000000000     
  -3.8900000000000004E-002     0.0000000000000000     
  -3.8850000000000003E-002     0.0000000000000000     
  -3.8800000000000001E-002     0.0000000000000000     
  -3.8750000000000000E-002     0.0000000000000000     
  -3.8699999999999998E-002     0.0000000000000000     
  -3.8650000000000004E-002     0.0000000000000000     
  -3.8600000000000002E-002     0.0000000000000000     
  -3.8550000000000001E-002     0.0000000000000000     
  -3.8500000000000000E-002     0.0000000000000000     
  -3.8449999999999998E-002     0.0000000000000000     
  -3.8400000000000004E-002     0.0000000000000000     
  -3.8350000000000002E-002     0.0000000000000000     
  -3.8300000000000001E-002     0.0000000000000000     
  -3.8249999999999999E-002     0.0000000000000000     
  -3.8199999999999998E-002     0.0000000000000000     
  -3.8150000000000003E-002     0.0000000000000000     
  -3.8100000000000002E-002     0.0000000000000000     
  -3.8050000000000000E-002     0.0000000000000000     
  -3.7999999999999999E-002     0.0000000000000000     
  -3.7949999999999998E-002     0.0000000000000000     
  -3.7900000000000003E-002     0.0000000000000000     
  -3.7850000000000002E-002     0.0000000000000000     
  -3.7800000000000000E-002     0.0000000000000000     
  -3.7749999999999999E-002     0.0000000000000000     
  -3.7699999999999997E-002     0.0000000000000000     
  -3.7650000000000003E-002     0.0000000000000000     
  -3.7600000000000001E-002     0.0000000000000000     
  -3.7550000000000000E-002     0.0000000000000000     
  -3.7499999999999999E-002     0.0000000000000000     
  -3.7449999999999997E-002     0.0000000000000000     
  -3.7400000000000003E-002     0.0000000000000000     
  -3.7350000000000001E-002     0.0000000000000000     
  -3.7300000000000000E-002     0.0000000000000000     
  -3.7249999999999998E-002     0.0000000000000000     
  -3.7200000000000004E-002     0.0000000000000000     
  -3.7150000000000002E-002     0.0000000000000000     
  -3.7100000000000001E-002     0.0000000000000000     
  -3.7050000000000000E-002     0.0000000000000000     
  -3.6999999999999998E-002     0.0000000000000000     
  -3.6950000000000004E-002     0.0000000000000000     
  -3.6900000000000002E-002     0.0000000000000000     
  -3.6850000000000001E-002     0.0000000000000000     
  -3.6799999999999999E-002     0.0000000000000000     
  -3.6749999999999998E-002     0.0000000000000000     
  -3.6700000000000003E-002     0.0000000000000000     
  -3.6650000000000002E-002     0.0000000000000000     
  -3.6600000000000001E-002     0.0000000000000000     
  -3.6549999999999999E-002     0.0000000000000000     
  -3.6499999999999998E-002     0.0000000000000000     
  -3.6450000000000003E-002     0.0000000000000000     
  -3.6400000000000002E-002     0.0000000000000000     
  -3.6350000000000000E-002     0.0000000000000000     
  -3.6299999999999999E-002     0.0000000000000000     
  -3.6249999999999998E-002     0.0000000000000000     
  -3.6200000000000003E-002     0.0000000000000000     
  -3.6150000000000002E-002     0.0000000000000000     
  -3.6100000000000000E-002     0.0000000000000000     
  -3.6049999999999999E-002     0.0000000000000000     
  -3.6000000000000004E-002     0.0000000000000000     
  -3.5950000000000003E-002     0.0000000000000000     
  -3.5900000000000001E-002     0.0000000000000000     
  -3.5850000000000000E-002     0.0000000000000000     
  -3.5799999999999998E-002     0.0000000000000000     
  -3.5750000000000004E-002     0.0000000000000000     
  -3.5700000000000003E-002     0.0000000000000000     
  -3.5650000000000001E-002     0.0000000000000000     
  -3.5600000000000000E-002     0.0000000000000000     
  -3.5549999999999998E-002     0.0000000000000000     
  -3.5500000000000004E-002     0.0000000000000000     
  -3.5450000000000002E-002     0.0000000000000000     
  -3.5400000000000001E-002     0.0000000000000000     
  -3.5349999999999999E-002     0.0000000000000000     
  -3.5299999999999998E-002     0.0000000000000000     
  -3.5250000000000004E-002     0.0000000000000000     
  -3.5200000000000002E-002     0.0000000000000000     
  -3.5150000000000001E-002     0.0000000000000000     
  -3.5099999999999999E-002     0.0000000000000000     
  -3.5049999999999998E-002     0.0000000000000000     
  -3.5000000000000003E-002     0.0000000000000000     
  -3.4950000000000002E-002     0.0000000000000000     
  -3.4900000000000000E-002     0.0000000000000000     
  -3.4849999999999999E-002     0.0000000000000000     
  -3.4799999999999998E-002     0.0000000000000000     
  -3.4750000000000003E-002     0.0000000000000000     
  -3.4700000000000002E-002     0.0000000000000000     
  -3.4650000000000000E-002     0.0000000000000000     
  -3.4599999999999999E-002     0.0000000000000000     
  -3.4549999999999997E-002     0.0000000000000000     
  -3.4500000000000003E-002     0.0000000000000000     
  -3.4450000000000001E-002     0.0000000000000000     
  -3.4400000000000000E-002     0.0000000000000000     
  -3.4349999999999999E-002     0.0000000000000000     
  -3.4299999999999997E-002     0.0000000000000000     
  -3.4250000000000003E-002     0.0000000000000000     
  -3.4200000000000001E-002     0.0000000000000000     
  -3.4150000000000000E-002     0.0000000000000000     
  -3.4099999999999998E-002     0.0000000000000000     
  -3.4049999999999997E-002     0.0000000000000000     
  -3.4000000000000002E-002     0.0000000000000000     
  -3.3950000000000001E-002     0.0000000000000000     
  -3.3900000000000000E-002     0.0000000000000000     
  -3.3849999999999998E-002     0.0000000000000000     
  -3.3799999999999997E-002     0.0000000000000000     
  -3.3750000000000002E-002     0.0000000000000000     
  -3.3700000000000001E-002     0.0000000000000000     
  -3.3649999999999999E-002     0.0000000000000000     
  -3.3599999999999998E-002     0.0000000000000000     
  -3.3550000000000003E-002     0.0000000000000000     
  -3.3500000000000002E-002     0.0000000000000000     
  -3.3450000000000001E-002     0.0000000000000000     
  -3.3399999999999999E-002     0.0000000000000000     
  -3.3349999999999998E-002     0.0000000000000000     
  -3.3300000000000003E-002     0.0000000000000000     
  -3.3250000000000002E-002     0.0000000000000000     
  -3.3200000000000000E-002     0.0000000000000000     
  -3.3149999999999999E-002     0.0000000000000000     
  -3.3099999999999997E-002     0.0000000000000000     
  -3.3050000000000003E-002     0.0000000000000000     
  -3.3000000000000002E-002     0.0000000000000000     
  -3.2950000000000000E-002     0.0000000000000000     
  -3.2899999999999999E-002     0.0000000000000000     
  -3.2850000000000004E-002     0.0000000000000000     
  -3.2800000000000003E-002     0.0000000000000000     
  -3.2750000000000001E-002     0.0000000000000000     
  -3.2700000000000000E-002     0.0000000000000000     
  -3.2649999999999998E-002     0.0000000000000000     
  -3.2600000000000004E-002     0.0000000000000000     
  -3.2550000000000003E-002     0.0000000000000000     
  -3.2500000000000001E-002     0.0000000000000000     
  -3.2450000000000000E-002     0.0000000000000000     
  -3.2399999999999998E-002     0.0000000000000000     
  -3.2350000000000004E-002     0.0000000000000000     
  -3.2300000000000002E-002     0.0000000000000000     
  -3.2250000000000001E-002     0.0000000000000000     
  -3.2199999999999999E-002     0.0000000000000000     
  -3.2149999999999998E-002     0.0000000000000000     
  -3.2100000000000004E-002     0.0000000000000000     
  -3.2050000000000002E-002     0.0000000000000000     
  -3.2000000000000001E-002     0.0000000000000000     
  -3.1949999999999999E-002     0.0000000000000000     
  -3.1899999999999998E-002     0.0000000000000000     
  -3.1850000000000003E-002     0.0000000000000000     
  -3.1800000000000002E-002     0.0000000000000000     
  -3.1750000000000000E-002     0.0000000000000000     
  -3.1699999999999999E-002     0.0000000000000000     
  -3.1649999999999998E-002     0.0000000000000000     
  -3.1600000000000003E-002     0.0000000000000000     
  -3.1550000000000002E-002     0.0000000000000000     
  -3.1500000000000000E-002     0.0000000000000000     
  -3.1449999999999999E-002     0.0000000000000000     
  -3.1399999999999997E-002     0.0000000000000000     
  -3.1350000000000003E-002     0.0000000000000000     
  -3.1300000000000001E-002     0.0000000000000000     
  -3.1250000000000000E-002     0.0000000000000000     
  -3.1199999999999999E-002     0.0000000000000000     
  -3.1150000000000001E-002     0.0000000000000000     
  -3.1100000000000003E-002     0.0000000000000000     
  -3.1050000000000001E-002     0.0000000000000000     
  -3.1000000000000000E-002     0.0000000000000000     
  -3.0949999999999998E-002     0.0000000000000000     
  -3.0900000000000000E-002     0.0000000000000000     
  -3.0850000000000002E-002     0.0000000000000000     
  -3.0800000000000001E-002     0.0000000000000000     
  -3.0750000000000000E-002     0.0000000000000000     
  -3.0699999999999998E-002     0.0000000000000000     
  -3.0650000000000000E-002     0.0000000000000000     
  -3.0600000000000002E-002     0.0000000000000000     
  -3.0550000000000001E-002     0.0000000000000000     
  -3.0499999999999999E-002     0.0000000000000000     
  -3.0449999999999998E-002     0.0000000000000000     
  -3.0400000000000000E-002     0.0000000000000000     
  -3.0350000000000002E-002     0.0000000000000000     
  -3.0300000000000001E-002     0.0000000000000000     
  -3.0249999999999999E-002     0.0000000000000000     
  -3.0200000000000001E-002     0.0000000000000000     
  -3.0150000000000000E-002     0.0000000000000000     
  -3.0100000000000002E-002     0.0000000000000000     
  -3.0050000000000000E-002     0.0000000000000000     
  -2.9999999999999999E-002     0.0000000000000000     
  -2.9950000000000001E-002     0.0000000000000000     
  -2.9899999999999999E-002     0.0000000000000000     
  -2.9850000000000002E-002     0.0000000000000000     
  -2.9800000000000000E-002     0.0000000000000000     
  -2.9749999999999999E-002     0.0000000000000000     
  -2.9700000000000001E-002     0.0000000000000000     
  -2.9650000000000003E-002     0.0000000000000000     
  -2.9600000000000001E-002     0.0000000000000000     
  -2.9550000000000000E-002     0.0000000000000000     
  -2.9499999999999998E-002     0.0000000000000000     
  -2.9450000000000000E-002     0.0000000000000000     
  -2.9400000000000003E-002     0.0000000000000000     
  -2.9350000000000001E-002     0.0000000000000000     
  -2.9300000000000000E-002     0.0000000000000000     
  -2.9249999999999998E-002     0.0000000000000000     
  -2.9200000000000000E-002     0.0000000000000000     
  -2.9150000000000002E-002     0.0000000000000000     
  -2.9100000000000001E-002     0.0000000000000000     
  -2.9049999999999999E-002     0.0000000000000000     
  -2.8999999999999998E-002     0.0000000000000000     
  -2.8950000000000000E-002     0.0000000000000000     
  -2.8900000000000002E-002     0.0000000000000000     
  -2.8850000000000001E-002     0.0000000000000000     
  -2.8799999999999999E-002     0.0000000000000000     
  -2.8749999999999998E-002     0.0000000000000000     
  -2.8700000000000000E-002     0.0000000000000000     
  -2.8650000000000002E-002     0.0000000000000000     
  -2.8600000000000000E-002     0.0000000000000000     
  -2.8549999999999999E-002     0.0000000000000000     
  -2.8500000000000001E-002     0.0000000000000000     
  -2.8450000000000000E-002     0.0000000000000000     
  -2.8400000000000002E-002     0.0000000000000000     
  -2.8350000000000000E-002     0.0000000000000000     
  -2.8299999999999999E-002     0.0000000000000000     
  -2.8250000000000001E-002     0.0000000000000000     
  -2.8200000000000003E-002     0.0000000000000000     
  -2.8150000000000001E-002     0.0000000000000000     
  -2.8100000000000000E-002     0.0000000000000000     
  -2.8049999999999999E-002     0.0000000000000000     
  -2.8000000000000001E-002     0.0000000000000000     
  -2.7950000000000003E-002     0.0000000000000000     
  -2.7900000000000001E-002     0.0000000000000000     
  -2.7850000000000000E-002     0.0000000000000000     
  -2.7799999999999998E-002     0.0000000000000000     
  -2.7750000000000000E-002     0.0000000000000000     
  -2.7700000000000002E-002     0.0000000000000000     
  -2.7650000000000001E-002     0.0000000000000000     
  -2.7600000000000000E-002     0.0000000000000000     
  -2.7549999999999998E-002     0.0000000000000000     
  -2.7500000000000000E-002     0.0000000000000000     
  -2.7450000000000002E-002     0.0000000000000000     
  -2.7400000000000001E-002     0.0000000000000000     
  -2.7349999999999999E-002     0.0000000000000000     
  -2.7299999999999998E-002     0.0000000000000000     
  -2.7250000000000000E-002     0.0000000000000000     
  -2.7200000000000002E-002     0.0000000000000000     
  -2.7150000000000001E-002     0.0000000000000000     
  -2.7099999999999999E-002     0.0000000000000000     
  -2.7049999999999998E-002     0.0000000000000000     
  -2.7000000000000000E-002     0.0000000000000000     
  -2.6950000000000002E-002     0.0000000000000000     
  -2.6900000000000000E-002     0.0000000000000000     
  -2.6849999999999999E-002     0.0000000000000000     
  -2.6800000000000001E-002     0.0000000000000000     
  -2.6749999999999999E-002     0.0000000000000000     
  -2.6700000000000002E-002     0.0000000000000000     
  -2.6650000000000000E-002     0.0000000000000000     
  -2.6599999999999999E-002     0.0000000000000000     
  -2.6550000000000001E-002     0.0000000000000000     
  -2.6500000000000003E-002     0.0000000000000000     
  -2.6450000000000001E-002     0.0000000000000000     
  -2.6400000000000000E-002     0.0000000000000000     
  -2.6349999999999998E-002     0.0000000000000000     
  -2.6300000000000000E-002     0.0000000000000000     
  -2.6250000000000002E-002     0.0000000000000000     
  -2.6200000000000001E-002     0.0000000000000000     
  -2.6150000000000000E-002     0.0000000000000000     
  -2.6099999999999998E-002     0.0000000000000000     
  -2.6050000000000000E-002     0.0000000000000000     
  -2.6000000000000002E-002     0.0000000000000000     
  -2.5950000000000001E-002     0.0000000000000000     
  -2.5899999999999999E-002     0.0000000000000000     
  -2.5849999999999998E-002     0.0000000000000000     
  -2.5800000000000000E-002     0.0000000000000000     
  -2.5750000000000002E-002     0.0000000000000000     
  -2.5700000000000001E-002     0.0000000000000000     
  -2.5649999999999999E-002     0.0000000000000000     
  -2.5599999999999998E-002     0.0000000000000000     
  -2.5550000000000000E-002     0.0000000000000000     
  -2.5500000000000002E-002     0.0000000000000000     
  -2.5450000000000000E-002     0.0000000000000000     
  -2.5399999999999999E-002     0.0000000000000000     
  -2.5349999999999998E-002     0.0000000000000000     
  -2.5300000000000000E-002     0.0000000000000000     
  -2.5250000000000002E-002     0.0000000000000000     
  -2.5200000000000000E-002     0.0000000000000000     
  -2.5149999999999999E-002     0.0000000000000000     
  -2.5100000000000001E-002     0.0000000000000000     
  -2.5049999999999999E-002     0.0000000000000000     
  -2.5000000000000001E-002     0.0000000000000000     
  -2.4950000000000000E-002     0.0000000000000000     
  -2.4899999999999999E-002     0.0000000000000000     
  -2.4850000000000001E-002     0.0000000000000000     
  -2.4800000000000003E-002     0.0000000000000000     
  -2.4750000000000001E-002     0.0000000000000000     
  -2.4700000000000000E-002     0.0000000000000000     
  -2.4649999999999998E-002     0.0000000000000000     
  -2.4600000000000000E-002     0.0000000000000000     
  -2.4550000000000002E-002     0.0000000000000000     
  -2.4500000000000001E-002     0.0000000000000000     
  -2.4450000000000000E-002     0.0000000000000000     
  -2.4399999999999998E-002     0.0000000000000000     
  -2.4350000000000000E-002     0.0000000000000000     
  -2.4299999999999999E-002     0.0000000000000000     
  -2.4250000000000001E-002     0.0000000000000000     
  -2.4199999999999999E-002     0.0000000000000000     
  -2.4150000000000001E-002     0.0000000000000000     
  -2.4100000000000000E-002     0.0000000000000000     
  -2.4049999999999998E-002     0.0000000000000000     
  -2.4000000000000000E-002     0.0000000000000000     
  -2.3949999999999999E-002     0.0000000000000000     
  -2.3900000000000001E-002     0.0000000000000000     
  -2.3850000000000000E-002     0.0000000000000000     
  -2.3800000000000002E-002     0.0000000000000000     
  -2.3750000000000000E-002     0.0000000000000000     
  -2.3699999999999999E-002     1.8223658934776996E-039
  -2.3650000000000001E-002     5.4461735274706320E-039
  -2.3599999999999999E-002     8.6605755747860879E-039
  -2.3550000000000001E-002     3.7349965092598626E-039
  -2.3500000000000000E-002    -9.2928946923819237E-039
  -2.3449999999999999E-002    -2.6590459741049662E-038
  -2.3400000000000001E-002    -3.9271356245316740E-038
  -2.3349999999999999E-002    -3.7015402852941590E-038
  -2.3300000000000001E-002    -2.4273829654594441E-039
  -2.3250000000000000E-002     5.9918016606293221E-038
  -2.3199999999999998E-002     1.2063944322243373E-037
  -2.3150000000000000E-002     1.6628461517478755E-037
  -2.3099999999999999E-002     1.4624225698702847E-037
  -2.3050000000000001E-002     7.4594235307681088E-038
  -2.3000000000000000E-002    -6.1647690239018285E-038
  -2.2950000000000002E-002    -2.4148118297213162E-037
  -2.2900000000000000E-002    -3.9446822567538919E-037
  -2.2849999999999999E-002    -4.6928195605326144E-037
  -2.2800000000000001E-002    -3.9470145859468007E-037
  -2.2749999999999999E-002    -1.5150822780913771E-037
  -2.2700000000000001E-002     2.0755726035222000E-037
  -2.2650000000000000E-002     5.9181907817160131E-037
  -2.2599999999999999E-002     9.0265344366329374E-037
  -2.2550000000000001E-002     1.0440437634425622E-036
  -2.2499999999999999E-002     9.5865248881035569E-037
  -2.2450000000000001E-002     6.1816804633740454E-037
  -2.2400000000000000E-002     2.6457788691664661E-038
  -2.2349999999999998E-002    -7.5302082392045982E-037
  -2.2300000000000000E-002    -1.5863630109619442E-036
  -2.2249999999999999E-002    -2.2778058916783600E-036
  -2.2200000000000001E-002    -2.6184031319566390E-036
  -2.2150000000000000E-002    -2.4386669689280173E-036
  -2.2100000000000002E-002    -1.6689426761581858E-036
  -2.2050000000000000E-002    -3.0243619200096602E-037
  -2.1999999999999999E-002     1.6009637806411423E-036
  -2.1950000000000001E-002     3.9160948958856868E-036
  -2.1899999999999999E-002     6.3900440009375427E-036
  -2.1850000000000001E-002     8.5134696171411070E-036
  -2.1800000000000000E-002     9.4570696614436677E-036
  -2.1749999999999999E-002     8.1533721702511115E-036
  -2.1700000000000001E-002     3.6016236784532109E-036
  -2.1649999999999999E-002    -4.6339825220910840E-036
  -2.1600000000000001E-002    -1.5865112627802335E-035
  -2.1550000000000000E-002    -2.7882755445503255E-035
  -2.1499999999999998E-002    -3.6938757439577836E-035
  -2.1450000000000000E-002    -3.8321061475414408E-035
  -2.1399999999999999E-002    -2.7599898309083446E-035
  -2.1350000000000001E-002    -2.4188493202478248E-036
  -2.1299999999999999E-002     3.5583546952986979E-035
  -2.1250000000000002E-002     7.9379536669223308E-035
  -2.1200000000000000E-002     1.1660468679337469E-034
  -2.1149999999999999E-002     1.3158387610435870E-034
  -2.1100000000000001E-002     1.0954526406099205E-034
  -2.1049999999999999E-002     4.2287786792912628E-035
  -2.1000000000000001E-002    -6.6246138821524860E-035
  -2.0950000000000000E-002    -1.9658117278364642E-034
  -2.0899999999999998E-002    -3.1451691178843865E-034
  -2.0850000000000000E-002    -3.7729683778312700E-034
  -2.0799999999999999E-002    -3.4479318654594004E-034
  -2.0750000000000001E-002    -1.9352666187415650E-034
  -2.0700000000000000E-002     7.0275989759604334E-035
  -2.0649999999999998E-002     4.0317682833839882E-034
  -2.0600000000000000E-002     7.2663367994607644E-034
  -2.0549999999999999E-002     9.4074240740530391E-034
  -2.0500000000000001E-002     9.4839734606975319E-034
  -2.0449999999999999E-002     6.8501197197259351E-034
  -2.0400000000000001E-002     1.4607572700454260E-034
  -2.0350000000000000E-002    -5.9615857316538906E-034
  -2.0299999999999999E-002    -1.3939726235696706E-033
  -2.0250000000000001E-002    -2.0465531259747447E-033
  -2.0199999999999999E-002    -2.3410533775491985E-033
  -2.0150000000000001E-002    -2.1045837360069588E-033
  -2.0100000000000000E-002    -1.2557517191593581E-033
  -2.0049999999999998E-002     1.5644160006765769E-034
  -2.0000000000000000E-002     1.9363636678158860E-033
  -1.9949999999999999E-002     3.7538711284278193E-033
  -1.9900000000000001E-002     5.1855038811999057E-033
  -1.9850000000000000E-002     5.7812683527867861E-033
  -1.9799999999999998E-002     5.1507259104826085E-033
  -1.9750000000000000E-002     3.0602462861138072E-033
  -1.9699999999999999E-002    -4.6919064561330727E-034
  -1.9650000000000001E-002    -5.0789170338395341E-033
  -1.9599999999999999E-002    -1.0026664422006925E-032
  -1.9550000000000001E-002    -1.4207626115698786E-032
  -1.9500000000000000E-002    -1.6274845945813212E-032
  -1.9449999999999999E-002    -1.4882168406977971E-032
  -1.9400000000000001E-002    -9.0468315525881447E-033
  -1.9349999999999999E-002     1.4149296202458456E-033
  -1.9300000000000001E-002     1.5479408436139047E-032
  -1.9250000000000000E-002     3.0680591986863674E-032
  -1.9199999999999998E-002     4.3211655729998869E-032
  -1.9150000000000000E-002     4.8489206917907404E-032
  -1.9099999999999999E-002     4.2206421153608238E-032
  -1.9050000000000001E-002     2.1745150647885482E-032
  -1.9000000000000000E-002    -1.2361029837128725E-032
  -1.8949999999999998E-002    -5.5365583451379099E-032
  -1.8900000000000000E-002    -9.8148222186422057E-032
  -1.8849999999999999E-002    -1.2834659302019915E-031
  -1.8800000000000001E-002    -1.3289440094479415E-031
  -1.8749999999999999E-002    -1.0166632646319601E-031
  -1.8700000000000001E-002    -3.1474720737289330E-032
  -1.8650000000000000E-002     7.0696135129471970E-032
  -1.8599999999999998E-002     1.8644629557328329E-031
  -1.8550000000000001E-002     2.8769562753155738E-031
  -1.8499999999999999E-002     3.4176966646655616E-031
  -1.8450000000000001E-002     3.1930547424449856E-031
  -1.8400000000000000E-002     2.0346540321894480E-031
  -1.8349999999999998E-002    -1.8313990719142853E-033
  -1.8300000000000000E-002    -2.6724256799365679E-031
  -1.8249999999999999E-002    -5.3909986967688025E-031
  -1.8200000000000001E-002    -7.4737132954975306E-031
  -1.8149999999999999E-002    -8.1995810029481325E-031
  -1.8100000000000002E-002    -7.0098452952133469E-031
  -1.8050000000000000E-002    -3.6921223188343574E-031
  -1.7999999999999999E-002     1.4807843202644469E-031
  -1.7950000000000001E-002     7.7014293070625648E-031
  -1.7899999999999999E-002     1.3697943253008264E-030
  -1.7850000000000001E-002     1.7931357717505022E-030
  -1.7800000000000000E-002     1.8899705756263196E-030
  -1.7749999999999998E-002     1.5501582537802867E-030
  -1.7700000000000000E-002     7.3908889263880547E-031
  -1.7649999999999999E-002    -4.7558739267934117E-031
  -1.7600000000000001E-002    -1.9135757870186826E-030
  -1.7550000000000000E-002    -3.2938501095707429E-030
  -1.7499999999999998E-002    -4.2718324330891303E-030
  -1.7450000000000000E-002    -4.5006405326163977E-030
  -1.7399999999999999E-002    -3.7101052141144192E-030
  -1.7350000000000001E-002    -1.7917398881549703E-030
  -1.7299999999999999E-002     1.1273284816537530E-030
  -1.7250000000000001E-002     4.6419341509594291E-030
  -1.7200000000000000E-002     8.0786287436570808E-030
  -1.7149999999999999E-002     1.0573487862894050E-029
  -1.7100000000000001E-002     1.1222891311721526E-029
  -1.7049999999999999E-002     9.2952965000244664E-030
  -1.7000000000000001E-002     4.4713174381099404E-030
  -1.6950000000000000E-002    -2.9405820771603441E-030
  -1.6899999999999998E-002    -1.1878532945996937E-029
  -1.6850000000000000E-002    -2.0556887418895286E-029
  -1.6799999999999999E-002    -2.6696382505193674E-029
  -1.6750000000000001E-002    -2.7960271002425490E-029
  -1.6700000000000000E-002    -2.2546177540165803E-029
  -1.6649999999999998E-002    -9.8233452602889901E-030
  -1.6600000000000000E-002     9.1435714040532086E-030
  -1.6549999999999999E-002     3.1361550660002919E-029
  -1.6500000000000001E-002     5.2118445847756329E-029
  -1.6449999999999999E-002     6.5709108759368193E-029
  -1.6400000000000001E-002     6.6633207771616340E-029
  -1.6350000000000000E-002     5.1078328195145170E-029
  -1.6299999999999999E-002     1.8373314311354148E-029
  -1.6250000000000001E-002    -2.7979497461240552E-029
  -1.6199999999999999E-002    -8.0074861347431616E-029
  -1.6150000000000001E-002    -1.2644532493501761E-028
  -1.6100000000000000E-002    -1.5402641826480688E-028
  -1.6049999999999998E-002    -1.5102319555801458E-028
  -1.6000000000000000E-002    -1.1017210939288640E-028
  -1.5949999999999999E-002    -3.1675246644573961E-029
  -1.5900000000000001E-002     7.4997756594924997E-029
  -1.5850000000000000E-002     1.9114454545457285E-028
  -1.5799999999999998E-002     2.9111201461934560E-028
  -1.5750000000000000E-002     3.4678487885154742E-028
  -1.5699999999999999E-002     3.3370737067191485E-028
  -1.5650000000000001E-002     2.3776104572245651E-028
  -1.5599999999999999E-002     6.0966077451467682E-029
  -1.5550000000000001E-002    -1.7512914996073130E-028
  -1.5500000000000000E-002    -4.2978630777505112E-028
  -1.5449999999999998E-002    -6.4790789059846784E-028
  -1.5400000000000000E-002    -7.6929737278504181E-028
  -1.5349999999999999E-002    -7.4129031722560620E-028
  -1.5300000000000001E-002    -5.3272150159076337E-028
  -1.5250000000000000E-002    -1.4641850242963719E-028
  -1.5199999999999998E-002     3.7293798564256276E-028
  -1.5150000000000000E-002     9.3850842373042846E-028
  -1.5099999999999999E-002     1.4305355548488033E-027
  -1.5050000000000001E-002     1.7155068317750601E-027
  -1.4999999999999999E-002     1.6734817639130416E-027
  -1.4949999999999998E-002     1.2294870468716744E-027
  -1.4900000000000000E-002     3.8281329874825246E-028
  -1.4849999999999999E-002    -7.7319040260982472E-028
  -1.4800000000000001E-002    -2.0480781069999985E-027
  -1.4749999999999999E-002    -3.1733654260265357E-027
  -1.4700000000000001E-002    -3.8452463670455111E-027
  -1.4650000000000000E-002    -3.7872593630142139E-027
  -1.4599999999999998E-002    -2.8233076543926013E-027
  -1.4550000000000000E-002    -9.4619749952991744E-028
  -1.4499999999999999E-002     1.6361614362468789E-027
  -1.4450000000000001E-002     4.4941759518357056E-027
  -1.4400000000000000E-002     7.0218076676270690E-027
  -1.4349999999999998E-002     8.5363057183041741E-027
  -1.4300000000000000E-002     8.4223009299567456E-027
  -1.4249999999999999E-002     6.2965451932368838E-027
  -1.4200000000000001E-002     2.1582972071199483E-027
  -1.4149999999999999E-002    -3.5149191279152342E-027
  -1.4099999999999998E-002    -9.7630989176764511E-027
  -1.4050000000000000E-002    -1.5254592342890650E-026
  -1.3999999999999999E-002    -1.8513021476233060E-026
  -1.3950000000000001E-002    -1.8233264233610314E-026
  -1.3899999999999999E-002    -1.3631544700890093E-026
  -1.3850000000000001E-002    -4.7537305887321497E-027
  -1.3800000000000000E-002     7.3413120848244911E-027
  -1.3749999999999998E-002     2.0595236146035002E-026
  -1.3700000000000000E-002     3.2201756485720372E-026
  -1.3649999999999999E-002     3.9090034616222789E-026
  -1.3600000000000001E-002     3.8578075822055311E-026
  -1.3550000000000000E-002     2.9081252087046521E-026
  -1.3499999999999998E-002     1.0723944960744910E-026
  -1.3450000000000000E-002    -1.4307607461648976E-026
  -1.3399999999999999E-002    -4.1807805881370561E-026
  -1.3350000000000001E-002    -6.6064530351593198E-026
  -1.3299999999999999E-002    -8.0826395764484040E-026
  -1.3249999999999998E-002    -8.0602647194158339E-026
  -1.3200000000000000E-002    -6.2073733407710874E-026
  -1.3149999999999998E-002    -2.5319253285117596E-026
  -1.3100000000000001E-002     2.5451000874188149E-026
  -1.3049999999999999E-002     8.1933432886808885E-026
  -1.3000000000000001E-002     1.3269221555782543E-025
  -1.2950000000000000E-002     1.6503270948040936E-025
  -1.2899999999999998E-002     1.6756847225260927E-025
  -1.2850000000000000E-002     1.3306243802324586E-025
  -1.2799999999999999E-002     6.0969894177535630E-026