  -4.0000000000000001E-002     0.0000000000000000     
  -3.9949999999999999E-002     0.0000000000000000     
  -3.9899999999999998E-002     0.0000000000000000     
  -3.9850000000000003E-002     0.0000000000000000     
  -3.9800000000000002E-002     0.0000000000000000     
  -3.9750000000000001E-002     0.0000000000000000     
  -3.9699999999999999E-002     0.0000000000000000     
  -3.9649999999999998E-002     0.0000000000000000     
  -3.9600000000000003E-002     0.0000000000000000     
  -3.9550000000000002E-002     0.0000000000000000     
  -3.9500000000000000E-002     0.0000000000000000     
  -3.9449999999999999E-002     0.0000000000000000     
  -3.9399999999999998E-002     0.0000000000000000     
  -3.9350000000000003E-002     0.0000000000000000     
  -3.9300000000000002E-002     0.0000000000000000     
  -3.9250000000000000E-002     0.0000000000000000     
  -3.9199999999999999E-002     0.0000000000000000     
  -3.9150000000000004E-002     0.0000000000000000     
  -3.9100000000000003E-002     0.0000000000000000     
  -3.9050000000000001E-002     0.0000000000000000     
  -3.9000000000000000E-002     0.0000000000000000     
  -3.8949999999999999E-002     0.0000000000000000     
  -3.8900000000000004E-002     0.0000000000000000     
  -3.8850000000000003E-002     0.0000000000000000     
  -3.8800000000000001E-002     0.0000000000000000     
  -3.8750000000000000E-002     0.0000000000000000     
  -3.8699999999999998E-002     0.0000000000000000     
  -3.8650000000000004E-002     0.0000000000000000     
  -3.8600000000000002E-002     0.0000000000000000     
  -3.8550000000000001E-002     0.0000000000000000     
  -3.8500000000000000E-002     0.0000000000000000     
  -3.8449999999999998E-002     0.0000000000000000     
  -3.8400000000000004E-002     0.0000000000000000     
  -3.8350000000000002E-002     0.0000000000000000     
  -3.8300000000000001E-002     0.0000000000000000     
  -3.8249999999999999E-002     0.0000000000000000     
  -3.8199999999999998E-002     0.0000000000000000     
  -3.8150000000000003E-002     0.0000000000000000     
  -3.8100000000000002E-002     0.0000000000000000     
  -3.8050000000000000E-002     0.0000000000000000     
  -3.7999999999999999E-002     0.0000000000000000     
  -3.7949999999999998E-002     0.0000000000000000     
  -3.7900000000000003E-002     0.0000000000000000     
  -3.7850000000000002E-002     0.0000000000000000     
  -3.7800000000000000E-002     0.0000000000000000     
  -3.7749999999999999E-002     0.0000000000000000     
  -3.7699999999999997E-002     0.0000000000000000     
  -3.7650000000000003E-002     0.0000000000000000     
  -3.7600000000000001E-002     0.0000000000000000     
  -3.7550000000000000E-002     0.0000000000000000     
  -3.7499999999999999E-002     0.0000000000000000     
  -3.7449999999999997E-002     0.0000000000000000     
  -3.7400000000000003E-002     0.0000000000000000     
  -3.7350000000000001E-002     0.0000000000000000     
  -3.7300000000000000E-002     0.0000000000000000     
  -3.7249999999999998E-002     0.0000000000000000     
  -3.7200000000000004E-002     0.0000000000000000     
  -3.7150000000000002E-002     0.0000000000000000     
  -3.7100000000000001E-002     0.0000000000000000     
  -3.7050000000000000E-002     0.0000000000000000     
  -3.6999999999999998E-002     0.0000000000000000     
  -3.6950000000000004E-002     0.0000000000000000     
  -3.6900000000000002E-002     0.0000000000000000     
  -3.6850000000000001E-002     0.0000000000000000     
  -3.6799999999999999E-002     0.0000000000000000     
  -3.6749999999999998E-002     0.0000000000000000     
  -3.6700000000000003E-002     0.0000000000000000     
  -3.6650000000000002E-002     0.0000000000000000     
  -3.6600000000000001E-002     0.0000000000000000     
  -3.6549999999999999E-002     0.0000000000000000     
  -3.6499999999999998E-002     0.0000000000000000     
  -3.6450000000000003E-002     0.0000000000000000     
  -3.6400000000000002E-002     0.0000000000000000     
  -3.6350000000000000E-002     0.0000000000000000     
  -3.6299999999999999E-002     0.0000000000000000     
  -3.6249999999999998E-002     0.0000000000000000     
  -3.6200000000000003E-002     0.0000000000000000     
  -3.6150000000000002E-002     0.0000000000000000     
  -3.6100000000000000E-002     0.0000000000000000     
  -3.6049999999999999E-002     0.0000000000000000     
  -3.6000000000000004E-002     0.0000000000000000     
  -3.5950000000000003E-002     0.0000000000000000     
  -3.5900000000000001E-002     0.0000000000000000     
  -3.5850000000000000E-002     0.0000000000000000     
  -3.5799999999999998E-002     0.0000000000000000     
  -3.5750000000000004E-002     0.0000000000000000     
  -3.5700000000000003E-002     0.0000000000000000     
  -3.5650000000000001E-002     0.0000000000000000     
  -3.5600000000000000E-002     0.0000000000000000     
  -3.5549999999999998E-002     0.0000000000000000     
  -3.5500000000000004E-002     0.0000000000000000     
  -3.5450000000000002E-002     0.0000000000000000     
  -3.5400000000000001E-002     0.0000000000000000     
  -3.5349999999999999E-002     0.0000000000000000     
  -3.5299999999999998E-002     0.0000000000000000     
  -3.5250000000000004E-002     0.0000000000000000     
  -3.5200000000000002E-002     0.0000000000000000     
  -3.5150000000000001E-002     0.0000000000000000     
  -3.5099999999999999E-002     0.0000000000000000     
  -3.5049999999999998E-002     0.0000000000000000     
  -3.5000000000000003E-002     0.0000000000000000     
  -3.4950000000000002E-002     0.0000000000000000     
  -3.4900000000000000E-002     0.0000000000000000     
  -3.4849999999999999E-002     0.0000000000000000     
  -3.4799999999999998E-002     0.0000000000000000     
  -3.4750000000000003E-002     0.0000000000000000     
  -3.4700000000000002E-002     0.0000000000000000     
  -3.4650000000000000E-002     0.0000000000000000     
  -3.4599999999999999E-002     0.0000000000000000     
  -3.4549999999999997E-002     0.0000000000000000     
  -3.4500000000000003E-002     0.0000000000000000     
  -3.4450000000000001E-002     0.0000000000000000     
  -3.4400000000000000E-002     0.0000000000000000     
  -3.4349999999999999E-002     0.0000000000000000     
  -3.4299999999999997E-002     0.0000000000000000     
  -3.4250000000000003E-002     0.0000000000000000     
  -3.4200000000000001E-002     0.0000000000000000     
  -3.4150000000000000E-002     0.0000000000000000     
  -3.4099999999999998E-002     0.0000000000000000     
  -3.4049999999999997E-002     0.0000000000000000     
  -3.4000000000000002E-002     0.0000000000000000     
  -3.3950000000000001E-002     0.0000000000000000     
  -3.3900000000000000E-002     0.0000000000000000     
  -3.3849999999999998E-002     0.0000000000000000     
  -3.3799999999999997E-002     0.0000000000000000     
  -3.3750000000000002E-002     0.0000000000000000     
  -3.3700000000000001E-002     0.0000000000000000     
  -3.3649999999999999E-002     0.0000000000000000     
  -3.3599999999999998E-002     0.0000000000000000     
  -3.3550000000000003E-002     0.0000000000000000     
  -3.3500000000000002E-002     0.0000000000000000     
  -3.3450000000000001E-002     0.0000000000000000     
  -3.3399999999999999E-002     0.0000000000000000     
  -3.3349999999999998E-002     0.0000000000000000     
  -3.3300000000000003E-002     0.0000000000000000     
  -3.3250000000000002E-002     0.0000000000000000     
  -3.3200000000000000E-002     0.0000000000000000     
  -3.3149999999999999E-002     0.0000000000000000     
  -3.3099999999999997E-002     0.0000000000000000     
  -3.3050000000000003E-002     0.0000000000000000     
  -3.3000000000000002E-002     0.0000000000000000     
  -3.2950000000000000E-002     0.0000000000000000     
  -3.2899999999999999E-002     0.0000000000000000     
  -3.2850000000000004E-002     0.0000000000000000     
  -3.2800000000000003E-002     0.0000000000000000     
  -3.2750000000000001E-002     0.0000000000000000     
  -3.2700000000000000E-002     0.0000000000000000     
  -3.2649999999999998E-002     0.0000000000000000     
  -3.2600000000000004E-002     0.0000000000000000     
  -3.2550000000000003E-002     0.0000000000000000     
  -3.2500000000000001E-002     0.0000000000000000     
  -3.2450000000000000E-002     0.0000000000000000     
  -3.2399999999999998E-002     0.0000000000000000     
  -3.2350000000000004E-002     0.0000000000000000     
  -3.2300000000000002E-002     0.0000000000000000     
  -3.2250000000000001E-002     0.0000000000000000     
  -3.2199999999999999E-002     0.0000000000000000     
  -3.2149999999999998E-002     0.0000000000000000     
  -3.2100000000000004E-002     0.0000000000000000     
  -3.2050000000000002E-002     0.0000000000000000     
  -3.2000000000000001E-002     0.0000000000000000     
  -3.1949999999999999E-002     0.0000000000000000     
  -3.1899999999999998E-002     0.0000000000000000     
  -3.1850000000000003E-002     0.0000000000000000     
  -3.1800000000000002E-002     0.0000000000000000     
  -3.1750000000000000E-002     0.0000000000000000     
  -3.1699999999999999E-002     0.0000000000000000     
  -3.1649999999999998E-002     0.0000000000000000     
  -3.1600000000000003E-002     0.0000000000000000     
  -3.1550000000000002E-002     0.0000000000000000     
  -3.1500000000000000E-002     0.0000000000000000     
  -3.1449999999999999E-002     0.0000000000000000     
  -3.1399999999999997E-002     0.0000000000000000     
  -3.1350000000000003E-002     0.0000000000000000     
  -3.1300000000000001E-002     0.0000000000000000     
  -3.1250000000000000E-002     0.0000000000000000     
  -3.1199999999999999E-002     0.0000000000000000     
  -3.1150000000000001E-002     0.0000000000000000     
  -3.1100000000000003E-002     0.0000000000000000     
  -3.1050000000000001E-002     0.0000000000000000     
  -3.1000000000000000E-002     0.0000000000000000     
  -3.0949999999999998E-002     0.0000000000000000     
  -3.0900000000000000E-002     0.0000000000000000     
  -3.0850000000000002E-002     0.0000000000000000     
  -3.0800000000000001E-002     0.0000000000000000     
  -3.0750000000000000E-002     0.0000000000000000     
  -3.0699999999999998E-002     0.0000000000000000     
  -3.0650000000000000E-002     0.0000000000000000     
  -3.0600000000000002E-002     0.0000000000000000     
  -3.0550000000000001E-002     0.0000000000000000     
  -3.0499999999999999E-002     0.0000000000000000     
  -3.0449999999999998E-002     0.0000000000000000     
  -3.0400000000000000E-002     0.0000000000000000     
  -3.0350000000000002E-002     0.0000000000000000     
  -3.0300000000000001E-002     0.0000000000000000     
  -3.0249999999999999E-002     0.0000000000000000     
  -3.0200000000000001E-002     0.0000000000000000     
  -3.0150000000000000E-002     0.0000000000000000     
  -3.0100000000000002E-002     0.0000000000000000     
  -3.0050000000000000E-002     0.0000000000000000     
  -2.9999999999999999E-002     0.0000000000000000     
  -2.9950000000000001E-002     0.0000000000000000     
  -2.9899999999999999E-002     0.0000000000000000     
  -2.9850000000000002E-002     0.0000000000000000     
  -2.9800000000000000E-002     0.0000000000000000     
  -2.9749999999999999E-002     0.0000000000000000     
  -2.9700000000000001E-002     0.0000000000000000     
  -2.9650000000000003E-002     0.0000000000000000     
  -2.9600000000000001E-002     0.0000000000000000     
  -2.9550000000000000E-002     0.0000000000000000     
  -2.9499999999999998E-002     0.0000000000000000     
  -2.9450000000000000E-002     0.0000000000000000     
  -2.9400000000000003E-002     0.0000000000000000     
  -2.9350000000000001E-002     0.0000000000000000     
  -2.9300000000000000E-002     0.0000000000000000     
  -2.9249999999999998E-002     0.0000000000000000     
  -2.9200000000000000E-002     0.0000000000000000     
  -2.9150000000000002E-002     0.0000000000000000     
  -2.9100000000000001E-002     0.0000000000000000     
  -2.9049999999999999E-002     0.0000000000000000     
  -2.8999999999999998E-002     0.0000000000000000     
  -2.8950000000000000E-002     0.0000000000000000     
  -2.8900000000000002E-002     0.0000000000000000     
  -2.8850000000000001E-002     0.0000000000000000     
  -2.8799999999999999E-002     0.0000000000000000     
  -2.8749999999999998E-002     0.0000000000000000     
  -2.8700000000000000E-002     0.0000000000000000     
  -2.8650000000000002E-002     0.0000000000000000     
  -2.8600000000000000E-002     0.0000000000000000     
  -2.8549999999999999E-002     0.0000000000000000     
  -2.8500000000000001E-002     0.0000000000000000     
  -2.8450000000000000E-002     0.0000000000000000     
  -2.8400000000000002E-002     0.0000000000000000     
  -2.8350000000000000E-002     0.0000000000000000     
  -2.8299999999999999E-002     0.0000000000000000     
  -2.8250000000000001E-002     0.0000000000000000     
  -2.8200000000000003E-002     0.0000000000000000     
  -2.8150000000000001E-002     0.0000000000000000     
  -2.8100000000000000E-002     0.0000000000000000     
  -2.8049999999999999E-002     0.0000000000000000     
  -2.8000000000000001E-002     0.0000000000000000     
  -2.7950000000000003E-002     0.0000000000000000     
  -2.7900000000000001E-002     0.0000000000000000     
  -2.7850000000000000E-002     0.0000000000000000     
  -2.7799999999999998E-002     0.0000000000000000     
  -2.7750000000000000E-002     0.0000000000000000     
  -2.7700000000000002E-002     0.0000000000000000     
  -2.7650000000000001E-002     0.0000000000000000     
  -2.7600000000000000E-002     0.0000000000000000     
  -2.7549999999999998E-002     0.0000000000000000     
  -2.7500000000000000E-002     0.0000000000000000     
  -2.7450000000000002E-002     0.0000000000000000     
  -2.7400000000000001E-002     0.0000000000000000     
  -2.7349999999999999E-002     0.0000000000000000     
  -2.7299999999999998E-002     0.0000000000000000     
  -2.7250000000000000E-002     0.0000000000000000     
  -2.7200000000000002E-002     0.0000000000000000     
  -2.7150000000000001E-002     0.0000000000000000     
  -2.7099999999999999E-002     0.0000000000000000     
  -2.7049999999999998E-002     0.0000000000000000     
  -2.7000000000000000E-002     0.0000000000000000     
  -2.6950000000000002E-002     0.0000000000000000     
  -2.6900000000000000E-002     0.0000000000000000     
  -2.6849999999999999E-002     0.0000000000000000     
  -2.6800000000000001E-002     0.0000000000000000     
  -2.6749999999999999E-002     0.0000000000000000     
  -2.6700000000000002E-002     0.0000000000000000     
  -2.6650000000000000E-002     0.0000000000000000     
  -2.6599999999999999E-002     0.0000000000000000     
  -2.6550000000000001E-002     0.0000000000000000     
  -2.6500000000000003E-002     0.0000000000000000     
  -2.6450000000000001E-002     0.0000000000000000     
  -2.6400000000000000E-002     0.0000000000000000     
  -2.6349999999999998E-002     0.0000000000000000     
  -2.6300000000000000E-002     0.0000000000000000     
  -2.6250000000000002E-002     0.0000000000000000     
  -2.6200000000000001E-002     0.0000000000000000     
  -2.6150000000000000E-002     0.0000000000000000     
  -2.6099999999999998E-002     0.0000000000000000     
  -2.6050000000000000E-002     0.0000000000000000     
  -2.6000000000000002E-002     0.0000000000000000     
  -2.5950000000000001E-002     0.0000000000000000     
  -2.5899999999999999E-002    -6.4938452826968304E-040
  -2.5849999999999998E-002    -1.5339202858384276E-039
  -2.5800000000000000E-002    -2.1116253071052038E-039
  -2.5750000000000002E-002    -4.4759738973444478E-040
  -2.5700000000000001E-002     3.1973180982617084E-039
  -2.5649999999999999E-002     7.1091937941303792E-039
  -2.5599999999999998E-002     9.7325986531101365E-039
  -2.5550000000000000E-002     8.4055101050636522E-039
  -2.5500000000000002E-002     4.5222579128311377E-041
  -2.5450000000000000E-002    -1.4272736146928593E-038
  -2.5399999999999999E-002    -3.3353267314542544E-038
  -2.5349999999999998E-002    -4.0288177796669276E-038
  -2.5300000000000000E-002    -3.2415204573706682E-038
  -2.5250000000000002E-002    -2.0097963544277771E-039
  -2.5200000000000000E-002     1.4814133626150590E-038
  -2.5149999999999999E-002     1.9737580078606695E-038
  -2.5100000000000001E-002     4.7231823159463667E-038
  -2.5049999999999999E-002     1.0323199810168896E-037
  -2.5000000000000001E-002     1.1866711806092702E-037
  -2.4950000000000000E-002     1.0368945510843941E-037
  -2.4899999999999999E-002     5.7590673281042479E-038
  -2.4850000000000001E-002    -4.7705713420454584E-039
  -2.4800000000000003E-002    -7.7925223821381855E-038
  -2.4750000000000001E-002    -1.3706055602695381E-037
  -2.4700000000000000E-002    -1.7729010786026203E-037
  -2.4649999999999998E-002    -2.0679655739703709E-037
  -2.4600000000000000E-002    -2.0696625224618233E-037
  -2.4550000000000002E-002    -1.8251026986584853E-037
  -2.4500000000000001E-002    -1.2228548019517098E-037
  -2.4450000000000000E-002    -7.7704688194086918E-039
  -2.4399999999999998E-002     1.8874719711393773E-037
  -2.4350000000000000E-002     4.5444440551823518E-037
  -2.4299999999999999E-002     7.4479171973986958E-037
  -2.4250000000000001E-002     1.0195428813829554E-036
  -2.4199999999999999E-002     1.1806062817264497E-036
  -2.4150000000000001E-002     1.0967911691694768E-036
  -2.4100000000000000E-002     6.0071477990246675E-037
  -2.4049999999999998E-002    -4.4202544688239673E-037
  -2.4000000000000000E-002    -2.0467954936906979E-036
  -2.3949999999999999E-002    -3.9927083448970171E-036
  -2.3900000000000001E-002    -5.7399809900155453E-036
  -2.3850000000000000E-002    -6.4550794555857242E-036
  -2.3800000000000002E-002    -5.1926784195135339E-036
  -2.3750000000000000E-002    -1.2444222507970783E-036
  -2.3699999999999999E-002     5.4201336507746669E-036
  -2.3650000000000001E-002     1.3763775744807822E-035
  -2.3599999999999999E-002     2.1530403973176769E-035
  -2.3550000000000001E-002     2.5509253339989101E-035
  -2.3500000000000000E-002     2.2309480767099743E-035
  -2.3449999999999999E-002     9.5790379511886878E-036
  -2.3400000000000001E-002    -1.2607561335063866E-035
  -2.3349999999999999E-002    -4.0662658350604952E-035
  -2.3300000000000001E-002    -6.7258181276486365E-035
  -2.3250000000000000E-002    -8.2412060818743789E-035
  -2.3199999999999998E-002    -7.6013032236382472E-035
  -2.3150000000000000E-002    -4.1395601086842351E-035
  -2.3099999999999999E-002     2.0969820039414725E-035
  -2.3050000000000001E-002     1.0097416323483913E-034
  -2.3000000000000000E-002     1.7886237514525517E-034
  -2.2950000000000002E-002     2.2855208632119784E-034
  -2.2900000000000000E-002     2.2418238020697656E-034
  -2.2849999999999999E-002     1.4863700880626525E-034
  -2.2800000000000001E-002     1.7460489329853739E-036
  -2.2749999999999999E-002    -1.9464418548641672E-034
  -2.2700000000000001E-002    -3.9720679859114604E-034
  -2.2650000000000000E-002    -5.4847601423878815E-034
  -2.2599999999999999E-002    -5.9022504372497108E-034
  -2.2550000000000001E-002    -4.8000912354435261E-034
  -2.2499999999999999E-002    -2.0649929431693875E-034
  -2.2450000000000001E-002     2.0102509096725303E-034
  -2.2400000000000000E-002     6.7241939280211525E-034
  -2.2349999999999998E-002     1.1065974426031927E-033
  -2.2300000000000000E-002     1.3897366881143644E-033
  -2.2249999999999999E-002     1.4176895638804039E-033
  -2.2200000000000001E-002     1.1178932636897737E-033
  -2.2150000000000000E-002     4.6720194719240093E-034
  -2.2100000000000002E-002    -4.9568359764308964E-034
  -2.2050000000000000E-002    -1.6625256520992056E-033
  -2.1999999999999999E-002    -2.8517989843695723E-033
  -2.1950000000000001E-002    -3.8106521521606179E-033
  -2.1899999999999999E-002    -4.2290480068648268E-033
  -2.1850000000000001E-002    -3.7768866691966553E-033
  -2.1800000000000000E-002    -2.1751310963088212E-033
  -2.1749999999999999E-002     6.9562085463260349E-034
  -2.1700000000000001E-002     4.6623925254565286E-033
  -2.1649999999999999E-002     9.1392279692062629E-033
  -2.1600000000000001E-002     1.3076521673311886E-032
  -2.1550000000000000E-002     1.5046435776315947E-032
  -2.1499999999999998E-002     1.3514236935885463E-032
  -2.1450000000000000E-002     7.2980186161215941E-033
  -2.1399999999999999E-002    -3.8548485623229469E-033
  -2.1350000000000001E-002    -1.8728877739423182E-032
  -2.1299999999999999E-002    -3.4355464943397208E-032
  -2.1250000000000002E-002    -4.6204106478608474E-032
  -2.1200000000000000E-002    -4.8996269360167478E-032
  -2.1149999999999999E-002    -3.8124730863835911E-032
  -2.1100000000000001E-002    -1.1436769492746953E-032
  -2.1049999999999999E-002     2.9086076787977491E-032
  -2.1000000000000001E-002     7.6362565919508265E-032
  -2.0950000000000000E-002     1.1855176675446436E-031
  -2.0899999999999998E-002     1.4105682852440201E-031
  -2.0850000000000000E-002     1.3011478457667086E-031
  -2.0799999999999999E-002     7.7341996888265525E-032
  -2.0750000000000001E-002    -1.5909840643982832E-032
  -2.0700000000000000E-002    -1.3582333204139151E-031
  -2.0649999999999998E-002    -2.5635208653359362E-031
  -2.0600000000000000E-002    -3.4321094383245907E-031
  -2.0549999999999999E-002    -3.6145489089593872E-031
  -2.0500000000000001E-002    -2.8533929699544149E-031
  -2.0449999999999999E-002    -1.0814589806865516E-031
  -2.0400000000000001E-002     1.5087390519691313E-031
  -2.0350000000000000E-002     4.4507859272079409E-031
  -2.0299999999999999E-002     7.0615349782058744E-031
  -2.0250000000000001E-002     8.5690294991571014E-031
  -2.0199999999999999E-002     8.2912527754931855E-031
  -2.0150000000000001E-002     5.8291201526926099E-031
  -2.0100000000000000E-002     1.2280812501776068E-031
  -2.0049999999999998E-002    -4.9356028289228317E-031
  -2.0000000000000000E-002    -1.1575289917619268E-030
  -1.9949999999999999E-002    -1.7232043788407393E-030
  -1.9900000000000001E-002    -2.0318121984426443E-030
  -1.9850000000000000E-002    -1.9432878189882971E-030
  -1.9799999999999998E-002    -1.3703674201964431E-030
  -1.9750000000000000E-002    -3.0968680498844593E-031
  -1.9699999999999999E-002     1.1358155666630006E-030
  -1.9650000000000001E-002     2.7488329591725570E-030
  -1.9599999999999999E-002     4.2093565311797016E-030
  -1.9550000000000001E-002     5.1306518272773733E-030
  -1.9500000000000000E-002     5.1220013815991307E-030
  -1.9449999999999999E-002     3.8762816346675926E-030
  -1.9400000000000001E-002     1.2733112300728172E-030
  -1.9349999999999999E-002    -2.5195528692794612E-030
  -1.9300000000000001E-002    -6.9775198382071883E-030
  -1.9250000000000000E-002    -1.1213002852041184E-029
  -1.9199999999999998E-002    -1.4066245602889993E-029
  -1.9150000000000000E-002    -1.4309136239468912E-029
  -1.9099999999999999E-002    -1.0952036762288001E-029
  -1.9050000000000001E-002    -3.6065245148970781E-030
  -1.9000000000000000E-002     7.1810276546770121E-030
  -1.8949999999999998E-002     1.9736315560019272E-029
  -1.8900000000000000E-002     3.1316386689801248E-029
  -1.8849999999999999E-002     3.8498083432318719E-029
  -1.8800000000000001E-002     3.7899361028523665E-029
  -1.8749999999999999E-002     2.7136786608153801E-029
  -1.8700000000000001E-002     5.8180358639378960E-030
  -1.8650000000000000E-002    -2.3709044406919170E-029
  -1.8599999999999998E-002    -5.6144774772280808E-029
  -1.8550000000000001E-002    -8.3789164193651155E-029
  -1.8499999999999999E-002    -9.7925947725693226E-029
  -1.8450000000000001E-002    -9.0887285263963990E-029
  -1.8400000000000000E-002    -5.8410996554520688E-029
  -1.8349999999999998E-002    -1.7169930732550996E-030
  -1.8300000000000000E-002     7.1337931014803680E-029
  -1.8249999999999999E-002     1.4656982467297870E-028
  -1.8200000000000001E-002     2.0551429444448888E-028
  -1.8149999999999999E-002     2.2907809518408264E-028
  -1.8100000000000002E-002     2.0221219836473778E-028
  -1.8050000000000000E-002     1.1863749513169538E-028
  -1.7999999999999999E-002    -1.5551271990916729E-029
  -1.7950000000000001E-002    -1.8051840753079236E-028
  -1.7899999999999999E-002    -3.4433026084450608E-028
  -1.7850000000000001E-002    -4.6779831092311462E-028
  -1.7800000000000000E-002    -5.1200368563169586E-028
  -1.7749999999999998E-002    -4.4729740765780690E-028
  -1.7700000000000000E-002    -2.6206137369074299E-028
  -1.7649999999999999E-002     3.0699587848348192E-029
  -1.7600000000000001E-002     3.9071980267311115E-028
  -1.7550000000000000E-002     7.5308187479345816E-028
  -1.7499999999999998E-002     1.0365788747940562E-027
  -1.7450000000000000E-002     1.1573621449655647E-027
  -1.7399999999999999E-002     1.0463488071300165E-027
  -1.7350000000000001E-002     6.6784148539051183E-028
  -1.7299999999999999E-002     3.5962460014708137E-029
  -1.7250000000000001E-002    -7.7501318940004868E-028
  -1.7200000000000000E-002    -1.6303158465362227E-027
  -1.7149999999999999E-002    -2.3474325533679855E-027
  -1.7100000000000001E-002    -2.7233009679324468E-027
  -1.7049999999999999E-002    -2.5745309033382886E-027
  -1.7000000000000001E-002    -1.7856870301149122E-027
  -1.6950000000000000E-002    -3.5692438341527316E-028
  -1.6899999999999998E-002     1.5607771069277018E-027
  -1.6850000000000000E-002     3.6556255872606253E-027
  -1.6799999999999999E-002     5.4812317012387139E-027
  -1.6750000000000001E-002     6.5243745532581674E-027
  -1.6700000000000000E-002     6.3105831944001735E-027
  -1.6649999999999998E-002     4.5325627885051710E-027
  -1.6600000000000000E-002     1.1755286611713965E-027
  -1.6549999999999999E-002    -3.3938719157969174E-027
  -1.6500000000000001E-002    -8.4089932502744920E-027
  -1.6449999999999999E-002    -1.2780421205213382E-026
  -1.6400000000000001E-002    -1.5276521875109248E-026
  -1.6350000000000000E-002    -1.4789737802534574E-026
  -1.6299999999999999E-002    -1.0643742763587588E-026
  -1.6250000000000001E-002    -2.8740191701906016E-027
  -1.6199999999999999E-002     7.5962410482703624E-027
  -1.6150000000000001E-002     1.8955693287638593E-026
  -1.6100000000000000E-002     2.8723114884645322E-026
  -1.6049999999999998E-002     3.4182822222175955E-026
  -1.6000000000000000E-002     3.2980797574724833E-026
  -1.5949999999999999E-002     2.3772846714147637E-026
  -1.5900000000000001E-002     6.7797193822257216E-027
  -1.5850000000000000E-002    -1.5903995892460735E-026
  -1.5799999999999998E-002    -4.0373024765588763E-026
  -1.5750000000000000E-002    -6.1410029811823022E-026
  -1.5699999999999999E-002    -7.3394093666222223E-026
  -1.5650000000000001E-002    -7.1494697774025923E-026
  -1.5599999999999999E-002    -5.2938722997093813E-026
  -1.5550000000000001E-002    -1.8082062384659673E-026
  -1.5500000000000000E-002     2.8989511539358445E-026
  -1.5449999999999998E-002     8.0554634487320519E-026
  -1.5400000000000000E-002     1.2616416432540048E-025
  -1.5349999999999999E-002     1.5433199876053003E-025
  -1.5300000000000001E-002     1.5480984643236636E-025
  -1.5250000000000000E-002     1.2108802376959550E-025
  -1.5199999999999998E-002     5.2645549452353383E-026
  -1.5150000000000000E-002    -4.3575413497750610E-026
  -1.5099999999999999E-002    -1.5295202354654773E-025
  -1.5050000000000001E-002    -2.5455304584896157E-025
  -1.4999999999999999E-002    -3.2418540961258094E-025
  -1.4949999999999998E-002    -3.3887270848813264E-025
  -1.4900000000000000E-002    -2.8216204814265520E-025
  -1.4849999999999999E-002    -1.4932409574196668E-025
  -1.4800000000000001E-002     4.8713039965564695E-026
  -1.4749999999999999E-002     2.8388856863178328E-025
  -1.4700000000000001E-002     5.1296471150512231E-025
  -1.4650000000000000E-002     6.8337936945544631E-025
  -1.4599999999999998E-002     7.4270243362288207E-025
  -1.4550000000000000E-002     6.5049342804794087E-025
  -1.4499999999999999E-002     3.9047011387266113E-025
  -1.4450000000000001E-002    -1.9744369024715054E-026
  -1.4400000000000000E-002    -5.2419105620280451E-025
  -1.4349999999999998E-002    -1.0318697069820571E-024
  -1.4300000000000000E-002    -1.4289614858316693E-024
  -1.4249999999999999E-002    -1.5993626780396450E-024
  -1.4200000000000001E-002    -1.4507792462465954E-024
  -1.4149999999999999E-002    -9.4160865782735674E-025
  -1.4099999999999998E-002    -1.0249042446636693E-025
  -1.4050000000000000E-002     9.5380057450707970E-025
  -1.3999999999999999E-002     2.0391652256940610E-024
  -1.3950000000000001E-002     2.9159382905198393E-024
  -1.3899999999999999E-002     3.3398885230261541E-024
  -1.3850000000000001E-002     3.1143134847607573E-024
  -1.3800000000000000E-002     2.1451517590609360E-024
  -1.3749999999999998E-002     4.8466312572982135E-025
  -1.3700000000000000E-002    -1.6487508364091983E-024
  -1.3649999999999999E-002    -3.8840602947315362E-024
  -1.3600000000000001E-002    -5.7482611572529774E-024
  -1.3550000000000000E-002    -6.7502941417669598E-024
  -1.3499999999999998E-002    -6.4861314647521150E-024
  -1.3450000000000000E-002    -4.7458810940549578E-024
  -1.3399999999999999E-002    -1.5996424431000687E-024
  -1.3350000000000001E-002     2.5608395056714176E-024
  -1.3299999999999999E-002     7.0423639612188430E-024
  -1.3249999999999998E-002     1.0939821757998595E-023
  -1.3200000000000000E-002     1.3289149842566073E-023
  -1.3149999999999998E-002     1.3263097641610777E-023
  -1.3100000000000001E-002     1.0376323154555840E-023
  -1.3049999999999999E-002     4.6580735428472979E-024
  -1.3000000000000001E-002    -3.2503389901358268E-024
  -1.2950000000000000E-002    -1.2108491364427202E-023
  -1.2899999999999998E-002    -2.0219204793059081E-023
  -1.2850000000000000E-002    -2.5696167542995357E-023
  -1.2799999999999999E-002    -2.6825742480379409E-023