  -4.0000000000000001E-002     0.0000000000000000     
  -3.9949999999999999E-002     0.0000000000000000     
  -3.9899999999999998E-002     0.0000000000000000     
  -3.9850000000000003E-002     0.0000000000000000     
  -3.9800000000000002E-002     0.0000000000000000     
  -3.9750000000000001E-002     0.0000000000000000     
  -3.9699999999999999E-002     0.0000000000000000     
  -3.9649999999999998E-002     0.0000000000000000     
  -3.9600000000000003E-002     0.0000000000000000     
  -3.9550000000000002E-002     0.0000000000000000     
  -3.9500000000000000E-002     0.0000000000000000     
  -3.9449999999999999E-002     0.0000000000000000     
  -3.9399999999999998E-002     0.0000000000000000     
  -3.9350000000000003E-002     0.0000000000000000     
  -3.9300000000000002E-002     0.0000000000000000     
  -3.9250000000000000E-002     0.0000000000000000     
  -3.9199999999999999E-002     0.0000000000000000     
  -3.9150000000000004E-002     0.0000000000000000     
  -3.9100000000000003E-002     0.0000000000000000     
  -3.9050000000000001E-002     0.0000000000000000     
  -3.9000000000000000E-002     0.0000000000000000     
  -3.8949999999999999E-002     0.0000000000000000     
  -3.8900000000000004E-002     0.0000000000000000     
  -3.8850000000000003E-002     0.0000000000000000     
  -3.8800000000000001E-002     0.0000000000000000     
  -3.8750000000000000E-002     0.0000000000000000     
  -3.8699999999999998E-002     0.0000000000000000     
  -3.8650000000000004E-002     0.0000000000000000     
  -3.8600000000000002E-002     0.0000000000000000     
  -3.8550000000000001E-002     0.0000000000000000     
  -3.8500000000000000E-002     0.0000000000000000     
  -3.8449999999999998E-002     0.0000000000000000     
  -3.8400000000000004E-002     0.0000000000000000     
  -3.8350000000000002E-002     0.0000000000000000     
  -3.8300000000000001E-002     0.0000000000000000     
  -3.8249999999999999E-002     0.0000000000000000     
  -3.8199999999999998E-002     0.0000000000000000     
  -3.8150000000000003E-002     0.0000000000000000     
  -3.8100000000000002E-002     0.0000000000000000     
  -3.8050000000000000E-002     0.0000000000000000     
  -3.7999999999999999E-002     0.0000000000000000     
  -3.7949999999999998E-002     0.0000000000000000     
  -3.7900000000000003E-002     0.0000000000000000     
  -3.7850000000000002E-002     0.0000000000000000     
  -3.7800000000000000E-002     0.0000000000000000     
  -3.7749999999999999E-002     0.0000000000000000     
  -3.7699999999999997E-002     0.0000000000000000     
  -3.7650000000000003E-002     0.0000000000000000     
  -3.7600000000000001E-002     0.0000000000000000     
  -3.7550000000000000E-002     0.0000000000000000     
  -3.7499999999999999E-002     0.0000000000000000     
  -3.7449999999999997E-002     0.0000000000000000     
  -3.7400000000000003E-002     0.0000000000000000     
  -3.7350000000000001E-002     0.0000000000000000     
  -3.7300000000000000E-002     0.0000000000000000     
  -3.7249999999999998E-002     0.0000000000000000     
  -3.7200000000000004E-002     0.0000000000000000     
  -3.7150000000000002E-002     0.0000000000000000     
  -3.7100000000000001E-002     0.0000000000000000     
  -3.7050000000000000E-002     0.0000000000000000     
  -3.6999999999999998E-002     0.0000000000000000     
  -3.6950000000000004E-002     0.0000000000000000     
  -3.6900000000000002E-002     0.0000000000000000     
  -3.6850000000000001E-002     0.0000000000000000     
  -3.6799999999999999E-002     0.0000000000000000     
  -3.6749999999999998E-002     0.0000000000000000     
  -3.6700000000000003E-002     0.0000000000000000     
  -3.6650000000000002E-002     0.0000000000000000     
  -3.6600000000000001E-002     0.0000000000000000     
  -3.6549999999999999E-002     0.0000000000000000     
  -3.6499999999999998E-002     0.0000000000000000     
  -3.6450000000000003E-002     0.0000000000000000     
  -3.6400000000000002E-002     0.0000000000000000     
  -3.6350000000000000E-002     0.0000000000000000     
  -3.6299999999999999E-002     0.0000000000000000     
  -3.6249999999999998E-002     0.0000000000000000     
  -3.6200000000000003E-002     0.0000000000000000     
  -3.6150000000000002E-002     0.0000000000000000     
  -3.6100000000000000E-002     0.0000000000000000     
  -3.6049999999999999E-002     0.0000000000000000     
  -3.6000000000000004E-002     0.0000000000000000     
  -3.5950000000000003E-002     0.0000000000000000     
  -3.5900000000000001E-002     0.0000000000000000     
  -3.5850000000000000E-002     0.0000000000000000     
  -3.5799999999999998E-002     0.0000000000000000     
  -3.5750000000000004E-002     0.0000000000000000     
  -3.5700000000000003E-002     0.0000000000000000     
  -3.5650000000000001E-002     0.0000000000000000     
  -3.5600000000000000E-002    -1.6826776749720499E-039
  -3.5549999999999998E-002    -3.3031030247797836E-039
  -3.5500000000000004E-002    -1.5310012039123501E-039
  -3.5450000000000002E-002     6.4442654642926780E-039
  -3.5400000000000001E-002     1.8673335452847033E-038
  -3.5349999999999999E-002     3.0152580457535849E-038
  -3.5299999999999998E-002     2.9294787066933685E-038
  -3.5250000000000004E-002    -1.1871081532544724E-038
  -3.5200000000000002E-002    -8.3537468867413461E-038
  -3.5150000000000001E-002    -1.6061003924642622E-037
  -3.5099999999999999E-002    -2.0430768924130906E-037
  -3.5049999999999998E-002    -1.8693926682949069E-037
  -3.5000000000000003E-002    -6.5453349551266824E-038
  -3.4950000000000002E-002     1.7417497124245358E-037
  -3.4900000000000000E-002     5.2812886580917996E-037
  -3.4849999999999999E-002     9.2400967907610633E-037
  -3.4799999999999998E-002     1.2161633433697820E-036
  -3.4750000000000003E-002     1.1543323817222044E-036
  -3.4700000000000002E-002     4.6941424436100216E-037
  -3.4650000000000000E-002    -1.0055041643218231E-036
  -3.4599999999999999E-002    -3.1541974056338907E-036
  -3.4549999999999997E-002    -5.4195303764291020E-036
  -3.4500000000000003E-002    -6.7788848300816835E-036
  -3.4450000000000001E-002    -5.9568687529390369E-036
  -3.4400000000000000E-002    -1.9048789714188587E-036
  -3.4349999999999999E-002     5.5149334980847261E-036
  -3.4299999999999997E-002     1.4939909984495010E-035
  -3.4250000000000003E-002     2.3347621244773721E-035
  -3.4200000000000001E-002     2.6659955417995006E-035
  -3.4150000000000000E-002     2.1181454492064293E-035
  -3.4099999999999998E-002     5.5011609564695465E-036
  -3.4049999999999997E-002    -1.7959140334497307E-035
  -3.4000000000000002E-002    -4.2753714266552126E-035
  -3.3950000000000001E-002    -6.0248136639971009E-035
  -3.3900000000000000E-002    -6.3224940558550732E-035
  -3.3849999999999998E-002    -4.9793680754954015E-035
  -3.3799999999999997E-002    -2.5298467841904032E-035
  -3.3750000000000002E-002    -2.1847767009468639E-037
  -3.3700000000000001E-002     1.6100462936479632E-035
  -3.3649999999999999E-002     2.3149439204984642E-035
  -3.3599999999999998E-002     3.3257910539158609E-035
  -3.3550000000000003E-002     6.6928840037148139E-035
  -3.3500000000000002E-002     1.3866951362572700E-034
  -3.3450000000000001E-002     2.3970677451833044E-034
  -3.3399999999999999E-002     3.3044009655418862E-034
  -3.3349999999999998E-002     3.5534772215338367E-034
  -3.3300000000000003E-002     2.8182904531308122E-034
  -3.3250000000000002E-002     1.4354372716171859E-034
  -3.3200000000000000E-002     4.8671698744343986E-035
  -3.3149999999999999E-002     1.1198700260116826E-034
  -3.3099999999999997E-002     3.0315653086586116E-034
  -3.3050000000000003E-002     2.7330950855650330E-034
  -3.3000000000000002E-002    -6.9917248851200314E-034
  -3.2950000000000000E-002    -3.4697684375008117E-033
  -3.2899999999999999E-002    -8.3984305316338793E-033
  -3.2850000000000004E-002    -1.4448914474064625E-032
  -3.2800000000000003E-002    -1.8444800795864122E-032
  -3.2750000000000001E-002    -1.5162025608913196E-032
  -3.2700000000000000E-002     1.0848068095930968E-033
  -3.2649999999999998E-002     3.3186240396401056E-032
  -3.2600000000000004E-002     7.7081581905645058E-032
  -3.2550000000000003E-002     1.1859005294140574E-031
  -3.2500000000000001E-002     1.3381835676778825E-031
  -3.2450000000000000E-002     9.5322997706967001E-032
  -3.2399999999999998E-002    -1.5744849058238475E-032
  -3.2350000000000004E-002    -1.9451745272643269E-031
  -3.2300000000000002E-002    -4.0067370349828857E-031
  -3.2250000000000001E-002    -5.5806669552113142E-031
  -3.2199999999999999E-002    -5.7176508075696579E-031
  -3.2149999999999998E-002    -3.6241198575337155E-031
  -3.2100000000000004E-002     9.1139495972519795E-032
  -3.2050000000000002E-002     7.1803726992680924E-031
  -3.2000000000000001E-002     1.3500470028071560E-030
  -3.1949999999999999E-002     1.7572837646172821E-030
  -3.1899999999999998E-002     1.7217587933349983E-030
  -3.1850000000000003E-002     1.1256387725407122E-030
  -3.1800000000000002E-002     1.7132117074747326E-032
  -3.1750000000000000E-002    -1.3814000224569976E-030
  -3.1699999999999999E-002    -2.7368617683386034E-030
  -3.1649999999999998E-002    -3.7185333909398962E-030
  -3.1600000000000003E-002    -4.1062498371127318E-030
  -3.1550000000000002E-002    -3.8304050708334147E-030
  -3.1500000000000000E-002    -2.9104378927823963E-030
  -3.1449999999999999E-002    -1.3221518343364340E-030
  -3.1399999999999997E-002     1.1070861420148771E-030
  -3.1350000000000003E-002     4.6476796857181876E-030
  -3.1300000000000001E-002     9.3846165255991749E-030
  -3.1250000000000000E-002     1.4759527258664816E-029
  -3.1199999999999999E-002     1.9166543525138823E-029
  -3.1150000000000001E-002     1.9942379638130921E-029
  -3.1100000000000003E-002     1.4040279162415824E-029
  -3.1050000000000001E-002    -5.8628652726984773E-031
  -3.1000000000000000E-002    -2.3282359819128177E-029
  -3.0949999999999998E-002    -4.9456161443935761E-029
  -3.0900000000000000E-002    -7.0710448037155112E-029
  -3.0850000000000002E-002    -7.6893211028913570E-029
  -3.0800000000000001E-002    -5.9810727511531207E-029
  -3.0750000000000000E-002    -1.7355479164721309E-029
  -3.0699999999999998E-002     4.3867316382494188E-029
  -3.0650000000000000E-002     1.0916131298159674E-028
  -3.0600000000000002E-002     1.6013149024078772E-028
  -3.0550000000000001E-002     1.8142041203936360E-028
  -3.0499999999999999E-002     1.6659688718430739E-028
  -3.0449999999999998E-002     1.1959079238583964E-028
  -3.0400000000000000E-002     4.9811742071485765E-029
  -3.0350000000000002E-002    -3.7216522518846729E-029
  -3.0300000000000001E-002    -1.4778226700639779E-028
  -3.0249999999999999E-002    -2.9858434388569800E-028
  -3.0200000000000001E-002    -5.0066504643444407E-028
  -3.0150000000000000E-002    -7.3106788499790196E-028
  -3.0100000000000002E-002    -9.0524379062549983E-028
  -3.0050000000000000E-002    -8.7150754894473235E-028
  -2.9999999999999999E-002    -4.4825831903721013E-028
  -2.9950000000000001E-002     4.8926477649506431E-028
  -2.9899999999999999E-002     1.8920490796384805E-027
  -2.9850000000000002E-002     3.4390151616478593E-027
  -2.9800000000000000E-002     4.5238805309082320E-027
  -2.9749999999999999E-002     4.3837484495473725E-027
  -2.9700000000000001E-002     2.3802872252817756E-027
  -2.9650000000000003E-002    -1.6296988552004335E-027
  -2.9600000000000001E-002    -6.9740894368867342E-027
  -2.9550000000000000E-002    -1.2075998364462254E-026
  -2.9499999999999998E-002    -1.4743422533955698E-026
  -2.9450000000000000E-002    -1.2867269928388084E-026
  -2.9400000000000003E-002    -5.3739452411997912E-027
  -2.9350000000000001E-002     6.9038659916968499E-027
  -2.9300000000000000E-002     2.0867523536316831E-026
  -2.9249999999999998E-002     3.1657591797909760E-026
  -2.9200000000000000E-002     3.4107179782303796E-026
  -2.9150000000000002E-002     2.4820569203472866E-026
  -2.9100000000000001E-002     4.1559213450986701E-027
  -2.9049999999999999E-002    -2.2807474648678999E-026
  -2.8999999999999998E-002    -4.7075387426447227E-026
  -2.8950000000000000E-002    -5.8509674964693543E-026
  -2.8900000000000002E-002    -4.9916623315981847E-026
  -2.8850000000000001E-002    -2.0996665553245937E-026
  -2.8799999999999999E-002     1.9690593748025063E-026
  -2.8749999999999998E-002     5.6250899380780244E-026
  -2.8700000000000000E-002     7.0827255551506643E-026
  -2.8650000000000002E-002     5.1506357094783451E-026
  -2.8600000000000000E-002    -1.4292308511845317E-028
  -2.8549999999999999E-002    -6.5546462480082390E-026
  -2.8500000000000001E-002    -1.1256793515584061E-025
  -2.8450000000000000E-002    -1.0659642195854644E-025
  -2.8400000000000002E-002    -2.6667244019577378E-026
  -2.8350000000000000E-002     1.1913680937193923E-025
  -2.8299999999999999E-002     2.8628998735632517E-025
  -2.8250000000000001E-002     4.0048614005448742E-025
  -2.8200000000000003E-002     3.8013170836252051E-025
  -2.8150000000000001E-002     1.7009295848406551E-025
  -2.8100000000000000E-002    -2.2415177155707701E-025
  -2.8049999999999999E-002    -7.1630118033768444E-025
  -2.8000000000000001E-002    -1.1457865603792485E-024
  -2.7950000000000003E-002    -1.3166608562416940E-024
  -2.7900000000000001E-002    -1.0628763046858721E-024
  -2.7850000000000000E-002    -3.2186066789783968E-025
  -2.7799999999999998E-002     8.0976812636207124E-025
  -2.7750000000000000E-002     2.0642839406120505E-024
  -2.7700000000000002E-002     3.0503659018701654E-024
  -2.7650000000000001E-002     3.3570798371200120E-024
  -2.7600000000000000E-002     2.6898865527392698E-024
  -2.7549999999999998E-002     9.9747538210449775E-025
  -2.7500000000000000E-002    -1.4566104211608954E-024
  -2.7450000000000002E-002    -4.1125474756848489E-024
  -2.7400000000000001E-002    -6.2325667601685038E-024
  -2.7349999999999999E-002    -7.0957909094509711E-024
  -2.7299999999999998E-002    -6.2170791665772027E-024
  -2.7250000000000000E-002    -3.5227029532977132E-024
  -2.7200000000000002E-002     5.7737045492034207E-025
  -2.7150000000000001E-002     5.2523953433625447E-024
  -2.7099999999999999E-002     9.4390098864250866E-024
  -2.7049999999999998E-002     1.2103415853611291E-023
  -2.7000000000000000E-002     1.2500448897974689E-023
  -2.6950000000000002E-002     1.0352239151243549E-023
  -2.6900000000000000E-002     5.8961513971086688E-024
  -2.6849999999999999E-002    -2.0278198967405283E-025
  -2.6800000000000001E-002    -7.0320806662941915E-024
  -2.6749999999999999E-002    -1.3630325295374786E-023
  -2.6700000000000002E-002    -1.9127516575132942E-023
  -2.6650000000000000E-002    -2.2780948933363523E-023
  -2.6599999999999999E-002    -2.3913553395227400E-023
  -2.6550000000000001E-002    -2.1817663748062602E-023
  -2.6500000000000003E-002    -1.5724204920414298E-023
  -2.6450000000000001E-002    -4.9351187214838040E-024
  -2.6400000000000000E-002     1.0829971107355199E-023
  -2.6349999999999998E-002     3.0908264681841733E-023
  -2.6300000000000000E-002     5.3127349606023194E-023
  -2.6250000000000002E-002     7.3424344767565395E-023
  -2.6200000000000001E-002     8.5917894930379630E-023
  -2.6150000000000000E-002     8.3663329974703624E-023
  -2.6099999999999998E-002     6.0192732682985498E-023
  -2.6050000000000000E-002     1.1723804202371232E-023
  -2.6000000000000002E-002    -6.0354398264331997E-023
  -2.5950000000000001E-002    -1.4738419724530036E-022
  -2.5899999999999999E-002    -2.3258035825626211E-022
  -2.5849999999999998E-002    -2.9225626639460960E-022
  -2.5800000000000000E-002    -2.9970003174532753E-022
  -2.5750000000000002E-002    -2.3167295896727947E-022
  -2.5700000000000001E-002    -7.6649139434867945E-023
  -2.5649999999999999E-002     1.5702774334193618E-022
  -2.5599999999999998E-002     4.3563982616690940E-022
  -2.5550000000000000E-002     7.0002767194362482E-022
  -2.5500000000000002E-002     8.7312020075339960E-022
  -2.5450000000000000E-002     8.7563767798785139E-022
  -2.5399999999999999E-002     6.4815722809125607E-022
  -2.5349999999999998E-002     1.7505463992690530E-022
  -2.5300000000000000E-002    -4.9633170503810361E-022
  -2.5250000000000002E-002    -1.2487212083139388E-021
  -2.5200000000000000E-002    -1.9061125195689578E-021
  -2.5149999999999999E-002    -2.2654635753761880E-021
  -2.5100000000000001E-002    -2.1454754519506187E-021
  -2.5049999999999999E-002    -1.4429522894281213E-021
  -2.5000000000000001E-002    -1.8230756576230957E-022
  -2.4950000000000000E-002     1.4579158713243928E-021
  -2.4899999999999999E-002     3.1548048358076047E-021
  -2.4850000000000001E-002     4.4928575225111023E-021
  -2.4800000000000003E-002     5.0525517525151191E-021
  -2.4750000000000001E-002     4.5187693208666465E-021
  -2.4700000000000000E-002     2.7831995827752864E-021
  -2.4649999999999998E-002     1.1862583634164183E-023
  -2.4600000000000000E-002    -3.3461880192598125E-021
  -2.4550000000000002E-002    -6.6203610387078069E-021
  -2.4500000000000001E-002    -9.0441690566937662E-021
  -2.4450000000000000E-002    -9.9210913527027046E-021
  -2.4399999999999998E-002    -8.7938416668326626E-021
  -2.4350000000000000E-002    -5.5763142007894368E-021
  -2.4299999999999999E-002    -6.1445171896960016E-022
  -2.4250000000000001E-002     5.3414276635365987E-021
  -2.4199999999999999E-002     1.1249394077033489E-020
  -2.4150000000000001E-002     1.5950648724052962E-020
  -2.4100000000000000E-002     1.8370837978399477E-020
  -2.4049999999999998E-002     1.7710592579685398E-020
  -2.4000000000000000E-002     1.3595870684516922E-020
  -2.3949999999999999E-002     6.1725382743842923E-021
  -2.3900000000000001E-002    -3.8576127582320778E-021
  -2.3850000000000000E-002    -1.5255644013798312E-020
  -2.3800000000000002E-002    -2.6318300188734749E-020
  -2.3750000000000000E-002    -3.5013799950088358E-020
  -2.3699999999999999E-002    -3.9198954242473636E-020
  -2.3650000000000001E-002    -3.6935485344314157E-020
  -2.3599999999999999E-002    -2.6904965093769270E-020
  -2.3550000000000001E-002    -8.8836774751314642E-021
  -2.3500000000000000E-002     1.5812245456615221E-020
  -2.3449999999999999E-002     4.4047976124309019E-020
  -2.3400000000000001E-002     7.0915724604753124E-020
  -2.3349999999999999E-002     9.0238752543703068E-020
  -2.3300000000000001E-002     9.5586529923138352E-020
  -2.3250000000000000E-002     8.1722071657655998E-020
  -2.3199999999999998E-002     4.6245605573774057E-020
  -2.3150000000000000E-002    -8.9410480116512303E-021
  -2.3099999999999999E-002    -7.6799033461080124E-020
  -2.3050000000000001E-002    -1.4536125475067128E-019
  -2.3000000000000000E-002    -1.9923793866923668E-019
  -2.2950000000000002E-002    -2.2239280334451005E-019
  -2.2900000000000000E-002    -2.0181915172615200E-019
  -2.2849999999999999E-002    -1.3141391574146683E-019
  -2.2800000000000001E-002    -1.5124908737560902E-020
  -2.2749999999999999E-002     1.3158530551883659E-019
  -2.2700000000000001E-002     2.8270604395680799E-019
  -2.2650000000000000E-002     4.0537820429539625E-019
  -2.2599999999999999E-002     4.6601650444611963E-019
  -2.2550000000000001E-002     4.3788778463911867E-019
  -2.2499999999999999E-002     3.0863526066067520E-019
  -2.2450000000000001E-002     8.5965575025933491E-020
  -2.2400000000000000E-002    -2.0017772324956024E-019
  -2.2349999999999998E-002    -5.0009831149000276E-019
  -2.2300000000000000E-002    -7.5174299940886297E-019
  -2.2249999999999999E-002    -8.9216360071997780E-019
  -2.2200000000000001E-002    -8.7112997764824748E-019
  -2.2150000000000000E-002    -6.6418688068015419E-019
  -2.2100000000000002E-002    -2.8216768586165763E-019
  -2.2050000000000000E-002     2.2545701188116181E-019
  -2.1999999999999999E-002     7.7500989337109331E-019
  -2.1950000000000001E-002     1.2609303634472890E-018
  -2.1899999999999999E-002     1.5743968926923325E-018
  -2.1850000000000001E-002     1.6251129044673032E-018
  -2.1800000000000000E-002     1.3620990748938442E-018
  -2.1749999999999999E-002     7.8912131039242366E-019
  -2.1700000000000001E-002    -2.8918695661921259E-020
  -2.1649999999999999E-002    -9.7078976533449541E-019
  -2.1600000000000001E-002    -1.8750408773890933E-018
  -2.1550000000000000E-002    -2.5653451603769421E-018
  -2.1499999999999998E-002    -2.8811656872930020E-018
  -2.1450000000000000E-002    -2.7086801404447317E-018
  -2.1399999999999999E-002    -2.0066481423239413E-018
  -2.1350000000000001E-002    -8.2256298346600960E-019
  -2.1299999999999999E-002     7.0421448179900862E-019
  -2.1250000000000002E-002     2.3538496795255446E-018
  -2.1200000000000000E-002     3.8515862754348560E-018
  -2.1149999999999999E-002     4.9052787822576722E-018
  -2.1100000000000001E-002     5.2511550996592085E-018
  -2.1049999999999999E-002     4.7026131077909715E-018
  -2.1000000000000001E-002     3.1956338493637936E-018
  -2.0950000000000000E-002     8.2333612291015740E-019
  -2.0899999999999998E-002    -2.1482549960402653E-018
  -2.0850000000000000E-002    -5.2906541595010498E-018
  -2.0799999999999999E-002    -8.0548681627079285E-018
  -2.0750000000000001E-002    -9.8459947464358499E-018
  -2.0700000000000000E-002    -1.0125404779422619E-017
  -2.0649999999999998E-002    -8.5279659515458221E-018
  -2.0600000000000000E-002    -4.9743072053307556E-018
  -2.0549999999999999E-002     2.4700378397834906E-019
  -2.0500000000000001E-002     6.4533353570684771E-018
  -2.0449999999999999E-002     1.2618441681646136E-017
  -2.0400000000000001E-002     1.7507959362877449E-017
  -2.0350000000000000E-002     1.9890812525067001E-017
  -2.0299999999999999E-002     1.8797335594892030E-017
  -2.0250000000000001E-002     1.3776976926465582E-017
  -2.0199999999999999E-002     5.0977905427271841E-018
  -2.0150000000000001E-002    -6.1691878370126448E-018
  -2.0100000000000000E-002    -1.8222674227772574E-017
  -2.0049999999999998E-002    -2.8775093766512798E-017
  -2.0000000000000000E-002    -3.5445243003390572E-017
  -1.9949999999999999E-002    -3.6239360111024705E-017
  -1.9900000000000001E-002    -3.0029995547144475E-017
  -1.9850000000000000E-002    -1.6928207188900482E-017
  -1.9799999999999998E-002     1.5476654082114459E-018
  -1.9750000000000000E-002     2.2572328370336052E-017
  -1.9699999999999999E-002     4.2398894567531498E-017
  -1.9650000000000001E-002     5.6985609264881826E-017
  -1.9599999999999999E-002     6.2763541715743983E-017
  -1.9550000000000001E-002     5.7403797540564497E-017
  -1.9500000000000000E-002     4.0428148031206952E-017
  -1.9449999999999999E-002     1.3523797130165838E-017
  -1.9400000000000001E-002    -1.9529382900851294E-017
  -1.9349999999999999E-002    -5.3341390807316445E-017
  -1.9300000000000001E-002    -8.1747752086530693E-017
  -1.9250000000000000E-002    -9.8869701093244879E-017
  -1.9199999999999998E-002    -1.0021949707287368E-016
  -1.9150000000000000E-002    -8.3652614832125480E-017
  -1.9099999999999999E-002    -4.9985305199377612E-017
  -1.9050000000000001E-002    -3.1464567941137983E-018
  -1.9000000000000000E-002     5.0193978845120854E-017
  -1.8949999999999998E-002     1.0149287901344813E-016
  -1.8900000000000000E-002     1.4158989894390622E-016
  -1.8849999999999999E-002     1.6217811352580021E-016
  -1.8800000000000001E-002     1.5727535060947627E-016
  -1.8749999999999999E-002     1.2447033266036506E-016
  -1.8700000000000001E-002     6.5735315816066785E-017
  -1.8650000000000000E-002    -1.2359212210444250E-017
  -1.8599999999999998E-002    -9.9126493588901770E-017
  -1.8550000000000001E-002    -1.8095710890285779E-016
  -1.8499999999999999E-002    -2.4314329856546960E-016
  -1.8450000000000001E-002    -2.7215152780323889E-016
  -1.8400000000000000E-002    -2.5806339663676743E-016
  -1.8349999999999998E-002    -1.9682416504987184E-016
  -1.8300000000000000E-002    -9.1894517519877496E-017
  -1.8249999999999999E-002     4.5089547716420129E-017
  -1.8200000000000001E-002     1.9496105674657307E-016
  -1.8149999999999999E-002     3.3312206664253586E-016
  -1.8100000000000002E-002     4.3301630370243076E-016
  -1.8050000000000000E-002     4.7061221940840448E-016
  -1.7999999999999999E-002     4.2925647775423009E-016
  -1.7950000000000001E-002     3.0404136638782909E-016
  -1.7899999999999999E-002     1.0474135072104229E-016
  -1.7850000000000001E-002    -1.4353542938518730E-016
  -1.7800000000000000E-002    -4.0254347028841518E-016
  -1.7749999999999998E-002    -6.2603042038392703E-016
  -1.7700000000000000E-002    -7.6729825305883378E-016
  -1.7649999999999999E-002    -7.8809274037788750E-016
  -1.7600000000000001E-002    -6.6724828999928140E-016
  -1.7550000000000000E-002    -4.0730204310851553E-016
  -1.7499999999999998E-002    -3.7424233676334543E-017
  -1.7450000000000000E-002     3.8847198547563290E-016
  -1.7399999999999999E-002     7.9874525033993188E-016
  -1.7350000000000001E-002     1.1154463932562698E-015
  -1.7299999999999999E-002     1.2684230793994895E-015
  -1.7250000000000001E-002     1.2096226481819845E-015
  -1.7200000000000000E-002     9.2477478005025652E-016
  -1.7149999999999999E-002     4.3986489103677752E-016
  -1.7100000000000001E-002    -1.7940960159760595E-016
  -1.7049999999999999E-002    -8.3577015691189408E-016
  -1.7000000000000001E-002    -1.4151981253504311E-015
  -1.6950000000000000E-002    -1.8062234913817946E-015
  -1.6899999999999998E-002    -1.9203762938361290E-015
  -1.6850000000000000E-002    -1.7100862816001294E-015
  -1.6799999999999999E-002    -1.1805749772594608E-015
  -1.6750000000000001E-002    -3.9323104848463754E-016
  -1.6700000000000000E-002     5.4061757460062392E-016
  -1.6649999999999998E-002     1.4749464469372182E-015
  -1.6600000000000000E-002     2.2511330122173580E-015
  -1.6549999999999999E-002     2.7235331295769794E-015
  -1.6500000000000001E-002     2.7845143032740275E-015
  -1.6449999999999999E-002     2.3849294831207337E-015
  -1.6400000000000001E-002     1.5466399068510592E-015
  -1.6350000000000000E-002     3.6480026047937527E-016
  -1.6299999999999999E-002    -1.0009848420296500E-015
  -1.6250000000000001E-002    -2.3460126305122764E-015
  -1.6199999999999999E-002    -3.4482970360401354E-015
  -1.6150000000000001E-002    -4.1015681466477621E-015
  -1.6100000000000000E-002    -4.1492378358596375E-015
  -1.6049999999999998E-002    -3.5145697058112069E-015
  -1.6000000000000000E-002    -2.2222067607959158E-015
  -1.5949999999999999E-002    -4.0672271490447854E-016
  -1.5900000000000001E-002     1.6949725653449521E-015
  -1.5850000000000000E-002     3.7686639569064173E-015
  -1.5799999999999998E-002     5.4640877330338301E-015
  -1.5750000000000000E-002     6.4483136136845541E-015
  -1.5699999999999999E-002     6.4642978532332183E-015
  -1.5650000000000001E-002     5.3853884670337852E-015
  -1.5599999999999999E-002     3.2555227891251895E-015
  -1.5550000000000001E-002     3.0553939909294322E-016
  -1.5500000000000000E-002    -3.0612805801433993E-015
  -1.5449999999999998E-002    -6.3167240364427279E-015
  -1.5400000000000000E-002    -8.8845716056019234E-015
  -1.5349999999999999E-002    -1.0237029215395372E-014
  -1.5300000000000001E-002    -9.9953978102887344E-015
  -1.5250000000000000E-002    -8.0165937900188440E-015
  -1.5199999999999998E-002    -4.4472432850921447E-015
  -1.5150000000000000E-002     2.6908845227472389E-016
  -1.5099999999999999E-002     5.4386616260527321E-015
  -1.5050000000000001E-002     1.0215751095734296E-014
  -1.4999999999999999E-002     1.3739332792050709E-014
  -1.4949999999999998E-002     1.5286414421222525E-014
  -1.4900000000000000E-002     1.4414630710358370E-014
  -1.4849999999999999E-002     1.1066214317369317E-014
  -1.4800000000000001E-002     5.6103764688787724E-015
  -1.4749999999999999E-002    -1.1888594525334251E-015
  -1.4700000000000001E-002    -8.2790694886295016E-015
  -1.4650000000000000E-002    -1.4485574237023386E-014
  -1.4599999999999998E-002    -1.8710543016246174E-014
  -1.4550000000000000E-002    -2.0130520056915519E-014
  -1.4499999999999999E-002    -1.8356332784373247E-014
  -1.4450000000000001E-002    -1.3524558457372104E-014
  -1.4400000000000000E-002    -6.3010642386316560E-015
  -1.4349999999999998E-002     2.2077363258847380E-015
  -1.4300000000000000E-002     1.0623914532075885E-014
  -1.4249999999999999E-002     1.7521005475913574E-014
  -1.4200000000000001E-002     2.1664764052766502E-014
  -1.4149999999999999E-002     2.2231930024897810E-014
  -1.4099999999999998E-002     1.8970311611069625E-014
  -1.4050000000000000E-002     1.2272500956139030E-014
  -1.3999999999999999E-002     3.1486664024958626E-015
  -1.3950000000000001E-002    -6.9011660399919939E-015
  -1.3899999999999999E-002    -1.6100205907372706E-014
  -1.3850000000000001E-002    -2.2665969217368697E-014
  -1.3800000000000000E-002    -2.5103115659042524E-014
  -1.3749999999999998E-002    -2.2477476765425081E-014
  -1.3700000000000000E-002    -1.4630534670260895E-014
  -1.3649999999999999E-002    -2.2982451212765480E-015
  -1.3600000000000001E-002     1.2893178068811799E-014
  -1.3550000000000000E-002     2.8568976610260631E-014
  -1.3499999999999998E-002     4.1882801548001521E-014
  -1.3450000000000000E-002     4.9907371041747610E-014
  -1.3399999999999999E-002     5.0097091145572563E-014
  -1.3350000000000001E-002     4.0762748369277028E-014
  -1.3299999999999999E-002     2.1485677232229424E-014
  -1.3249999999999998E-002    -6.6043574888777487E-015
  -1.3200000000000000E-002    -4.0754330798387713E-014
  -1.3149999999999998E-002    -7.6760156034643341E-014
  -1.3100000000000001E-002    -1.0939516778070567E-013
  -1.3049999999999999E-002    -1.3306125107953508E-013
  -1.3000000000000001E-002    -1.4258547439105044E-013
  -1.2950000000000000E-002    -1.3404936256443442E-013
  -1.2899999999999998E-002    -1.0551851927359670E-013
  -1.2850000000000000E-002    -5.7543223205137757E-014
  -1.2799999999999999E-002     6.6716683971215287E-015