  -4.0000000000000001E-002     0.0000000000000000     
  -3.9949999999999999E-002     0.0000000000000000     
  -3.9899999999999998E-002     0.0000000000000000     
  -3.9850000000000003E-002     0.0000000000000000     
  -3.9800000000000002E-002     0.0000000000000000     
  -3.9750000000000001E-002     0.0000000000000000     
  -3.9699999999999999E-002     0.0000000000000000     
  -3.9649999999999998E-002     0.0000000000000000     
  -3.9600000000000003E-002     0.0000000000000000     
  -3.9550000000000002E-002     0.0000000000000000     
  -3.9500000000000000E-002     0.0000000000000000     
  -3.9449999999999999E-002     0.0000000000000000     
  -3.9399999999999998E-002     0.0000000000000000     
  -3.9350000000000003E-002     0.0000000000000000     
  -3.9300000000000002E-002     0.0000000000000000     
  -3.9250000000000000E-002     0.0000000000000000     
  -3.9199999999999999E-002     0.0000000000000000     
  -3.9150000000000004E-002     0.0000000000000000     
  -3.9100000000000003E-002     0.0000000000000000     
  -3.9050000000000001E-002     0.0000000000000000     
  -3.9000000000000000E-002     0.0000000000000000     
  -3.8949999999999999E-002     0.0000000000000000     
  -3.8900000000000004E-002     0.0000000000000000     
  -3.8850000000000003E-002     0.0000000000000000     
  -3.8800000000000001E-002     0.0000000000000000     
  -3.8750000000000000E-002     0.0000000000000000     
  -3.8699999999999998E-002     0.0000000000000000     
  -3.8650000000000004E-002     0.0000000000000000     
  -3.8600000000000002E-002     0.0000000000000000     
  -3.8550000000000001E-002     0.0000000000000000     
  -3.8500000000000000E-002     0.0000000000000000     
  -3.8449999999999998E-002     0.0000000000000000     
  -3.8400000000000004E-002     0.0000000000000000     
  -3.8350000000000002E-002     0.0000000000000000     
  -3.8300000000000001E-002     0.0000000000000000     
  -3.8249999999999999E-002     0.0000000000000000     
  -3.8199999999999998E-002     0.0000000000000000     
  -3.8150000000000003E-002     0.0000000000000000     
  -3.8100000000000002E-002     0.0000000000000000     
  -3.8050000000000000E-002     0.0000000000000000     
  -3.7999999999999999E-002     0.0000000000000000     
  -3.7949999999999998E-002     0.0000000000000000     
  -3.7900000000000003E-002     0.0000000000000000     
  -3.7850000000000002E-002     0.0000000000000000     
  -3.7800000000000000E-002     0.0000000000000000     
  -3.7749999999999999E-002     0.0000000000000000     
  -3.7699999999999997E-002     0.0000000000000000     
  -3.7650000000000003E-002     0.0000000000000000     
  -3.7600000000000001E-002     0.0000000000000000     
  -3.7550000000000000E-002     0.0000000000000000     
  -3.7499999999999999E-002     0.0000000000000000     
  -3.7449999999999997E-002     0.0000000000000000     
  -3.7400000000000003E-002     0.0000000000000000     
  -3.7350000000000001E-002     0.0000000000000000     
  -3.7300000000000000E-002     0.0000000000000000     
  -3.7249999999999998E-002     0.0000000000000000     
  -3.7200000000000004E-002     0.0000000000000000     
  -3.7150000000000002E-002     0.0000000000000000     
  -3.7100000000000001E-002     0.0000000000000000     
  -3.7050000000000000E-002     0.0000000000000000     
  -3.6999999999999998E-002     0.0000000000000000     
  -3.6950000000000004E-002     0.0000000000000000     
  -3.6900000000000002E-002     0.0000000000000000     
  -3.6850000000000001E-002     0.0000000000000000     
  -3.6799999999999999E-002     0.0000000000000000     
  -3.6749999999999998E-002     0.0000000000000000     
  -3.6700000000000003E-002     0.0000000000000000     
  -3.6650000000000002E-002     0.0000000000000000     
  -3.6600000000000001E-002     0.0000000000000000     
  -3.6549999999999999E-002     0.0000000000000000     
  -3.6499999999999998E-002     0.0000000000000000     
  -3.6450000000000003E-002     0.0000000000000000     
  -3.6400000000000002E-002     0.0000000000000000     
  -3.6350000000000000E-002     0.0000000000000000     
  -3.6299999999999999E-002     0.0000000000000000     
  -3.6249999999999998E-002     0.0000000000000000     
  -3.6200000000000003E-002     0.0000000000000000     
  -3.6150000000000002E-002     0.0000000000000000     
  -3.6100000000000000E-002     0.0000000000000000     
  -3.6049999999999999E-002     0.0000000000000000     
  -3.6000000000000004E-002     0.0000000000000000     
  -3.5950000000000003E-002     0.0000000000000000     
  -3.5900000000000001E-002     0.0000000000000000     
  -3.5850000000000000E-002     0.0000000000000000     
  -3.5799999999999998E-002     0.0000000000000000     
  -3.5750000000000004E-002     0.0000000000000000     
  -3.5700000000000003E-002     0.0000000000000000     
  -3.5650000000000001E-002     0.0000000000000000     
  -3.5600000000000000E-002     0.0000000000000000     
  -3.5549999999999998E-002     0.0000000000000000     
  -3.5500000000000004E-002     0.0000000000000000     
  -3.5450000000000002E-002     0.0000000000000000     
  -3.5400000000000001E-002     0.0000000000000000     
  -3.5349999999999999E-002     0.0000000000000000     
  -3.5299999999999998E-002     0.0000000000000000     
  -3.5250000000000004E-002     0.0000000000000000     
  -3.5200000000000002E-002     0.0000000000000000     
  -3.5150000000000001E-002     0.0000000000000000     
  -3.5099999999999999E-002     0.0000000000000000     
  -3.5049999999999998E-002     0.0000000000000000     
  -3.5000000000000003E-002     0.0000000000000000     
  -3.4950000000000002E-002     0.0000000000000000     
  -3.4900000000000000E-002     0.0000000000000000     
  -3.4849999999999999E-002     0.0000000000000000     
  -3.4799999999999998E-002     0.0000000000000000     
  -3.4750000000000003E-002     0.0000000000000000     
  -3.4700000000000002E-002     0.0000000000000000     
  -3.4650000000000000E-002     0.0000000000000000     
  -3.4599999999999999E-002     0.0000000000000000     
  -3.4549999999999997E-002     0.0000000000000000     
  -3.4500000000000003E-002     0.0000000000000000     
  -3.4450000000000001E-002     0.0000000000000000     
  -3.4400000000000000E-002     0.0000000000000000     
  -3.4349999999999999E-002     0.0000000000000000     
  -3.4299999999999997E-002     0.0000000000000000     
  -3.4250000000000003E-002     0.0000000000000000     
  -3.4200000000000001E-002     0.0000000000000000     
  -3.4150000000000000E-002     0.0000000000000000     
  -3.4099999999999998E-002     0.0000000000000000     
  -3.4049999999999997E-002     0.0000000000000000     
  -3.4000000000000002E-002     0.0000000000000000     
  -3.3950000000000001E-002     0.0000000000000000     
  -3.3900000000000000E-002     0.0000000000000000     
  -3.3849999999999998E-002     0.0000000000000000     
  -3.3799999999999997E-002     0.0000000000000000     
  -3.3750000000000002E-002     0.0000000000000000     
  -3.3700000000000001E-002     0.0000000000000000     
  -3.3649999999999999E-002     0.0000000000000000     
  -3.3599999999999998E-002     0.0000000000000000     
  -3.3550000000000003E-002     0.0000000000000000     
  -3.3500000000000002E-002     0.0000000000000000     
  -3.3450000000000001E-002     0.0000000000000000     
  -3.3399999999999999E-002     0.0000000000000000     
  -3.3349999999999998E-002     0.0000000000000000     
  -3.3300000000000003E-002     0.0000000000000000     
  -3.3250000000000002E-002     0.0000000000000000     
  -3.3200000000000000E-002     0.0000000000000000     
  -3.3149999999999999E-002     0.0000000000000000     
  -3.3099999999999997E-002     0.0000000000000000     
  -3.3050000000000003E-002     0.0000000000000000     
  -3.3000000000000002E-002     0.0000000000000000     
  -3.2950000000000000E-002     0.0000000000000000     
  -3.2899999999999999E-002     0.0000000000000000     
  -3.2850000000000004E-002     0.0000000000000000     
  -3.2800000000000003E-002     0.0000000000000000     
  -3.2750000000000001E-002     0.0000000000000000     
  -3.2700000000000000E-002     0.0000000000000000     
  -3.2649999999999998E-002     0.0000000000000000     
  -3.2600000000000004E-002     0.0000000000000000     
  -3.2550000000000003E-002     0.0000000000000000     
  -3.2500000000000001E-002     0.0000000000000000     
  -3.2450000000000000E-002     0.0000000000000000     
  -3.2399999999999998E-002     0.0000000000000000     
  -3.2350000000000004E-002     0.0000000000000000     
  -3.2300000000000002E-002     0.0000000000000000     
  -3.2250000000000001E-002     0.0000000000000000     
  -3.2199999999999999E-002     0.0000000000000000     
  -3.2149999999999998E-002     0.0000000000000000     
  -3.2100000000000004E-002     0.0000000000000000     
  -3.2050000000000002E-002     0.0000000000000000     
  -3.2000000000000001E-002     0.0000000000000000     
  -3.1949999999999999E-002     0.0000000000000000     
  -3.1899999999999998E-002     0.0000000000000000     
  -3.1850000000000003E-002     0.0000000000000000     
  -3.1800000000000002E-002     0.0000000000000000     
  -3.1750000000000000E-002     0.0000000000000000     
  -3.1699999999999999E-002     0.0000000000000000     
  -3.1649999999999998E-002     0.0000000000000000     
  -3.1600000000000003E-002     0.0000000000000000     
  -3.1550000000000002E-002     0.0000000000000000     
  -3.1500000000000000E-002     0.0000000000000000     
  -3.1449999999999999E-002     0.0000000000000000     
  -3.1399999999999997E-002     0.0000000000000000     
  -3.1350000000000003E-002     0.0000000000000000     
  -3.1300000000000001E-002     0.0000000000000000     
  -3.1250000000000000E-002     0.0000000000000000     
  -3.1199999999999999E-002     0.0000000000000000     
  -3.1150000000000001E-002     0.0000000000000000     
  -3.1100000000000003E-002     0.0000000000000000     
  -3.1050000000000001E-002     0.0000000000000000     
  -3.1000000000000000E-002     0.0000000000000000     
  -3.0949999999999998E-002     0.0000000000000000     
  -3.0900000000000000E-002     0.0000000000000000     
  -3.0850000000000002E-002     0.0000000000000000     
  -3.0800000000000001E-002     0.0000000000000000     
  -3.0750000000000000E-002     0.0000000000000000     
  -3.0699999999999998E-002     0.0000000000000000     
  -3.0650000000000000E-002     0.0000000000000000     
  -3.0600000000000002E-002     0.0000000000000000     
  -3.0550000000000001E-002     0.0000000000000000     
  -3.0499999999999999E-002     0.0000000000000000     
  -3.0449999999999998E-002     0.0000000000000000     
  -3.0400000000000000E-002     0.0000000000000000     
  -3.0350000000000002E-002     0.0000000000000000     
  -3.0300000000000001E-002     0.0000000000000000     
  -3.0249999999999999E-002     0.0000000000000000     
  -3.0200000000000001E-002     0.0000000000000000     
  -3.0150000000000000E-002     0.0000000000000000     
  -3.0100000000000002E-002     0.0000000000000000     
  -3.0050000000000000E-002     0.0000000000000000     
  -2.9999999999999999E-002     0.0000000000000000     
  -2.9950000000000001E-002     0.0000000000000000     
  -2.9899999999999999E-002     0.0000000000000000     
  -2.9850000000000002E-002     0.0000000000000000     
  -2.9800000000000000E-002     0.0000000000000000     
  -2.9749999999999999E-002     0.0000000000000000     
  -2.9700000000000001E-002     0.0000000000000000     
  -2.9650000000000003E-002     0.0000000000000000     
  -2.9600000000000001E-002     0.0000000000000000     
  -2.9550000000000000E-002     0.0000000000000000     
  -2.9499999999999998E-002     0.0000000000000000     
  -2.9450000000000000E-002     0.0000000000000000     
  -2.9400000000000003E-002     0.0000000000000000     
  -2.9350000000000001E-002     0.0000000000000000     
  -2.9300000000000000E-002     0.0000000000000000     
  -2.9249999999999998E-002     0.0000000000000000     
  -2.9200000000000000E-002     0.0000000000000000     
  -2.9150000000000002E-002     0.0000000000000000     
  -2.9100000000000001E-002     0.0000000000000000     
  -2.9049999999999999E-002     0.0000000000000000     
  -2.8999999999999998E-002     0.0000000000000000     
  -2.8950000000000000E-002     0.0000000000000000     
  -2.8900000000000002E-002     0.0000000000000000     
  -2.8850000000000001E-002     0.0000000000000000     
  -2.8799999999999999E-002     0.0000000000000000     
  -2.8749999999999998E-002     0.0000000000000000     
  -2.8700000000000000E-002     0.0000000000000000     
  -2.8650000000000002E-002     0.0000000000000000     
  -2.8600000000000000E-002     0.0000000000000000     
  -2.8549999999999999E-002     0.0000000000000000     
  -2.8500000000000001E-002     0.0000000000000000     
  -2.8450000000000000E-002     0.0000000000000000     
  -2.8400000000000002E-002     0.0000000000000000     
  -2.8350000000000000E-002     0.0000000000000000     
  -2.8299999999999999E-002     0.0000000000000000     
  -2.8250000000000001E-002     0.0000000000000000     
  -2.8200000000000003E-002     0.0000000000000000     
  -2.8150000000000001E-002     0.0000000000000000     
  -2.8100000000000000E-002     0.0000000000000000     
  -2.8049999999999999E-002     0.0000000000000000     
  -2.8000000000000001E-002     0.0000000000000000     
  -2.7950000000000003E-002     0.0000000000000000     
  -2.7900000000000001E-002     0.0000000000000000     
  -2.7850000000000000E-002     0.0000000000000000     
  -2.7799999999999998E-002     0.0000000000000000     
  -2.7750000000000000E-002     0.0000000000000000     
  -2.7700000000000002E-002     0.0000000000000000     
  -2.7650000000000001E-002     0.0000000000000000     
  -2.7600000000000000E-002     0.0000000000000000     
  -2.7549999999999998E-002     0.0000000000000000     
  -2.7500000000000000E-002     0.0000000000000000     
  -2.7450000000000002E-002     0.0000000000000000     
  -2.7400000000000001E-002     0.0000000000000000     
  -2.7349999999999999E-002     0.0000000000000000     
  -2.7299999999999998E-002     0.0000000000000000     
  -2.7250000000000000E-002     0.0000000000000000     
  -2.7200000000000002E-002     0.0000000000000000     
  -2.7150000000000001E-002     0.0000000000000000     
  -2.7099999999999999E-002     0.0000000000000000     
  -2.7049999999999998E-002     0.0000000000000000     
  -2.7000000000000000E-002     0.0000000000000000     
  -2.6950000000000002E-002     0.0000000000000000     
  -2.6900000000000000E-002     0.0000000000000000     
  -2.6849999999999999E-002     0.0000000000000000     
  -2.6800000000000001E-002     0.0000000000000000     
  -2.6749999999999999E-002     0.0000000000000000     
  -2.6700000000000002E-002     0.0000000000000000     
  -2.6650000000000000E-002     0.0000000000000000     
  -2.6599999999999999E-002     0.0000000000000000     
  -2.6550000000000001E-002     0.0000000000000000     
  -2.6500000000000003E-002     0.0000000000000000     
  -2.6450000000000001E-002     0.0000000000000000     
  -2.6400000000000000E-002     0.0000000000000000     
  -2.6349999999999998E-002     0.0000000000000000     
  -2.6300000000000000E-002     0.0000000000000000     
  -2.6250000000000002E-002     0.0000000000000000     
  -2.6200000000000001E-002     0.0000000000000000     
  -2.6150000000000000E-002     0.0000000000000000     
  -2.6099999999999998E-002     0.0000000000000000     
  -2.6050000000000000E-002     0.0000000000000000     
  -2.6000000000000002E-002     0.0000000000000000     
  -2.5950000000000001E-002     0.0000000000000000     
  -2.5899999999999999E-002     0.0000000000000000     
  -2.5849999999999998E-002     0.0000000000000000     
  -2.5800000000000000E-002     0.0000000000000000     
  -2.5750000000000002E-002     0.0000000000000000     
  -2.5700000000000001E-002     0.0000000000000000     
  -2.5649999999999999E-002     0.0000000000000000     
  -2.5599999999999998E-002     0.0000000000000000     
  -2.5550000000000000E-002     0.0000000000000000     
  -2.5500000000000002E-002     0.0000000000000000     
  -2.5450000000000000E-002     0.0000000000000000     
  -2.5399999999999999E-002     0.0000000000000000     
  -2.5349999999999998E-002     0.0000000000000000     
  -2.5300000000000000E-002     0.0000000000000000     
  -2.5250000000000002E-002     0.0000000000000000     
  -2.5200000000000000E-002     0.0000000000000000     
  -2.5149999999999999E-002     0.0000000000000000     
  -2.5100000000000001E-002     0.0000000000000000     
  -2.5049999999999999E-002     0.0000000000000000     
  -2.5000000000000001E-002     0.0000000000000000     
  -2.4950000000000000E-002     0.0000000000000000     
  -2.4899999999999999E-002     0.0000000000000000     
  -2.4850000000000001E-002     0.0000000000000000     
  -2.4800000000000003E-002     0.0000000000000000     
  -2.4750000000000001E-002     0.0000000000000000     
  -2.4700000000000000E-002     0.0000000000000000     
  -2.4649999999999998E-002     0.0000000000000000     
  -2.4600000000000000E-002     0.0000000000000000     
  -2.4550000000000002E-002     0.0000000000000000     
  -2.4500000000000001E-002     0.0000000000000000     
  -2.4450000000000000E-002    -1.1715485593828658E-038
  -2.4399999999999998E-002    -2.6902679294594388E-038
  -2.4350000000000000E-002    -2.7104458366249110E-038
  -2.4299999999999999E-002     1.2077073497417862E-052
  -2.4250000000000001E-002     4.8597930964948579E-038
  -2.4199999999999999E-002     1.0137958105597440E-037
  -2.4150000000000001E-002     1.4238587695959393E-037
  -2.4100000000000000E-002     1.3733012430669413E-037
  -2.4049999999999998E-002     6.3556357324586136E-038
  -2.4000000000000000E-002    -5.8665302132179006E-038
  -2.3949999999999999E-002    -2.0332008968814925E-037
  -2.3900000000000001E-002    -3.2139833031792974E-037
  -2.3850000000000000E-002    -3.8019566563699232E-037
  -2.3800000000000002E-002    -3.3226244198009457E-037
  -2.3750000000000000E-002    -1.6399670071802643E-037
  -2.3699999999999999E-002     1.0839782192840538E-037
  -2.3650000000000001E-002     4.5199190421091636E-037
  -2.3599999999999999E-002     7.9640220560595084E-037
  -2.3550000000000001E-002     1.0368077613746175E-036
  -2.3500000000000000E-002     1.0501921455675925E-036
  -2.3449999999999999E-002     7.2945694483190568E-037
  -2.3400000000000001E-002     3.3367315745566756E-038
  -2.3349999999999999E-002    -9.4102112245439441E-037
  -2.3300000000000001E-002    -1.9690839050725556E-036
  -2.3250000000000000E-002    -2.7213059799331221E-036
  -2.3199999999999998E-002    -2.8515151071154961E-036
  -2.3150000000000000E-002    -2.1258163239852811E-036
  -2.3099999999999999E-002    -5.3812326136931756E-037
  -2.3050000000000001E-002     1.6345402106132778E-036
  -2.3000000000000000E-002     3.8740917049188188E-036
  -2.2950000000000002E-002     5.5650675213240776E-036
  -2.2900000000000000E-002     6.1797287355569966E-036
  -2.2849999999999999E-002     5.4405827547229344E-036
  -2.2800000000000001E-002     3.3886133216464069E-036
  -2.2749999999999999E-002     3.2342723465100210E-037
  -2.2700000000000001E-002    -3.3504117533965250E-036
  -2.2650000000000000E-002    -7.2752371347820098E-036
  -2.2599999999999999E-002    -1.1180903881860508E-035
  -2.2550000000000001E-002    -1.4738113141795004E-035
  -2.2499999999999999E-002    -1.7254903940177876E-035
  -2.2450000000000001E-002    -1.7379336208757326E-035
  -2.2400000000000000E-002    -1.3074110680588300E-035
  -2.2349999999999998E-002    -2.1227066020875557E-036
  -2.2300000000000000E-002     1.6734452841266807E-035
  -2.2249999999999999E-002     4.2245407270462895E-035
  -2.2200000000000001E-002     6.9249512240787249E-035
  -2.2150000000000000E-002     8.8281918933828328E-035
  -2.2100000000000002E-002     8.7000609770985323E-035
  -2.2050000000000000E-002     5.3823955058090513E-035
  -2.1999999999999999E-002    -1.6671618286878844E-035
  -2.1950000000000001E-002    -1.1808187521039201E-034
  -2.1899999999999999E-002    -2.2857559718323047E-034
  -2.1850000000000001E-002    -3.1191040752789788E-034
  -2.1800000000000000E-002    -3.2478796812629846E-034
  -2.1749999999999999E-002    -2.3036835273250326E-034
  -2.1700000000000001E-002    -1.5135544379009528E-035
  -2.1649999999999999E-002     2.9619530859545980E-034
  -2.1600000000000001E-002     6.3433464739162447E-034
  -2.1550000000000000E-002     8.9334682659558316E-034
  -2.1499999999999998E-002     9.5506278388053180E-034
  -2.1450000000000000E-002     7.2661246625326253E-034
  -2.1399999999999999E-002     1.8160960488464824E-034
  -2.1350000000000001E-002    -6.0887045452444077E-034
  -2.1299999999999999E-002    -1.4698146763050547E-033
  -2.1250000000000002E-002    -2.1497493345650178E-033
  -2.1200000000000000E-002    -2.3819045314842883E-033
  -2.1149999999999999E-002    -1.9666364456885821E-033
  -2.1100000000000001E-002    -8.5209638293589904E-034
  -2.1049999999999999E-002     8.1449003662166878E-034
  -2.1000000000000001E-002     2.6881215473970805E-033
  -2.0950000000000000E-002     4.2893595971603776E-033
  -2.0899999999999998E-002     5.1195295512261528E-033
  -2.0850000000000000E-002     4.7984860884436833E-033
  -2.0799999999999999E-002     3.1844345196319813E-033
  -2.0750000000000001E-002     4.3757995861045503E-034
  -2.0700000000000000E-002    -2.9939422695776315E-033
  -2.0649999999999998E-002    -6.4613647965224575E-033
  -2.0600000000000000E-002    -9.2458433955003045E-033
  -2.0549999999999999E-002    -1.0688833636083637E-032
  -2.0500000000000001E-002    -1.0285116054541734E-032
  -2.0449999999999999E-002    -7.7268545519143563E-033
  -2.0400000000000001E-002    -2.9213968679495070E-033
  -2.0350000000000000E-002     3.9696670775898471E-033
  -2.0299999999999999E-002     1.2426005613390901E-032
  -2.0250000000000001E-002     2.1395592656602650E-032
  -2.0199999999999999E-002     2.9121402488590413E-032
  -2.0150000000000001E-002     3.3108902603502066E-032
  -2.0100000000000000E-002     3.0408499573166879E-032
  -2.0049999999999998E-002     1.8339953557501237E-032
  -2.0000000000000000E-002    -4.3596472288800262E-033
  -1.9949999999999999E-002    -3.6204006247538097E-032
  -1.9900000000000001E-002    -7.1909679898029895E-032
  -1.9850000000000000E-002    -1.0223250382152669E-031
  -1.9799999999999998E-002    -1.1522233533369387E-031
  -1.9750000000000000E-002    -9.9104874106356037E-032
  -1.9699999999999999E-002    -4.6443859453567410E-032
  -1.9650000000000001E-002     4.1414450046580713E-032
  -1.9599999999999999E-002     1.5113333704885507E-031
  -1.9550000000000001E-002     2.5706978083264391E-031
  -1.9500000000000000E-002     3.2506630340220007E-031
  -1.9449999999999999E-002     3.2051755572832788E-031
  -1.9400000000000001E-002     2.1941608036448417E-031
  -1.9349999999999999E-002     1.9610031006222496E-032
  -1.9300000000000001E-002    -2.5143616530724343E-031
  -1.9250000000000000E-002    -5.3600830269648101E-031
  -1.9199999999999998E-002    -7.5490715761345891E-031
  -1.9150000000000000E-002    -8.2538693794071498E-031
  -1.9099999999999999E-002    -6.8498133004219252E-031
  -1.9050000000000001E-002    -3.1523353205846362E-031
  -1.9000000000000000E-002     2.4199554732337529E-031
  -1.8949999999999998E-002     8.8221158783579260E-031
  -1.8900000000000000E-002     1.4535200144017905E-030
  -1.8849999999999999E-002     1.7882857766857205E-030
  -1.8800000000000001E-002     1.7450091573682037E-030
  -1.8749999999999999E-002     1.2502992430145933E-030
  -1.8700000000000001E-002     3.2953254871405276E-031
  -1.8650000000000000E-002    -8.8323741581360292E-031
  -1.8599999999999998E-002    -2.1606320020078708E-030
  -1.8550000000000001E-002    -3.2206477127541545E-030
  -1.8499999999999999E-002    -3.7808580926811734E-030
  -1.8450000000000001E-002    -3.6167683696055286E-030
  -1.8400000000000000E-002    -2.6129234833404592E-030
  -1.8349999999999998E-002    -7.9843651309762328E-031
  -1.8300000000000000E-002     1.6369017564949024E-030
  -1.8249999999999999E-002     4.3461879125460654E-030
  -1.8200000000000001E-002     6.8481237447756499E-030
  -1.8149999999999999E-002     8.5707227054292309E-030
  -1.8100000000000002E-002     8.9214676721462708E-030
  -1.8050000000000000E-002     7.3905630934646156E-030
  -1.7999999999999999E-002     3.6886520525446578E-030
  -1.7950000000000001E-002    -2.0936944356406114E-030
  -1.7899999999999999E-002    -9.3385067637873265E-030
  -1.7850000000000001E-002    -1.6820339443644628E-029
  -1.7800000000000000E-002    -2.2760439233188042E-029
  -1.7749999999999998E-002    -2.5071942006320584E-029
  -1.7700000000000000E-002    -2.1814024566335261E-029
  -1.7649999999999999E-002    -1.1806884035693088E-029
  -1.7600000000000001E-002     4.7200194157681396E-030
  -1.7550000000000000E-002     2.5642316776855784E-029
  -1.7499999999999998E-002     4.6840087387798239E-029
  -1.7450000000000000E-002     6.2663872106060332E-029
  -1.7399999999999999E-002     6.7030290795220209E-029
  -1.7350000000000001E-002     5.5028458224816050E-029
  -1.7299999999999999E-002     2.4714278288876414E-029
  -1.7250000000000001E-002    -2.1393644972817439E-029
  -1.7200000000000000E-002    -7.5659626768165577E-029
  -1.7149999999999999E-002    -1.2596181040490433E-028
  -1.7100000000000001E-002    -1.5778614853644625E-028
  -1.7049999999999999E-002    -1.5757024977319518E-028
  -1.7000000000000001E-002    -1.1665985746761645E-028
  -1.6950000000000000E-002    -3.4907554783880668E-029
  -1.6899999999999998E-002     7.7177155505924386E-029
  -1.6850000000000000E-002     1.9864509656568876E-028
  -1.6799999999999999E-002     3.0114007019792290E-028
  -1.6750000000000001E-002     3.5451112789436756E-028
  -1.6700000000000000E-002     3.3403228738910260E-028
  -1.6649999999999998E-002     2.2766952654200580E-028
  -1.6600000000000000E-002     4.1578434779517957E-029
  -1.6549999999999999E-002    -1.9780113867001827E-028
  -1.6500000000000001E-002    -4.4607182283082234E-028
  -1.6449999999999999E-002    -6.4772060230844527E-028
  -1.6400000000000001E-002    -7.4655388550355694E-028
  -1.6350000000000000E-002    -6.9793363942807075E-028
  -1.6299999999999999E-002    -4.8050367964855484E-028
  -1.6250000000000001E-002    -1.0501544975168427E-028
  -1.6199999999999999E-002     3.8177952233850248E-028
  -1.6150000000000001E-002     8.9953289488829265E-028
  -1.6100000000000000E-002     1.3435132930640009E-027
  -1.6049999999999998E-002     1.6002326230714888E-027
  -1.6000000000000000E-002     1.5681489947473184E-027
  -1.5949999999999999E-002     1.1811201816196027E-027
  -1.5900000000000001E-002     4.3121717377787405E-028
  -1.5850000000000000E-002    -6.1354738463169403E-028
  -1.5799999999999998E-002    -1.8017935020861467E-027
  -1.5750000000000000E-002    -2.9068900947211305E-027
  -1.5699999999999999E-002    -3.6545490178289284E-027
  -1.5650000000000001E-002    -3.7707596470315560E-027
  -1.5599999999999999E-002    -3.0460558081791306E-027
  -1.5550000000000001E-002    -1.4060870242208527E-027
  -1.5500000000000000E-002     1.0273391766561984E-027
  -1.5449999999999998E-002     3.9041439292916989E-027
  -1.5400000000000000E-002     6.6614692434824752E-027
  -1.5349999999999999E-002     8.5989201006961628E-027
  -1.5300000000000001E-002     9.0132074163662121E-027
  -1.5250000000000000E-002     7.3751261756596428E-027
  -1.5199999999999998E-002     3.5145152365095252E-027
  -1.5150000000000000E-002    -2.2339872644137105E-027
  -1.5099999999999999E-002    -8.9747762665882401E-027
  -1.5050000000000001E-002    -1.5324892543412988E-026
  -1.4999999999999999E-002    -1.9633266151544120E-026
  -1.4949999999999998E-002    -2.0326272349603049E-026
  -1.4900000000000000E-002    -1.6321480687953041E-026
  -1.4849999999999999E-002    -7.4190523059545533E-027
  -1.4800000000000001E-002     5.4351338026577123E-027
  -1.4749999999999999E-002     2.0111269869124134E-026
  -1.4700000000000001E-002     3.3542114094466441E-026
  -1.4650000000000000E-002     4.2254124158481365E-026
  -1.4599999999999998E-002     4.3111712946805123E-026
  -1.4550000000000000E-002     3.4136326908741208E-026
  -1.4499999999999999E-002     1.5218137284319421E-026
  -1.4450000000000001E-002    -1.1469094111796312E-026
  -1.4400000000000000E-002    -4.1501989654048288E-026
  -1.4349999999999998E-002    -6.8763788788246792E-026
  -1.4300000000000000E-002    -8.6489415768157334E-026
  -1.4249999999999999E-002    -8.8651365287407132E-026
  -1.4200000000000001E-002    -7.1441310657098626E-026
  -1.4149999999999999E-002    -3.4544071251972688E-026
  -1.4099999999999998E-002     1.8102145397626590E-026
  -1.4050000000000000E-002     7.8307218208258147E-026
  -1.3999999999999999E-002     1.3452684869100059E-025
  -1.3950000000000001E-002     1.7363599121284494E-025
  -1.3899999999999999E-002     1.8338444897925511E-025
  -1.3850000000000001E-002     1.5517425950490611E-025
  -1.3800000000000000E-002     8.6667635874282212E-026
  -1.3749999999999998E-002    -1.6335417058667079E-026
  -1.3700000000000000E-002    -1.3929254008575856E-025
  -1.3649999999999999E-002    -2.6000770511806348E-025
  -1.3600000000000001E-002    -3.5159737563552280E-025
  -1.3550000000000000E-002    -3.8717952763402728E-025
  -1.3499999999999998E-002    -3.4572632651652897E-025
  -1.3450000000000000E-002    -2.1811447351782592E-025
  -1.3399999999999999E-002    -1.2089929776699108E-026
  -1.3350000000000001E-002     2.4525741251238886E-025
  -1.3299999999999999E-002     5.0874381825689544E-025
  -1.3249999999999998E-002     7.2078349097604055E-025
  -1.3200000000000000E-002     8.2139438682278013E-025
  -1.3149999999999998E-002     7.6132163254428098E-025
  -1.3100000000000001E-002     5.1600415235046983E-025
  -1.3049999999999999E-002     9.7289511289375097E-026
  -1.3000000000000001E-002    -4.4046923304931421E-025
  -1.2950000000000000E-002    -1.0028051768750517E-024
  -1.2899999999999998E-002    -1.4675407619004652E-024
  -1.2850000000000000E-002    -1.7066595321200834E-024
  -1.2799999999999999E-002    -1.6146626478378959E-024