  -4.0000000000000001E-002     0.0000000000000000     
  -3.9949999999999999E-002     0.0000000000000000     
  -3.9899999999999998E-002     0.0000000000000000     
  -3.9850000000000003E-002     0.0000000000000000     
  -3.9800000000000002E-002     0.0000000000000000     
  -3.9750000000000001E-002     0.0000000000000000     
  -3.9699999999999999E-002     0.0000000000000000     
  -3.9649999999999998E-002     0.0000000000000000     
  -3.9600000000000003E-002     0.0000000000000000     
  -3.9550000000000002E-002     0.0000000000000000     
  -3.9500000000000000E-002     0.0000000000000000     
  -3.9449999999999999E-002     0.0000000000000000     
  -3.9399999999999998E-002     0.0000000000000000     
  -3.9350000000000003E-002     0.0000000000000000     
  -3.9300000000000002E-002     0.0000000000000000     
  -3.9250000000000000E-002     0.0000000000000000     
  -3.9199999999999999E-002     0.0000000000000000     
  -3.9150000000000004E-002     0.0000000000000000     
  -3.9100000000000003E-002     0.0000000000000000     
  -3.9050000000000001E-002     0.0000000000000000     
  -3.9000000000000000E-002     0.0000000000000000     
  -3.8949999999999999E-002     0.0000000000000000     
  -3.8900000000000004E-002     0.0000000000000000     
  -3.8850000000000003E-002     0.0000000000000000     
  -3.8800000000000001E-002     0.0000000000000000     
  -3.8750000000000000E-002     0.0000000000000000     
  -3.8699999999999998E-002     0.0000000000000000     
  -3.8650000000000004E-002     0.0000000000000000     
  -3.8600000000000002E-002     0.0000000000000000     
  -3.8550000000000001E-002     0.0000000000000000     
  -3.8500000000000000E-002     0.0000000000000000     
  -3.8449999999999998E-002     0.0000000000000000     
  -3.8400000000000004E-002     0.0000000000000000     
  -3.8350000000000002E-002     0.0000000000000000     
  -3.8300000000000001E-002     0.0000000000000000     
  -3.8249999999999999E-002     0.0000000000000000     
  -3.8199999999999998E-002     0.0000000000000000     
  -3.8150000000000003E-002     0.0000000000000000     
  -3.8100000000000002E-002     0.0000000000000000     
  -3.8050000000000000E-002     0.0000000000000000     
  -3.7999999999999999E-002     0.0000000000000000     
  -3.7949999999999998E-002     0.0000000000000000     
  -3.7900000000000003E-002     0.0000000000000000     
  -3.7850000000000002E-002     0.0000000000000000     
  -3.7800000000000000E-002     0.0000000000000000     
  -3.7749999999999999E-002     0.0000000000000000     
  -3.7699999999999997E-002     0.0000000000000000     
  -3.7650000000000003E-002     0.0000000000000000     
  -3.7600000000000001E-002     0.0000000000000000     
  -3.7550000000000000E-002     0.0000000000000000     
  -3.7499999999999999E-002     0.0000000000000000     
  -3.7449999999999997E-002     0.0000000000000000     
  -3.7400000000000003E-002     0.0000000000000000     
  -3.7350000000000001E-002     0.0000000000000000     
  -3.7300000000000000E-002     0.0000000000000000     
  -3.7249999999999998E-002     0.0000000000000000     
  -3.7200000000000004E-002     0.0000000000000000     
  -3.7150000000000002E-002     0.0000000000000000     
  -3.7100000000000001E-002     0.0000000000000000     
  -3.7050000000000000E-002     0.0000000000000000     
  -3.6999999999999998E-002     0.0000000000000000     
  -3.6950000000000004E-002     0.0000000000000000     
  -3.6900000000000002E-002     0.0000000000000000     
  -3.6850000000000001E-002     0.0000000000000000     
  -3.6799999999999999E-002     0.0000000000000000     
  -3.6749999999999998E-002     0.0000000000000000     
  -3.6700000000000003E-002     0.0000000000000000     
  -3.6650000000000002E-002     0.0000000000000000     
  -3.6600000000000001E-002     0.0000000000000000     
  -3.6549999999999999E-002     0.0000000000000000     
  -3.6499999999999998E-002     0.0000000000000000     
  -3.6450000000000003E-002     0.0000000000000000     
  -3.6400000000000002E-002     0.0000000000000000     
  -3.6350000000000000E-002     0.0000000000000000     
  -3.6299999999999999E-002     0.0000000000000000     
  -3.6249999999999998E-002     0.0000000000000000     
  -3.6200000000000003E-002     0.0000000000000000     
  -3.6150000000000002E-002     0.0000000000000000     
  -3.6100000000000000E-002     0.0000000000000000     
  -3.6049999999999999E-002     0.0000000000000000     
  -3.6000000000000004E-002     0.0000000000000000     
  -3.5950000000000003E-002     0.0000000000000000     
  -3.5900000000000001E-002     0.0000000000000000     
  -3.5850000000000000E-002     0.0000000000000000     
  -3.5799999999999998E-002     0.0000000000000000     
  -3.5750000000000004E-002     0.0000000000000000     
  -3.5700000000000003E-002     0.0000000000000000     
  -3.5650000000000001E-002     0.0000000000000000     
  -3.5600000000000000E-002     0.0000000000000000     
  -3.5549999999999998E-002     0.0000000000000000     
  -3.5500000000000004E-002     0.0000000000000000     
  -3.5450000000000002E-002     0.0000000000000000     
  -3.5400000000000001E-002     0.0000000000000000     
  -3.5349999999999999E-002     0.0000000000000000     
  -3.5299999999999998E-002     0.0000000000000000     
  -3.5250000000000004E-002     0.0000000000000000     
  -3.5200000000000002E-002     0.0000000000000000     
  -3.5150000000000001E-002     0.0000000000000000     
  -3.5099999999999999E-002     0.0000000000000000     
  -3.5049999999999998E-002     0.0000000000000000     
  -3.5000000000000003E-002     0.0000000000000000     
  -3.4950000000000002E-002     0.0000000000000000     
  -3.4900000000000000E-002     0.0000000000000000     
  -3.4849999999999999E-002     0.0000000000000000     
  -3.4799999999999998E-002     0.0000000000000000     
  -3.4750000000000003E-002     0.0000000000000000     
  -3.4700000000000002E-002     0.0000000000000000     
  -3.4650000000000000E-002     0.0000000000000000     
  -3.4599999999999999E-002     0.0000000000000000     
  -3.4549999999999997E-002     0.0000000000000000     
  -3.4500000000000003E-002     0.0000000000000000     
  -3.4450000000000001E-002     0.0000000000000000     
  -3.4400000000000000E-002     0.0000000000000000     
  -3.4349999999999999E-002     0.0000000000000000     
  -3.4299999999999997E-002     0.0000000000000000     
  -3.4250000000000003E-002     0.0000000000000000     
  -3.4200000000000001E-002     0.0000000000000000     
  -3.4150000000000000E-002     0.0000000000000000     
  -3.4099999999999998E-002     0.0000000000000000     
  -3.4049999999999997E-002     0.0000000000000000     
  -3.4000000000000002E-002     0.0000000000000000     
  -3.3950000000000001E-002     0.0000000000000000     
  -3.3900000000000000E-002     0.0000000000000000     
  -3.3849999999999998E-002     0.0000000000000000     
  -3.3799999999999997E-002     0.0000000000000000     
  -3.3750000000000002E-002     0.0000000000000000     
  -3.3700000000000001E-002     0.0000000000000000     
  -3.3649999999999999E-002     0.0000000000000000     
  -3.3599999999999998E-002     0.0000000000000000     
  -3.3550000000000003E-002     0.0000000000000000     
  -3.3500000000000002E-002     0.0000000000000000     
  -3.3450000000000001E-002     0.0000000000000000     
  -3.3399999999999999E-002     0.0000000000000000     
  -3.3349999999999998E-002     1.3796625614210959E-039
  -3.3300000000000003E-002     1.3796625614210959E-039
  -3.3250000000000002E-002     1.3796625614210959E-039
  -3.3200000000000000E-002    -1.3150851193869278E-039
  -3.3149999999999999E-002    -4.6135803742387923E-039
  -3.3099999999999997E-002    -1.7268272838868657E-039
  -3.3050000000000003E-002     5.2146813895155985E-039
  -3.3000000000000002E-002     1.1070043189798191E-038
  -3.2950000000000000E-002     7.0384151086435206E-039
  -3.2899999999999999E-002    -3.7201764831460225E-039
  -3.2850000000000004E-002    -1.5368543526214079E-038
  -3.2800000000000003E-002    -2.4771217800075147E-038
  -3.2750000000000001E-002    -2.6528813318596206E-038
  -3.2700000000000000E-002    -1.8823926700288641E-038
  -3.2649999999999998E-002     1.4333959192519590E-038
  -3.2600000000000004E-002     6.4483823504225104E-038
  -3.2550000000000003E-002     1.1230204791440045E-037
  -3.2500000000000001E-002     7.5547776922373601E-038
  -3.2450000000000000E-002    -1.7876787610972263E-038
  -3.2399999999999998E-002    -1.2131149202546733E-037
  -3.2350000000000004E-002    -1.1179731863479614E-037
  -3.2300000000000002E-002     1.4216376880911645E-037
  -3.2250000000000001E-002     6.7157107168406585E-037
  -3.2199999999999999E-002     1.3029550361169238E-036
  -3.2149999999999998E-002     1.6261244836041993E-036
  -3.2100000000000004E-002     1.0623346349329684E-036
  -3.2050000000000002E-002    -9.2548673343927465E-037
  -3.2000000000000001E-002    -4.4877958296894277E-036
  -3.1949999999999999E-002    -8.9723088894982733E-036
  -3.1899999999999998E-002    -1.2628675949687973E-035
  -3.1850000000000003E-002    -1.2699441496897731E-035
  -3.1800000000000002E-002    -6.1305550887342066E-036
  -3.1750000000000000E-002     9.0347287804129701E-036
  -3.1699999999999999E-002     3.1871713313767787E-035
  -3.1649999999999998E-002     5.7063740425193245E-035
  -3.1600000000000003E-002     7.4572223984749668E-035
  -3.1550000000000002E-002     7.1305339676591735E-035
  -3.1500000000000000E-002     3.5084443377647444E-035
  -3.1449999999999999E-002    -3.9650242877568025E-035
  -3.1399999999999997E-002    -1.4590376076629859E-034
  -3.1350000000000003E-002    -2.6016447260233509E-034
  -3.1300000000000001E-002    -3.4274480533773146E-034
  -3.1250000000000000E-002    -3.4415350230014075E-034
  -3.1199999999999999E-002    -2.1794123050850057E-034
  -3.1150000000000001E-002     6.1310107489774505E-035
  -3.1100000000000003E-002     4.7819843841490561E-034
  -3.1050000000000001E-002     9.6026838878356736E-034
  -3.1000000000000000E-002     1.3723784201224280E-033
  -3.0949999999999998E-002     1.5294553637061316E-033
  -3.0900000000000000E-002     1.2341181393245745E-033
  -3.0850000000000002E-002     3.4083489783940068E-034
  -3.0800000000000001E-002    -1.1610923157086362E-033
  -3.0750000000000000E-002    -3.0667272463864575E-033
  -3.0699999999999998E-002    -4.9113825518897186E-033
  -3.0650000000000000E-002    -6.0042674621806526E-033
  -3.0600000000000002E-002    -5.5718254748377286E-033
  -3.0550000000000001E-002    -3.0117051895220032E-033
  -3.0499999999999999E-002     1.7922890472263558E-033
  -3.0449999999999998E-002     8.1991428432857429E-033
  -3.0400000000000000E-002     1.4721341426157755E-032
  -3.0350000000000002E-002     1.9236135882360456E-032
  -3.0300000000000001E-002     1.9528077759628052E-032
  -3.0249999999999999E-002     1.4050128486090137E-032
  -3.0200000000000001E-002     2.6442163436930116E-033
  -3.0150000000000000E-002    -1.3106680495667288E-032
  -3.0100000000000002E-002    -3.0139616817061309E-032
  -3.0050000000000000E-002    -4.4776210566311995E-032
  -2.9999999999999999E-002    -5.3832059526328661E-032
  -2.9950000000000001E-002    -5.5345617314644076E-032
  -2.9899999999999999E-002    -4.8333179878211332E-032
  -2.9850000000000002E-002    -3.1449425867463934E-032
  -2.9800000000000000E-002    -1.2777403741130945E-033
  -2.9749999999999999E-002     4.8164656278751030E-032
  -2.9700000000000001E-002     1.2283140625520251E-031
  -2.9650000000000003E-002     2.2194730170837840E-031
  -2.9600000000000001E-002     3.2841033353884264E-031
  -2.9550000000000000E-002     4.0056728331341624E-031
  -2.9499999999999998E-002     3.7218271816964475E-031
  -2.9450000000000000E-002     1.6755939968582546E-031
  -2.9400000000000003E-002    -2.6514397255406058E-031
  -2.9350000000000001E-002    -9.0761896238972526E-031
  -2.9300000000000000E-002    -1.6280292980965984E-030
  -2.9249999999999998E-002    -2.1651519509256583E-030
  -2.9200000000000000E-002    -2.1656614185459968E-030
  -2.9150000000000002E-002    -1.2887280258062927E-030
  -2.9100000000000001E-002     6.3274975033858230E-031
  -2.9049999999999999E-002     3.4178364341011613E-030
  -2.8999999999999998E-002     6.4227473869445809E-030
  -2.8950000000000000E-002     8.5675731228547911E-030
  -2.8900000000000002E-002     8.5629631610089145E-030
  -2.8850000000000001E-002     5.3344089194588449E-030
  -2.8799999999999999E-002    -1.4448015990173169E-030
  -2.8749999999999998E-002    -1.0885573252333222E-029
  -2.8700000000000000E-002    -2.0698373671196937E-029
  -2.8650000000000002E-002    -2.7480626347232256E-029
  -2.8600000000000000E-002    -2.7545275195657106E-029
  -2.8549999999999999E-002    -1.8168841320713245E-029
  -2.8500000000000001E-002     1.0696971252388914E-030
  -2.8450000000000000E-002     2.7331480050567424E-029
  -2.8400000000000002E-002     5.4415846619981465E-029
  -2.8350000000000000E-002     7.3806171963209556E-029
  -2.8299999999999999E-002     7.6811867809257730E-029
  -2.8250000000000001E-002     5.7343003641606996E-029
  -2.8200000000000003E-002     1.4519579572710494E-029
  -2.8150000000000001E-002    -4.5792199086990151E-029
  -2.8100000000000000E-002    -1.1122008891083811E-028
  -2.8049999999999999E-002    -1.6511078988254874E-028
  -2.8000000000000001E-002    -1.9030805732409275E-028
  -2.7950000000000003E-002    -1.7350146128592201E-028
  -2.7900000000000001E-002    -1.0893343596121426E-028
  -2.7850000000000000E-002    -4.7206929557116987E-031
  -2.7799999999999998E-002     1.3833456997870650E-028
  -2.7750000000000000E-002     2.8586400032845987E-028
  -2.7700000000000002E-002     4.1481990035629315E-028
  -2.7650000000000001E-002     4.9461155641158972E-028
  -2.7600000000000000E-002     4.9358476942115926E-028
  -2.7549999999999998E-002     3.8203314010617585E-028
  -2.7500000000000000E-002     1.3773612293946483E-028
  -2.7450000000000002E-002    -2.4438578238567063E-028
  -2.7400000000000001E-002    -7.3855369539583958E-028
  -2.7349999999999999E-002    -1.2734630309006220E-027
  -2.7299999999999998E-002    -1.7233446550197389E-027
  -2.7250000000000000E-002    -1.9138617465556191E-027
  -2.7200000000000002E-002    -1.6513188573272126E-027
  -2.7150000000000001E-002    -7.7854382672461485E-028
  -2.7099999999999999E-002     7.4882676176099284E-028
  -2.7049999999999998E-002     2.7841207080462159E-027
  -2.7000000000000000E-002     4.9387131086411393E-027
  -2.6950000000000002E-002     6.5919326177191295E-027
  -2.6900000000000000E-002     6.9883721481702081E-027
  -2.6849999999999999E-002     5.4288875939162518E-027
  -2.6800000000000001E-002     1.5300046932819390E-027
  -2.6749999999999999E-002    -4.5091176019661073E-027
  -2.6700000000000002E-002    -1.1721183594692552E-026
  -2.6650000000000000E-002    -1.8363494661878502E-026
  -2.6599999999999999E-002    -2.2162684152271777E-026
  -2.6550000000000001E-002    -2.0828232729876607E-026
  -2.6500000000000003E-002    -1.2768168236730912E-026
  -2.6450000000000001E-002     2.1503380925488690E-027
  -2.6400000000000000E-002     2.2022898177715852E-026
  -2.6349999999999998E-002     4.2759319875035514E-026
  -2.6300000000000000E-002     5.8557872757329670E-026
  -2.6250000000000002E-002     6.3063133266791307E-026
  -2.6200000000000001E-002     5.1074757232175400E-026
  -2.6150000000000000E-002     2.0463411539526542E-026
  -2.6099999999999998E-002    -2.6218014929853659E-026
  -2.6050000000000000E-002    -8.0999484469960286E-026
  -2.6000000000000002E-002    -1.3111073608256480E-025
  -2.5950000000000001E-002    -1.6115973117423012E-025
  -2.5899999999999999E-002    -1.5668344698338106E-025
  -2.5849999999999998E-002    -1.0843439856779597E-025
  -2.5800000000000000E-002    -1.6392628458214481E-026
  -2.5750000000000002E-002     1.0768208698826895E-025
  -2.5700000000000001E-002     2.4022201957059976E-025
  -2.5649999999999999E-002     3.4896674930640012E-025
  -2.5599999999999998E-002     3.9913144137058843E-025
  -2.5550000000000000E-002     3.6171063578263544E-025
  -2.5500000000000002E-002     2.2225804395003288E-025
  -2.5450000000000000E-002    -1.1959980507956755E-026
  -2.5399999999999999E-002    -3.0852370785173790E-025
  -2.5349999999999998E-002    -6.1169143657552663E-025
  -2.5300000000000000E-002    -8.5009007586886544E-025
  -2.5250000000000002E-002    -9.4963303015489232E-025
  -2.5200000000000000E-002    -8.4980745118379094E-025
  -2.5149999999999999E-002    -5.2050908164917334E-025
  -2.5100000000000001E-002     2.3923989892714320E-026
  -2.5049999999999999E-002     7.1682380354231567E-025
  -2.5000000000000001E-002     1.4402719883128546E-024
  -2.4950000000000000E-002     2.0369839378499712E-024
  -2.4899999999999999E-002     2.3334435338142892E-024
  -2.4850000000000001E-002     2.1729544217232768E-024
  -2.4800000000000003E-002     1.4551132621429451E-024
  -2.4750000000000001E-002     1.7576158064649010E-025
  -2.4700000000000000E-002    -1.5409479030078404E-024
  -2.4649999999999998E-002    -3.4284964257388415E-024
  -2.4600000000000000E-002    -5.0922489358367628E-024
  -2.4550000000000002E-002    -6.0597852388035755E-024
  -2.4500000000000001E-002    -5.8691266376914049E-024
  -2.4450000000000000E-002    -4.1872339335603537E-024
  -2.4399999999999998E-002    -9.3946932347645974E-025
  -2.4350000000000000E-002     3.5805240231999767E-024
  -2.4299999999999999E-002     8.6580265264283394E-024
  -2.4250000000000001E-002     1.3197614539876063E-023
  -2.4199999999999999E-002     1.5879874234733119E-023
  -2.4150000000000001E-002     1.5432775759636543E-023
  -2.4100000000000000E-002     1.0982335489976856E-023
  -2.4049999999999998E-002     2.4121120810728529E-024
  -2.4000000000000000E-002    -9.3653926415042756E-024
  -2.3949999999999999E-002    -2.2328881971540238E-023
  -2.3900000000000001E-002    -3.3541902399157587E-023
  -2.3850000000000000E-002    -3.9649919479763474E-023
  -2.3800000000000002E-002    -3.7634777258235803E-023
  -2.3750000000000000E-002    -2.5695671675870114E-023
  -2.3699999999999999E-002    -4.0547162792924181E-024
  -2.3650000000000001E-002     2.4548547151026106E-023
  -2.3599999999999999E-002     5.4886373030866901E-023
  -2.3550000000000001E-002     7.9921500911842490E-023
  -2.3500000000000000E-002     9.2119266935734377E-023
  -2.3449999999999999E-002     8.5207321276146612E-023
  -2.3400000000000001E-002     5.6038420477242994E-023
  -2.3349999999999999E-002     6.1099791969723202E-024
  -2.3300000000000001E-002    -5.7714422972804321E-023
  -2.3250000000000000E-002    -1.2363009775956658E-022
  -2.3199999999999998E-002    -1.7659872112400974E-022
  -2.3150000000000000E-002    -2.0118863578641394E-022
  -2.3099999999999999E-002    -1.8509979846600593E-022
  -2.3050000000000001E-002    -1.2268317601649771E-022
  -2.3000000000000000E-002    -1.7643223040638495E-023
  -2.2950000000000002E-002     1.1584124849112919E-022
  -2.2900000000000000E-002     2.5411910871649920E-022
  -2.2849999999999999E-002     3.6735786265845263E-022
  -2.2800000000000001E-002     4.2482594626194065E-022
  -2.2749999999999999E-002     4.0139945650290327E-022
  -2.2700000000000001E-002     2.8414812351589418E-022
  -2.2650000000000000E-002     7.7646851984427672E-023
  -2.2599999999999999E-002    -1.9331568720312797E-022
  -2.2550000000000001E-002    -4.8468238067261468E-022
  -2.2499999999999999E-002    -7.3825703501159245E-022
  -2.2450000000000001E-002    -8.9083980343529606E-022
  -2.2400000000000000E-002    -8.8637905541699170E-022
  -2.2349999999999998E-002    -6.8935631886814527E-022
  -2.2300000000000000E-002    -2.9698173694851777E-022
  -2.2249999999999999E-002     2.5255765415808199E-022
  -2.2200000000000001E-002     8.7843893755825752E-022
  -2.2150000000000000E-002     1.4641075644056814E-021
  -2.2100000000000002E-002     1.8734659410638360E-021
  -2.2050000000000000E-002     1.9753028066814185E-021
  -2.1999999999999999E-002     1.6728722971585157E-021
  -2.1950000000000001E-002     9.3355171917299856E-022
  -2.1899999999999999E-002    -1.8792014830423767E-022
  -2.1850000000000001E-002    -1.5394994656695499E-021
  -2.1800000000000000E-002    -2.8809588956348016E-021
  -2.1749999999999999E-002    -3.9150837992001467E-021
  -2.1700000000000001E-002    -4.3396791162486553E-021
  -2.1649999999999999E-002    -3.9139435034530751E-021
  -2.1600000000000001E-002    -2.5276796827337391E-021
  -2.1550000000000000E-002    -2.5810451490222614E-022
  -2.1499999999999998E-002     2.6020124850227324E-021
  -2.1450000000000000E-002     5.5585557543923737E-021
  -2.1399999999999999E-002     7.9797123878561624E-021
  -2.1350000000000001E-002     9.2062218314861179E-021
  -2.1299999999999999E-002     8.6937209670612440E-021
  -2.1250000000000002E-002     6.1616727857833029E-021
  -2.1200000000000000E-002     1.7159533854354226E-021
  -2.1149999999999999E-002    -4.0890895099999400E-021
  -2.1100000000000001E-002    -1.0276668109129924E-020
  -2.1049999999999999E-002    -1.5574670563392507E-020
  -2.1000000000000001E-002    -1.8636132410358489E-020
  -2.0950000000000000E-002    -1.8322207960029638E-020
  -2.0899999999999998E-002    -1.3996322715678663E-020
  -2.0850000000000000E-002    -5.7655299741009472E-021
  -2.0799999999999999E-002     5.3949885692263710E-021
  -2.0750000000000001E-002     1.7684014209163806E-020
  -2.0700000000000000E-002     2.8704498855920253E-020
  -2.0649999999999998E-002     3.5865603953902321E-020
  -2.0600000000000000E-002     3.6899801671754974E-020
  -2.0549999999999999E-002     3.0403880923982922E-020
  -2.0500000000000001E-002     1.6292650069003959E-020
  -2.0449999999999999E-002    -3.9450053253751270E-021
  -2.0400000000000001E-002    -2.7273934256503113E-020
  -2.0350000000000000E-002    -4.9464793959684614E-020
  -2.0299999999999999E-002    -6.5750541264289647E-020
  -2.0250000000000001E-002    -7.1702954337623319E-020
  -2.0199999999999999E-002    -6.4188205544660605E-020
  -2.0150000000000001E-002    -4.2224277122264894E-020
  -2.0100000000000000E-002    -7.5556053594855060E-021
  -2.0049999999999998E-002     3.5212860634857636E-020
  -2.0000000000000000E-002     7.9020004278081459E-020
  -1.9949999999999999E-002     1.1530280031365627E-019
  -1.9900000000000001E-002     1.3541049225656740E-019
  -1.9850000000000000E-002     1.3228789301457844E-019
  -1.9799999999999998E-002     1.0215437152923833E-019
  -1.9750000000000000E-002     4.5857086398986483E-020
  -1.9699999999999999E-002    -3.0421042319214525E-020
  -1.9650000000000001E-002    -1.1535751943711143E-019
  -1.9599999999999999E-002    -1.9372886516919199E-019
  -1.9550000000000001E-002    -2.4865808639062920E-019
  -1.9500000000000000E-002    -2.6463525666675052E-019
  -1.9449999999999999E-002    -2.3087413328895772E-019
  -1.9400000000000001E-002    -1.4440671159504627E-019
  -1.9349999999999999E-002    -1.2240807605002749E-020
  -1.9300000000000001E-002     1.4805242399379608E-019
  -1.9250000000000000E-002     3.0977098171535273E-019
  -1.9199999999999998E-002     4.4066646541781941E-019
  -1.9150000000000000E-002     5.0839190504650504E-019
  -1.9099999999999999E-002     4.8707372246631907E-019
  -1.9050000000000001E-002     3.6387230733797309E-019
  -1.9000000000000000E-002     1.4416066908996705E-019
  -1.8949999999999998E-002    -1.4604134484553455E-019
  -1.8900000000000000E-002    -4.6143246640352495E-019
  -1.8849999999999999E-002    -7.4305311985324196E-019
  -1.8800000000000001E-002    -9.2780663325462609E-019
  -1.8749999999999999E-002    -9.6061992469648948E-019
  -1.8700000000000001E-002    -8.0718795674521574E-019
  -1.8650000000000000E-002    -4.6474302971475559E-019
  -1.8599999999999998E-002     3.1750876513475292E-020
  -1.8550000000000001E-002     6.1007059107279097E-019
  -1.8499999999999999E-002     1.1689251913774670E-018
  -1.8450000000000001E-002     1.5934767572220692E-018
  -1.8400000000000000E-002     1.7762153525457613E-018
  -1.8349999999999998E-002     1.6397857450967085E-018
  -1.8300000000000000E-002     1.1574315924431348E-018
  -1.8249999999999999E-002     3.6654393823233867E-019
  -1.8200000000000001E-002    -6.2847382137007619E-019
  -1.8149999999999999E-002    -1.6662118062064886E-018
  -1.8100000000000002E-002    -2.5510592657176234E-018
  -1.8050000000000000E-002    -3.0861903164271121E-018
  -1.7999999999999999E-002    -3.1117280201129120E-018
  -1.7950000000000001E-002    -2.5413975262659777E-018
  -1.7899999999999999E-002    -1.3903639131185259E-018
  -1.7850000000000001E-002     2.1234214358899692E-019
  -1.7800000000000000E-002     2.0313443383016520E-018
  -1.7749999999999998E-002     3.7537548375887171E-018
  -1.7700000000000000E-002     5.0368687414260757E-018
  -1.7649999999999999E-002     5.5684393532942066E-018
  -1.7600000000000001E-002     5.1300627012316184E-018
  -1.7550000000000000E-002     3.6523624060051598E-018
  -1.7499999999999998E-002     1.2506002550311203E-018
  -1.7450000000000000E-002    -1.7686981648312434E-018
  -1.7399999999999999E-002    -4.9355809009852770E-018
  -1.7350000000000001E-002    -7.6790091390172726E-018
  -1.7299999999999999E-002    -9.4174966905086517E-018
  -1.7250000000000001E-002    -9.6657709915794153E-018
  -1.7200000000000000E-002    -8.1403635285298406E-018
  -1.7149999999999999E-002    -4.8445202228053858E-018
  -1.7100000000000001E-002    -1.1339878822158500E-019
  -1.7049999999999999E-002     5.3952722275373500E-018
  -1.7000000000000001E-002     1.0772327347633640E-017
  -1.6950000000000000E-002     1.4987083679866952E-017
  -1.6899999999999998E-002     1.7061479652777882E-017
  -1.6850000000000000E-002     1.6263012652508748E-017
  -1.6799999999999999E-002     1.2283092812032004E-017
  -1.6750000000000001E-002     5.3643734637745939E-018
  -1.6700000000000000E-002    -3.6558932562030966E-018
  -1.6649999999999998E-002    -1.3408926324052670E-017
  -1.6600000000000000E-002    -2.2169569449222418E-017
  -1.6549999999999999E-002    -2.8128272482774806E-017
  -1.6500000000000001E-002    -2.9723129900823078E-017
  -1.6449999999999999E-002    -2.5977304392946928E-017
  -1.6400000000000001E-002    -1.6777078804411968E-017
  -1.6350000000000000E-002    -3.0269579579596516E-018
  -1.6299999999999999E-002     1.3367582967553563E-017
  -1.6250000000000001E-002     2.9712870472493423E-017
  -1.6199999999999999E-002     4.2923553549458299E-017
  -1.6150000000000001E-002     5.0053122874939542E-017
  -1.6100000000000000E-002     4.8875070580594753E-017
  -1.6049999999999998E-002     3.8409479382400242E-017
  -1.6000000000000000E-002     1.9285635073741440E-017
  -1.5949999999999999E-002    -6.1517174876771954E-018
  -1.5900000000000001E-002    -3.4047676433665319E-017
  -1.5850000000000000E-002    -5.9556165372197148E-017
  -1.5799999999999998E-002    -7.7614890038846136E-017
  -1.5750000000000000E-002    -8.3862423614601027E-017
  -1.5699999999999999E-002    -7.5542522178361988E-017
  -1.5650000000000001E-002    -5.2224682931557059E-017
  -1.5599999999999999E-002    -1.6184035215350620E-017
  -1.5550000000000001E-002     2.7670943854754138E-017
  -1.5500000000000000E-002     7.2363836464753866E-017
  -1.5449999999999998E-002     1.0986368752311597E-016
  -1.5400000000000000E-002     1.3241448495023813E-016
  -1.5349999999999999E-002     1.3397687040269015E-016
  -1.5300000000000001E-002     1.1153507678157440E-016
  -1.5250000000000000E-002     6.6018893445254232E-017
  -1.5199999999999998E-002     2.6303777668235596E-018
  -1.5150000000000000E-002    -6.9553367252983789E-017
  -1.5099999999999999E-002    -1.3871713420502430E-016
  -1.5050000000000001E-002    -1.9207248470274082E-016
  -1.4999999999999999E-002    -2.1801546621255913E-016
  -1.4949999999999998E-002    -2.0834489364738015E-016
  -1.4900000000000000E-002    -1.6015831077583263E-016
  -1.4849999999999999E-002    -7.7050464192346954E-017
  -1.4800000000000001E-002     3.0686454987398548E-017
  -1.4749999999999999E-002     1.4702563781953614E-016
  -1.4700000000000001E-002     2.5231413690154028E-016
  -1.4650000000000000E-002     3.2630430328953110E-016
  -1.4599999999999998E-002     3.5169296456380973E-016
  -1.4550000000000000E-002     3.1760499895733677E-016
  -1.4499999999999999E-002     2.2238991788057437E-016
  -1.4450000000000001E-002     7.5135792012244632E-017
  -1.4400000000000000E-002    -1.0454822859384653E-016
  -1.4349999999999998E-002    -2.8867668549000390E-016
  -1.4300000000000000E-002    -4.4483383654664727E-016
  -1.4249999999999999E-002    -5.4144600265099033E-016
  -1.4200000000000001E-002    -5.5359768055731000E-016
  -1.4149999999999999E-002    -4.6839918213148918E-016
  -1.4099999999999998E-002    -2.8886319995677943E-016
  -1.4050000000000000E-002    -3.5381362016310475E-017
  -1.3999999999999999E-002     2.5578161396522905E-016
  -1.3950000000000001E-002     5.3708176593138827E-016
  -1.3899999999999999E-002     7.5692165059298860E-016
  -1.3850000000000001E-002     8.6850432440940560E-016
  -1.3800000000000000E-002     8.3888610232317152E-016
  -1.3749999999999998E-002     6.5658507443119439E-016
  -1.3700000000000000E-002     3.3617877764287957E-016
  -1.3649999999999999E-002    -8.1303051995861875E-017
  -1.3600000000000001E-002    -5.3274123244457979E-016
  -1.3550000000000000E-002    -9.4178059630962564E-016
  -1.3499999999999998E-002    -1.2310530789975396E-015
  -1.3450000000000000E-002    -1.3359144566301034E-015
  -1.3399999999999999E-002    -1.2173667401730103E-015
  -1.3350000000000001E-002    -8.7175364065217986E-016
  -1.3299999999999999E-002    -3.3515715719518003E-016
  -1.3249999999999998E-002     3.1882270179521217E-016
  -1.3200000000000000E-002     9.8816324787190046E-016
  -1.3149999999999998E-002     1.5574450923756862E-015
  -1.3100000000000001E-002     1.9167308779601380E-015
  -1.3049999999999999E-002     1.9813442237557242E-015
  -1.3000000000000001E-002     1.7091764549231611E-015
  -1.2950000000000000E-002     1.1122796184146336E-015
  -1.2899999999999998E-002     2.6019587627921460E-016
  -1.2850000000000000E-002    -7.2632304866790796E-016
  -1.2799999999999999E-002    -1.6910273014768899E-015