  -4.0000000000000001E-002     0.0000000000000000     
  -3.9949999999999999E-002     0.0000000000000000     
  -3.9899999999999998E-002     0.0000000000000000     
  -3.9850000000000003E-002     0.0000000000000000     
  -3.9800000000000002E-002     0.0000000000000000     
  -3.9750000000000001E-002     0.0000000000000000     
  -3.9699999999999999E-002     0.0000000000000000     
  -3.9649999999999998E-002     0.0000000000000000     
  -3.9600000000000003E-002     0.0000000000000000     
  -3.9550000000000002E-002     0.0000000000000000     
  -3.9500000000000000E-002     0.0000000000000000     
  -3.9449999999999999E-002     0.0000000000000000     
  -3.9399999999999998E-002     0.0000000000000000     
  -3.9350000000000003E-002     0.0000000000000000     
  -3.9300000000000002E-002     0.0000000000000000     
  -3.9250000000000000E-002     0.0000000000000000     
  -3.9199999999999999E-002     0.0000000000000000     
  -3.9150000000000004E-002     0.0000000000000000     
  -3.9100000000000003E-002     0.0000000000000000     
  -3.9050000000000001E-002     0.0000000000000000     
  -3.9000000000000000E-002     0.0000000000000000     
  -3.8949999999999999E-002     0.0000000000000000     
  -3.8900000000000004E-002     0.0000000000000000     
  -3.8850000000000003E-002     0.0000000000000000     
  -3.8800000000000001E-002     0.0000000000000000     
  -3.8750000000000000E-002     0.0000000000000000     
  -3.8699999999999998E-002     0.0000000000000000     
  -3.8650000000000004E-002     0.0000000000000000     
  -3.8600000000000002E-002     0.0000000000000000     
  -3.8550000000000001E-002     0.0000000000000000     
  -3.8500000000000000E-002     0.0000000000000000     
  -3.8449999999999998E-002     0.0000000000000000     
  -3.8400000000000004E-002     0.0000000000000000     
  -3.8350000000000002E-002     0.0000000000000000     
  -3.8300000000000001E-002     0.0000000000000000     
  -3.8249999999999999E-002     0.0000000000000000     
  -3.8199999999999998E-002     0.0000000000000000     
  -3.8150000000000003E-002     0.0000000000000000     
  -3.8100000000000002E-002     0.0000000000000000     
  -3.8050000000000000E-002     0.0000000000000000     
  -3.7999999999999999E-002     0.0000000000000000     
  -3.7949999999999998E-002     0.0000000000000000     
  -3.7900000000000003E-002     0.0000000000000000     
  -3.7850000000000002E-002     0.0000000000000000     
  -3.7800000000000000E-002     0.0000000000000000     
  -3.7749999999999999E-002     0.0000000000000000     
  -3.7699999999999997E-002     0.0000000000000000     
  -3.7650000000000003E-002     0.0000000000000000     
  -3.7600000000000001E-002     0.0000000000000000     
  -3.7550000000000000E-002     0.0000000000000000     
  -3.7499999999999999E-002     0.0000000000000000     
  -3.7449999999999997E-002     0.0000000000000000     
  -3.7400000000000003E-002     0.0000000000000000     
  -3.7350000000000001E-002     0.0000000000000000     
  -3.7300000000000000E-002     0.0000000000000000     
  -3.7249999999999998E-002     0.0000000000000000     
  -3.7200000000000004E-002     0.0000000000000000     
  -3.7150000000000002E-002     0.0000000000000000     
  -3.7100000000000001E-002     0.0000000000000000     
  -3.7050000000000000E-002     0.0000000000000000     
  -3.6999999999999998E-002     0.0000000000000000     
  -3.6950000000000004E-002     0.0000000000000000     
  -3.6900000000000002E-002     0.0000000000000000     
  -3.6850000000000001E-002     0.0000000000000000     
  -3.6799999999999999E-002     0.0000000000000000     
  -3.6749999999999998E-002     0.0000000000000000     
  -3.6700000000000003E-002     0.0000000000000000     
  -3.6650000000000002E-002     0.0000000000000000     
  -3.6600000000000001E-002     0.0000000000000000     
  -3.6549999999999999E-002     0.0000000000000000     
  -3.6499999999999998E-002     0.0000000000000000     
  -3.6450000000000003E-002     0.0000000000000000     
  -3.6400000000000002E-002     0.0000000000000000     
  -3.6350000000000000E-002     0.0000000000000000     
  -3.6299999999999999E-002     0.0000000000000000     
  -3.6249999999999998E-002     0.0000000000000000     
  -3.6200000000000003E-002     0.0000000000000000     
  -3.6150000000000002E-002     0.0000000000000000     
  -3.6100000000000000E-002     0.0000000000000000     
  -3.6049999999999999E-002     0.0000000000000000     
  -3.6000000000000004E-002     0.0000000000000000     
  -3.5950000000000003E-002     0.0000000000000000     
  -3.5900000000000001E-002     0.0000000000000000     
  -3.5850000000000000E-002     0.0000000000000000     
  -3.5799999999999998E-002     0.0000000000000000     
  -3.5750000000000004E-002     0.0000000000000000     
  -3.5700000000000003E-002     0.0000000000000000     
  -3.5650000000000001E-002     0.0000000000000000     
  -3.5600000000000000E-002     0.0000000000000000     
  -3.5549999999999998E-002     0.0000000000000000     
  -3.5500000000000004E-002     0.0000000000000000     
  -3.5450000000000002E-002     0.0000000000000000     
  -3.5400000000000001E-002     0.0000000000000000     
  -3.5349999999999999E-002     0.0000000000000000     
  -3.5299999999999998E-002     0.0000000000000000     
  -3.5250000000000004E-002     0.0000000000000000     
  -3.5200000000000002E-002     0.0000000000000000     
  -3.5150000000000001E-002     0.0000000000000000     
  -3.5099999999999999E-002     0.0000000000000000     
  -3.5049999999999998E-002     0.0000000000000000     
  -3.5000000000000003E-002     0.0000000000000000     
  -3.4950000000000002E-002     0.0000000000000000     
  -3.4900000000000000E-002     0.0000000000000000     
  -3.4849999999999999E-002     0.0000000000000000     
  -3.4799999999999998E-002     0.0000000000000000     
  -3.4750000000000003E-002     0.0000000000000000     
  -3.4700000000000002E-002     0.0000000000000000     
  -3.4650000000000000E-002     0.0000000000000000     
  -3.4599999999999999E-002     0.0000000000000000     
  -3.4549999999999997E-002     0.0000000000000000     
  -3.4500000000000003E-002     0.0000000000000000     
  -3.4450000000000001E-002     0.0000000000000000     
  -3.4400000000000000E-002     0.0000000000000000     
  -3.4349999999999999E-002     0.0000000000000000     
  -3.4299999999999997E-002     0.0000000000000000     
  -3.4250000000000003E-002     0.0000000000000000     
  -3.4200000000000001E-002     0.0000000000000000     
  -3.4150000000000000E-002     0.0000000000000000     
  -3.4099999999999998E-002     0.0000000000000000     
  -3.4049999999999997E-002     0.0000000000000000     
  -3.4000000000000002E-002     0.0000000000000000     
  -3.3950000000000001E-002     0.0000000000000000     
  -3.3900000000000000E-002     0.0000000000000000     
  -3.3849999999999998E-002     0.0000000000000000     
  -3.3799999999999997E-002     0.0000000000000000     
  -3.3750000000000002E-002     0.0000000000000000     
  -3.3700000000000001E-002     0.0000000000000000     
  -3.3649999999999999E-002     0.0000000000000000     
  -3.3599999999999998E-002     0.0000000000000000     
  -3.3550000000000003E-002     0.0000000000000000     
  -3.3500000000000002E-002     0.0000000000000000     
  -3.3450000000000001E-002     0.0000000000000000     
  -3.3399999999999999E-002     0.0000000000000000     
  -3.3349999999999998E-002     0.0000000000000000     
  -3.3300000000000003E-002     0.0000000000000000     
  -3.3250000000000002E-002     0.0000000000000000     
  -3.3200000000000000E-002     0.0000000000000000     
  -3.3149999999999999E-002     0.0000000000000000     
  -3.3099999999999997E-002     0.0000000000000000     
  -3.3050000000000003E-002     0.0000000000000000     
  -3.3000000000000002E-002     0.0000000000000000     
  -3.2950000000000000E-002     0.0000000000000000     
  -3.2899999999999999E-002     0.0000000000000000     
  -3.2850000000000004E-002     0.0000000000000000     
  -3.2800000000000003E-002     0.0000000000000000     
  -3.2750000000000001E-002     0.0000000000000000     
  -3.2700000000000000E-002     0.0000000000000000     
  -3.2649999999999998E-002     0.0000000000000000     
  -3.2600000000000004E-002     0.0000000000000000     
  -3.2550000000000003E-002     0.0000000000000000     
  -3.2500000000000001E-002     0.0000000000000000     
  -3.2450000000000000E-002     0.0000000000000000     
  -3.2399999999999998E-002     0.0000000000000000     
  -3.2350000000000004E-002     0.0000000000000000     
  -3.2300000000000002E-002     0.0000000000000000     
  -3.2250000000000001E-002     0.0000000000000000     
  -3.2199999999999999E-002     0.0000000000000000     
  -3.2149999999999998E-002     0.0000000000000000     
  -3.2100000000000004E-002     0.0000000000000000     
  -3.2050000000000002E-002     0.0000000000000000     
  -3.2000000000000001E-002     0.0000000000000000     
  -3.1949999999999999E-002     0.0000000000000000     
  -3.1899999999999998E-002     0.0000000000000000     
  -3.1850000000000003E-002     0.0000000000000000     
  -3.1800000000000002E-002     0.0000000000000000     
  -3.1750000000000000E-002     0.0000000000000000     
  -3.1699999999999999E-002     0.0000000000000000     
  -3.1649999999999998E-002     0.0000000000000000     
  -3.1600000000000003E-002     0.0000000000000000     
  -3.1550000000000002E-002     0.0000000000000000     
  -3.1500000000000000E-002     0.0000000000000000     
  -3.1449999999999999E-002     0.0000000000000000     
  -3.1399999999999997E-002     0.0000000000000000     
  -3.1350000000000003E-002     0.0000000000000000     
  -3.1300000000000001E-002     0.0000000000000000     
  -3.1250000000000000E-002     0.0000000000000000     
  -3.1199999999999999E-002     0.0000000000000000     
  -3.1150000000000001E-002     0.0000000000000000     
  -3.1100000000000003E-002     0.0000000000000000     
  -3.1050000000000001E-002     0.0000000000000000     
  -3.1000000000000000E-002     0.0000000000000000     
  -3.0949999999999998E-002     0.0000000000000000     
  -3.0900000000000000E-002     0.0000000000000000     
  -3.0850000000000002E-002     0.0000000000000000     
  -3.0800000000000001E-002     0.0000000000000000     
  -3.0750000000000000E-002     0.0000000000000000     
  -3.0699999999999998E-002     0.0000000000000000     
  -3.0650000000000000E-002     0.0000000000000000     
  -3.0600000000000002E-002     0.0000000000000000     
  -3.0550000000000001E-002     0.0000000000000000     
  -3.0499999999999999E-002     0.0000000000000000     
  -3.0449999999999998E-002     0.0000000000000000     
  -3.0400000000000000E-002     0.0000000000000000     
  -3.0350000000000002E-002     0.0000000000000000     
  -3.0300000000000001E-002     0.0000000000000000     
  -3.0249999999999999E-002     0.0000000000000000     
  -3.0200000000000001E-002     0.0000000000000000     
  -3.0150000000000000E-002     0.0000000000000000     
  -3.0100000000000002E-002    -1.9866644639310189E-039
  -3.0050000000000000E-002    -4.4705310855010521E-039
  -2.9999999999999999E-002    -2.8279781295157761E-039
  -2.9950000000000001E-002     0.0000000000000000     
  -2.9899999999999999E-002     3.7711585888550930E-039
  -2.9850000000000002E-002     7.5677321134657952E-039
  -2.9800000000000000E-002     1.0311190834258766E-038
  -2.9749999999999999E-002     1.2018271816319951E-038
  -2.9700000000000001E-002     1.0710160572952375E-038
  -2.9650000000000003E-002    -2.8675654721662988E-040
  -2.9600000000000001E-002    -1.7775645156696119E-038
  -2.9550000000000000E-002    -2.4372143793081311E-038
  -2.9499999999999998E-002    -1.3284047680180161E-038
  -2.9450000000000000E-002    -6.6614843671555840E-039
  -2.9400000000000003E-002    -3.5487956852918766E-038
  -2.9350000000000001E-002    -1.0126967332167071E-037
  -2.9300000000000000E-002    -1.7801055102718741E-037
  -2.9249999999999998E-002    -2.1682117835219722E-037
  -2.9200000000000000E-002    -1.8111015066034135E-037
  -2.9150000000000002E-002    -5.1120988030364034E-038
  -2.9100000000000001E-002     1.9396776782449670E-037
  -2.9049999999999999E-002     5.7173158671390691E-037
  -2.8999999999999998E-002     1.0738537051985066E-036
  -2.8950000000000000E-002     1.5508426541588488E-036
  -2.8900000000000002E-002     1.6798545872371447E-036
  -2.8850000000000001E-002     1.0616441489286904E-036
  -2.8799999999999999E-002    -5.9121373449486619E-037
  -2.8749999999999998E-002    -3.2013007441361413E-036
  -2.8700000000000000E-002    -6.1251655210210373E-036
  -2.8650000000000002E-002    -8.1677690713661388E-036
  -2.8600000000000000E-002    -7.8514748613387478E-036
  -2.8549999999999999E-002    -3.9426616968783035E-036
  -2.8500000000000001E-002     3.9002267187136607E-036
  -2.8450000000000000E-002     1.4513889531318487E-035
  -2.8400000000000002E-002     2.4959896904040784E-035
  -2.8350000000000000E-002     3.0861550733957678E-035
  -2.8299999999999999E-002     2.7520112014696308E-035
  -2.8250000000000001E-002     1.1717663815709440E-035
  -2.8200000000000003E-002    -1.6251173518020409E-035
  -2.8150000000000001E-002    -5.1106757761300792E-035
  -2.8100000000000000E-002    -8.2559292103531152E-035
  -2.8049999999999999E-002    -9.7340694565124565E-035
  -2.8000000000000001E-002    -8.3228778384328140E-035
  -2.7950000000000003E-002    -3.4119949152668108E-035
  -2.7900000000000001E-002     4.5557149081929326E-035
  -2.7850000000000000E-002     1.3905579416027749E-034
  -2.7799999999999998E-002     2.1962573645046028E-034
  -2.7750000000000000E-002     2.5714040673173002E-034
  -2.7700000000000002E-002     2.2756046915186043E-034
  -2.7650000000000001E-002     1.2224693694968216E-034
  -2.7600000000000000E-002    -4.6465512693420131E-035
  -2.7549999999999998E-002    -2.4618924343474094E-034
  -2.7500000000000000E-002    -4.3236178537303734E-034
  -2.7450000000000002E-002    -5.6048818386595319E-034
  -2.7400000000000001E-002    -5.9765825559113718E-034
  -2.7349999999999999E-002    -5.2781576605092128E-034
  -2.7299999999999998E-002    -3.4784228249752944E-034
  -2.7250000000000000E-002    -5.6781030205418095E-035
  -2.7200000000000002E-002     3.5352156754802650E-034
  -2.7150000000000001E-002     8.9472086802286387E-034
  -2.7099999999999999E-002     1.5561679639936801E-033
  -2.7049999999999998E-002     2.2580764640558257E-033
  -2.7000000000000000E-002     2.8006631521789359E-033
  -2.6950000000000002E-002     2.8420565228321665E-033
  -2.6900000000000000E-002     1.9444614477644496E-033
  -2.6849999999999999E-002    -2.8324370612894211E-034
  -2.6800000000000001E-002    -3.9519739888193189E-033
  -2.6749999999999999E-002    -8.6248430904956970E-033
  -2.6700000000000002E-002    -1.3125591627190334E-032
  -2.6650000000000000E-002    -1.5563286401193629E-032
  -2.6599999999999999E-002    -1.3693971120108782E-032
  -2.6550000000000001E-002    -5.6541333001697013E-033
  -2.6500000000000003E-002     9.0460246782139431E-033
  -2.6450000000000001E-002     2.8553921151532625E-032
  -2.6400000000000000E-002     4.8149676335375920E-032
  -2.6349999999999998E-002     6.0605660728283214E-032
  -2.6300000000000000E-002     5.7718660769495093E-032
  -2.6250000000000002E-002     3.2962121498135147E-032
  -2.6200000000000001E-002    -1.5264731562016466E-032
  -2.6150000000000000E-002    -8.0778713069587482E-032
  -2.6099999999999998E-002    -1.4840355347961785E-031
  -2.6050000000000000E-002    -1.9555912746105259E-031
  -2.6000000000000002E-002    -1.9720526804175112E-031
  -2.5950000000000001E-002    -1.3366363482828356E-031
  -2.5899999999999999E-002     3.9884427794221435E-034
  -2.5849999999999998E-002     1.8859358478183810E-031
  -2.5800000000000000E-002     3.9021846737338272E-031
  -2.5750000000000002E-002     5.4502523196125375E-031
  -2.5700000000000001E-002     5.8619991233438767E-031
  -2.5649999999999999E-002     4.5984917651806942E-031
  -2.5599999999999998E-002     1.4654544914887121E-031
  -2.5550000000000000E-002    -3.2151086225741291E-031
  -2.5500000000000002E-002    -8.5450776436437201E-031
  -2.5450000000000000E-002    -1.3151783686907539E-030
  -2.5399999999999999E-002    -1.5461383276334010E-030
  -2.5349999999999998E-002    -1.4103026767958702E-030
  -2.5300000000000000E-002    -8.3537498950116626E-031
  -2.5250000000000002E-002     1.4958570392319611E-031
  -2.5200000000000000E-002     1.3973178835864116E-030
  -2.5149999999999999E-002     2.6532554619918307E-030
  -2.5100000000000001E-002     3.5956863761447958E-030
  -2.5049999999999999E-002     3.8992785258396479E-030
  -2.5000000000000001E-002     3.3100590514077490E-030
  -2.4950000000000000E-002     1.7171238231152168E-030
  -2.4899999999999999E-002    -7.9267517184459047E-031
  -2.4850000000000001E-002    -3.9071052079970478E-030
  -2.4800000000000003E-002    -7.0938342066176917E-030
  -2.4750000000000001E-002    -9.6420608377483702E-030
  -2.4700000000000000E-002    -1.0744322230743601E-029
  -2.4649999999999998E-002    -9.6238146777814884E-030
  -2.4600000000000000E-002    -5.7109619719201942E-030
  -2.4550000000000002E-002     1.1369742969201409E-030
  -2.4500000000000001E-002     1.0401165020642757E-029
  -2.4450000000000000E-002     2.0710894934414329E-029
  -2.4399999999999998E-002     2.9789036413474092E-029
  -2.4350000000000000E-002     3.4640193370372030E-029
  -2.4299999999999999E-002     3.2067732315177010E-029
  -2.4250000000000001E-002     1.9534882991094569E-029
  -2.4199999999999999E-002    -3.7357509747417757E-030
  -2.4150000000000001E-002    -3.5677992415765434E-029
  -2.4100000000000000E-002    -7.0695836690873970E-029
  -2.4049999999999998E-002    -9.9806570098446204E-029
  -2.4000000000000000E-002    -1.1195560365350237E-028
  -2.3949999999999999E-002    -9.6589256977144939E-029
  -2.3900000000000001E-002    -4.7171111000880528E-029
  -2.3850000000000000E-002     3.5131305467214169E-029
  -2.3800000000000002E-002     1.3873684763689748E-028
  -2.3750000000000000E-002     2.4118923447627292E-028
  -2.3699999999999999E-002     3.1194978830568540E-028
  -2.3650000000000001E-002     3.1874941458027277E-028
  -2.3599999999999999E-002     2.3675365054524547E-028
  -2.3550000000000001E-002     5.8632936611330633E-029
  -2.3500000000000000E-002    -1.9729321753627184E-028
  -2.3449999999999999E-002    -4.8397389163478430E-028
  -2.3400000000000001E-002    -7.3014292724550349E-028
  -2.3349999999999999E-002    -8.5339692274877513E-028
  -2.3300000000000001E-002    -7.8047871778587889E-028
  -2.3250000000000000E-002    -4.7086826185064197E-028
  -2.3199999999999998E-002     6.2255779865640239E-029
  -2.3150000000000000E-002     7.4040160860952687E-028
  -2.3099999999999999E-002     1.4232206819069770E-027
  -2.3050000000000001E-002     1.9298740397201697E-027
  -2.3000000000000000E-002     2.0768154777956755E-027
  -2.2950000000000002E-002     1.7256592552415353E-027
  -2.2900000000000000E-002     8.3073233454071099E-028
  -2.2849999999999999E-002    -5.2615404129648827E-028
  -2.2800000000000001E-002    -2.1253350715194435E-027
  -2.2749999999999999E-002    -3.6309816635239149E-027
  -2.2700000000000001E-002    -4.6460204655610100E-027
  -2.2650000000000000E-002    -4.7937217305967160E-027
  -2.2599999999999999E-002    -3.8121043459110657E-027
  -2.2550000000000001E-002    -1.6421591161105453E-027
  -2.2499999999999999E-002     1.5108183461526511E-027
  -2.2450000000000001E-002     5.1612470664279546E-027
  -2.2400000000000000E-002     8.5850726766217109E-027
  -2.2349999999999998E-002     1.0922719519284534E-026
  -2.2300000000000000E-002     1.1335678828464078E-026
  -2.2249999999999999E-002     9.1976826310355361E-027
  -2.2200000000000001E-002     4.2905984265092054E-027
  -2.2150000000000000E-002    -3.0335382307709776E-027
  -2.2100000000000002E-002    -1.1767645655455210E-026
  -2.2050000000000000E-002    -2.0283553085173074E-026
  -2.1999999999999999E-002    -2.6515823171581960E-026
  -2.1950000000000001E-002    -2.8304668017975726E-026
  -2.1899999999999999E-002    -2.3873783421980920E-026
  -2.1850000000000001E-002    -1.2377132022468937E-026
  -2.1800000000000000E-002     5.5942843896299379E-027
  -2.1749999999999999E-002     2.7686881008675710E-026
  -2.1700000000000001E-002     4.9788500758496264E-026
  -2.1649999999999999E-002     6.6479031023382542E-026
  -2.1600000000000001E-002     7.1968189891940335E-026
  -2.1550000000000000E-002     6.1443135727777692E-026
  -2.1499999999999998E-002     3.2608844859052368E-026
  -2.1450000000000000E-002    -1.2924986122252719E-026
  -2.1399999999999999E-002    -6.8832526653323604E-026
  -2.1350000000000001E-002    -1.2423988421155104E-025
  -2.1299999999999999E-002    -1.6513815670795891E-025
  -2.1250000000000002E-002    -1.7704877372577274E-025
  -2.1200000000000000E-002    -1.4860854052633928E-025
  -2.1149999999999999E-002    -7.5390763844375375E-026
  -2.1100000000000001E-002     3.6983785435454057E-026
  -2.1049999999999999E-002     1.7146928057178793E-025
  -2.1000000000000001E-002     3.0079075029271846E-025
  -2.0950000000000000E-002     3.9159389457253668E-025
  -2.0899999999999998E-002     4.1124479139372918E-025
  -2.0850000000000000E-002     3.3620312108119649E-025
  -2.0799999999999999E-002     1.6021406959595950E-025
  -2.0750000000000001E-002    -9.9810075893568526E-026
  -2.0700000000000000E-002    -4.0225479315497215E-025
  -2.0649999999999998E-002    -6.8501037323627920E-025
  -2.0600000000000000E-002    -8.7568212504474159E-025
  -2.0549999999999999E-002    -9.0662685939103884E-025
  -2.0500000000000001E-002    -7.3220740006991019E-025
  -2.0449999999999999E-002    -3.4458311050111589E-025
  -2.0400000000000001E-002     2.1602252536661141E-025
  -2.0350000000000000E-002     8.6011302728160605E-025
  -2.0299999999999999E-002     1.4588562547745323E-024
  -2.0250000000000001E-002     1.8650749426908530E-024
  -2.0199999999999999E-002     1.9426794119157627E-024
  -2.0150000000000001E-002     1.5995777132503705E-024
  -2.0100000000000000E-002     8.1747807777810104E-025
  -2.0049999999999998E-002    -3.2848945671884794E-025
  -2.0000000000000000E-002    -1.6664662399257074E-024
  -1.9949999999999999E-002    -2.9446882376917376E-024
  -1.9900000000000001E-002    -3.8687817616009856E-024
  -1.9850000000000000E-002    -4.1557973343287230E-024
  -1.9799999999999998E-002    -3.5972067177974511E-024
  -1.9750000000000000E-002    -2.1197867458443199E-024
  -1.9699999999999999E-002     1.6847514856056119E-025
  -1.9650000000000001E-002     2.9601091604803512E-024
  -1.9599999999999999E-002     5.7674756134270997E-024
  -1.9550000000000001E-002     7.9844569409654584E-024
  -1.9500000000000000E-002     8.9878907514401678E-024
  -1.9449999999999999E-002     8.2673404021608843E-024
  -1.9400000000000001E-002     5.5629201471310179E-024
  -1.9349999999999999E-002     9.8375829152371108E-025
  -1.9300000000000001E-002    -4.9236378262158479E-024
  -1.9250000000000000E-002    -1.1185403487516308E-023
  -1.9199999999999998E-002    -1.6507496115991814E-023
  -1.9150000000000000E-002    -1.9482109372731460E-023
  -1.9099999999999999E-002    -1.8873326837432979E-023
  -1.9050000000000001E-002    -1.3938038407696960E-023
  -1.9000000000000000E-002    -4.7177849326060416E-024
  -1.8949999999999998E-002     7.7737166643135111E-024
  -1.8900000000000000E-002     2.1538236906976417E-023
  -1.8849999999999999E-002     3.3804065333843929E-023
  -1.8800000000000001E-002     4.1467943819396535E-023
  -1.8749999999999999E-002     4.1722336572810580E-023
  -1.8700000000000001E-002     3.2766606317823980E-023
  -1.8650000000000000E-002     1.4455757658488482E-023
  -1.8599999999999998E-002    -1.1280008988887981E-023
  -1.8550000000000001E-002    -4.0396559143610994E-023
  -1.8499999999999999E-002    -6.7173976046268180E-023
  -1.8450000000000001E-002    -8.5136879647988297E-023
  -1.8400000000000000E-002    -8.8349541938832330E-023
  -1.8349999999999998E-002    -7.2868243235641426E-023
  -1.8300000000000000E-002    -3.8050986499606292E-023
  -1.8249999999999999E-002     1.2603425826124967E-023
  -1.8200000000000001E-002     7.1371951731654059E-023
  -1.8149999999999999E-002     1.2714796268027089E-022
  -1.8100000000000002E-002     1.6719773475728413E-022
  -1.8050000000000000E-002     1.7961748547035953E-022
  -1.7999999999999999E-002     1.5608202448318878E-022
  -1.7950000000000001E-002     9.4338995414993460E-023
  -1.7899999999999999E-002    -1.3650397760316571E-025
  -1.7850000000000001E-002    -1.1383121221247602E-022
  -1.7800000000000000E-002    -2.2653028628297767E-022
  -1.7749999999999998E-002    -3.1430764880731658E-022
  -1.7700000000000000E-002    -3.5383451791402868E-022
  -1.7649999999999999E-002    -3.2734379718734673E-022
  -1.7600000000000001E-002    -2.2734723669481758E-022
  -1.7550000000000000E-002    -6.0104554394680035E-023
  -1.7499999999999998E-002     1.5307245118947004E-022
  -1.7450000000000000E-002     3.7732325958316239E-022
  -1.7399999999999999E-002     5.6874850247225328E-022
  -1.7350000000000001E-002     6.8157856627288847E-022
  -1.7299999999999999E-002     6.7707125902652673E-022
  -1.7250000000000001E-002     5.3270876940044092E-022
  -1.7200000000000000E-002     2.4993713705052900E-022
  -1.7149999999999999E-002    -1.4136341548037729E-022
  -1.7100000000000001E-002    -5.8321351619240795E-022
  -1.7049999999999999E-002    -9.9558350422789072E-022
  -1.7000000000000001E-002    -1.2881276153696635E-021
  -1.6950000000000000E-002    -1.3764407247336059E-021
  -1.6899999999999998E-002    -1.2005160085836760E-021
  -1.6850000000000000E-002    -7.4211778334018309E-022
  -1.6799999999999999E-002    -3.7277405598325796E-023
  -1.6750000000000001E-002     8.1973099619515772E-022
  -1.6700000000000000E-002     1.6836300527061686E-021
  -1.6649999999999998E-002     2.3775427357114029E-021
  -1.6600000000000000E-002     2.7231522812129868E-021
  -1.6549999999999999E-002     2.5775962372796751E-021
  -1.6500000000000001E-002     1.8707366746486821E-021
  -1.6449999999999999E-002     6.3495444555625251E-022
  -1.6400000000000001E-002    -9.8049362339204118E-022
  -1.6350000000000000E-002    -2.7168928917552731E-021
  -1.6299999999999999E-002    -4.2382281160115677E-021
  -1.6250000000000001E-002    -5.1862856873215742E-021
  -1.6199999999999999E-002    -5.2515437291738397E-021
  -1.6150000000000001E-002    -4.2478148639222413E-021
  -1.6100000000000000E-002    -2.1753833884301143E-021
  -1.6049999999999998E-002     7.4310136865696689E-022
  -1.6000000000000000E-002     4.0668482974809195E-021
  -1.5949999999999999E-002     7.1878939426062178E-021
  -1.5900000000000001E-002     9.4266487468740799E-021
  -1.5850000000000000E-002     1.0159883572543687E-020
  -1.5799999999999998E-002     8.9600328468999511E-021
  -1.5750000000000000E-002     5.7185670300298588E-021
  -1.5699999999999999E-002     7.2495968217477066E-022
  -1.5650000000000001E-002    -5.3226806261104601E-021
  -1.5599999999999999E-002    -1.1388946464587145E-020
  -1.5550000000000001E-002    -1.6253353297511731E-020
  -1.5500000000000000E-002    -1.8725597370108274E-020
  -1.5449999999999998E-002    -1.7890406248715368E-020
  -1.5400000000000000E-002    -1.3337407167925254E-020
  -1.5349999999999999E-002    -5.3276685488989422E-021
  -1.5300000000000001E-002     5.1461511217424279E-021
  -1.5250000000000000E-002     1.6434624674973128E-020
  -1.5199999999999998E-002     2.6447768147469812E-020
  -1.5150000000000000E-002     3.2992618100826685E-020
  -1.5099999999999999E-002     3.4185632888092919E-020
  -1.5050000000000001E-002     2.8872058262281212E-020
  -1.4999999999999999E-002     1.6972640048579249E-020
  -1.4949999999999998E-002    -3.2059159355919115E-022
  -1.4900000000000000E-002    -2.0561353600737567E-020
  -1.4849999999999999E-002    -4.0310696103361614E-020
  -1.4800000000000001E-002    -5.5633893184923246E-020
  -1.4749999999999999E-002    -6.2777380357188265E-020
  -1.4700000000000001E-002    -5.8927075822313311E-020
  -1.4650000000000000E-002    -4.2916912906847727E-020
  -1.4599999999999998E-002    -1.5742721438699106E-020
  -1.4550000000000000E-002     1.9251984482724732E-020
  -1.4499999999999999E-002     5.6613039707173034E-020
  -1.4450000000000001E-002     8.9465792484382455E-020
  -1.4400000000000000E-002     1.1060626497086212E-019
  -1.4349999999999998E-002     1.1385291204180353E-019
  -1.4300000000000000E-002     9.5440673262286093E-020
  -1.4249999999999999E-002     5.5190101612158643E-020
  -1.4200000000000001E-002    -2.8216277534470884E-021
  -1.4149999999999999E-002    -7.0312562953228328E-020
  -1.4099999999999998E-002    -1.3569164484605596E-019
  -1.4050000000000000E-002    -1.8577176232265327E-019
  -1.3999999999999999E-002    -2.0810331791182289E-019
  -1.3950000000000001E-002    -1.9356967446434745E-019
  -1.3899999999999999E-002    -1.3876777111372465E-019
  -1.3850000000000001E-002    -4.7657284244487927E-020
  -1.3800000000000000E-002     6.7980671997632018E-020
  -1.3749999999999998E-002     1.8956968418420875E-019
  -1.3700000000000000E-002     2.9429154753364315E-019
  -1.3649999999999999E-002     3.5890602646429353E-019
  -1.3600000000000001E-002     3.6427510380290214E-019
  -1.3550000000000000E-002     2.9979777929523726E-019
  -1.3499999999999998E-002     1.6685423983597564E-019
  -1.3450000000000000E-002    -1.9581877307555914E-020
  -1.3399999999999999E-002    -2.3176508543115480E-019
  -1.3350000000000001E-002    -4.3263690888364536E-019
  -1.3299999999999999E-002    -5.8163216423839398E-019
  -1.3249999999999998E-002    -6.4203501758262527E-019
  -1.3200000000000000E-002    -5.8866932544001154E-019
  -1.3149999999999998E-002    -4.1447283896012143E-019
  -1.3100000000000001E-002    -1.3452122349413045E-019
  -1.3049999999999999E-002     2.1363009556621093E-019
  -1.3000000000000001E-002     5.7386354722463769E-019
  -1.2950000000000000E-002     8.7951356516279001E-019
  -1.2899999999999998E-002     1.0645143758548326E-018
  -1.2850000000000000E-002     1.0759981238435163E-018
  -1.2799999999999999E-002     8.8616693243088172E-019