  -4.0000000000000001E-002     0.0000000000000000     
  -3.9949999999999999E-002     0.0000000000000000     
  -3.9899999999999998E-002     0.0000000000000000     
  -3.9850000000000003E-002     0.0000000000000000     
  -3.9800000000000002E-002     0.0000000000000000     
  -3.9750000000000001E-002     0.0000000000000000     
  -3.9699999999999999E-002     0.0000000000000000     
  -3.9649999999999998E-002     0.0000000000000000     
  -3.9600000000000003E-002     0.0000000000000000     
  -3.9550000000000002E-002     0.0000000000000000     
  -3.9500000000000000E-002     0.0000000000000000     
  -3.9449999999999999E-002     0.0000000000000000     
  -3.9399999999999998E-002     0.0000000000000000     
  -3.9350000000000003E-002     0.0000000000000000     
  -3.9300000000000002E-002     0.0000000000000000     
  -3.9250000000000000E-002     0.0000000000000000     
  -3.9199999999999999E-002     0.0000000000000000     
  -3.9150000000000004E-002     0.0000000000000000     
  -3.9100000000000003E-002     0.0000000000000000     
  -3.9050000000000001E-002     0.0000000000000000     
  -3.9000000000000000E-002     0.0000000000000000     
  -3.8949999999999999E-002     0.0000000000000000     
  -3.8900000000000004E-002     0.0000000000000000     
  -3.8850000000000003E-002     0.0000000000000000     
  -3.8800000000000001E-002     0.0000000000000000     
  -3.8750000000000000E-002     0.0000000000000000     
  -3.8699999999999998E-002     0.0000000000000000     
  -3.8650000000000004E-002     0.0000000000000000     
  -3.8600000000000002E-002     0.0000000000000000     
  -3.8550000000000001E-002     0.0000000000000000     
  -3.8500000000000000E-002     0.0000000000000000     
  -3.8449999999999998E-002     0.0000000000000000     
  -3.8400000000000004E-002     0.0000000000000000     
  -3.8350000000000002E-002     0.0000000000000000     
  -3.8300000000000001E-002     0.0000000000000000     
  -3.8249999999999999E-002     0.0000000000000000     
  -3.8199999999999998E-002     0.0000000000000000     
  -3.8150000000000003E-002     0.0000000000000000     
  -3.8100000000000002E-002     0.0000000000000000     
  -3.8050000000000000E-002     0.0000000000000000     
  -3.7999999999999999E-002     0.0000000000000000     
  -3.7949999999999998E-002     0.0000000000000000     
  -3.7900000000000003E-002     0.0000000000000000     
  -3.7850000000000002E-002     0.0000000000000000     
  -3.7800000000000000E-002     0.0000000000000000     
  -3.7749999999999999E-002     0.0000000000000000     
  -3.7699999999999997E-002     0.0000000000000000     
  -3.7650000000000003E-002     0.0000000000000000     
  -3.7600000000000001E-002     0.0000000000000000     
  -3.7550000000000000E-002     0.0000000000000000     
  -3.7499999999999999E-002     0.0000000000000000     
  -3.7449999999999997E-002     0.0000000000000000     
  -3.7400000000000003E-002     0.0000000000000000     
  -3.7350000000000001E-002     0.0000000000000000     
  -3.7300000000000000E-002     0.0000000000000000     
  -3.7249999999999998E-002     0.0000000000000000     
  -3.7200000000000004E-002     0.0000000000000000     
  -3.7150000000000002E-002     0.0000000000000000     
  -3.7100000000000001E-002     0.0000000000000000     
  -3.7050000000000000E-002     0.0000000000000000     
  -3.6999999999999998E-002     0.0000000000000000     
  -3.6950000000000004E-002     0.0000000000000000     
  -3.6900000000000002E-002     0.0000000000000000     
  -3.6850000000000001E-002    -1.6577921331352105E-040
  -3.6799999999999999E-002    -3.4023666697621897E-040
  -3.6749999999999998E-002    -3.6044703434501671E-040
  -3.6700000000000003E-002     2.3765952585806499E-040
  -3.6650000000000002E-002     1.7162161055293953E-039
  -3.6600000000000001E-002     4.0325477927277059E-039
  -3.6549999999999999E-002     6.1898681696720254E-039
  -3.6499999999999998E-002     6.2512127780296238E-039
  -3.6450000000000003E-002     5.1183561276143828E-040
  -3.6400000000000002E-002     4.2153605918484585E-038
  -3.6350000000000000E-002     1.1514744940251844E-037
  -3.6299999999999999E-002     1.8221800784727620E-037
  -3.6249999999999998E-002     1.7320131924024900E-037
  -3.6200000000000003E-002    -1.4676723925101065E-038
  -3.6150000000000002E-002    -4.8073241559925302E-037
  -3.6100000000000000E-002    -1.2598718532064073E-036
  -3.6049999999999999E-002    -2.2181899590436869E-036
  -3.6000000000000004E-002    -2.9283731867468927E-036
  -3.5950000000000003E-002    -2.5820470640646512E-036
  -3.5900000000000001E-002    -4.4702670806879905E-038
  -3.5850000000000000E-002     5.7945411017262877E-036
  -3.5799999999999998E-002     1.5257218429151439E-035
  -3.5750000000000004E-002     2.6712670110080874E-035
  -3.5700000000000003E-002     3.5328105567383925E-035
  -3.5650000000000001E-002     3.2449491734500503E-035
  -3.5600000000000000E-002     6.7104148533544187E-036
  -3.5549999999999998E-002    -5.1961620071031884E-035
  -3.5500000000000004E-002    -1.4487384374730188E-034
  -3.5450000000000002E-002    -2.5464291847260683E-034
  -3.5400000000000001E-002    -3.3635403819262150E-034
  -3.5349999999999999E-002    -3.1615465186194550E-034
  -3.5299999999999998E-002    -1.0524427598353300E-034
  -3.5250000000000004E-002     3.6449316153815427E-034
  -3.5200000000000002E-002     1.0839966796411403E-033
  -3.5150000000000001E-002     1.9032776429807498E-033
  -3.5099999999999999E-002     2.4899302639649909E-033
  -3.5049999999999998E-002     2.3515489686795120E-033
  -3.5000000000000003E-002     9.6170317517876349E-034
  -3.4950000000000002E-002    -1.9971792891956689E-033
  -3.4900000000000000E-002    -6.3149308542586278E-033
  -3.4849999999999999E-002    -1.0971690738465205E-032
  -3.4799999999999998E-002    -1.4067176471500030E-032
  -3.4750000000000003E-002    -1.3143415772896086E-032
  -3.4700000000000002E-002    -5.9958326916384791E-033
  -3.4650000000000000E-002     8.1298942980851976E-033
  -3.4599999999999999E-002     2.7326210824884557E-032
  -3.4549999999999997E-002     4.6401532862733967E-032
  -3.4500000000000003E-002     5.7496459129898522E-032
  -3.4450000000000001E-002     5.2304394832240322E-032
  -3.4400000000000000E-002     2.5618137125667553E-032
  -3.4349999999999999E-002    -2.0925720904617150E-032
  -3.4299999999999997E-002    -7.6724335957760932E-032
  -3.4250000000000003E-002    -1.2358194364626201E-031
  -3.4200000000000001E-002    -1.4149660959918700E-031
  -3.4150000000000000E-002    -1.1782031468555047E-031
  -3.4099999999999998E-002    -5.6383617919003650E-032
  -3.4049999999999997E-002     1.8470021193439356E-032
  -3.4000000000000002E-002     6.7633481099617004E-032
  -3.3950000000000001E-002     5.4320290409236955E-032
  -3.3900000000000000E-002    -3.1449397007871497E-032
  -3.3849999999999998E-002    -1.5078435148516936E-031
  -3.3799999999999997E-002    -2.0940624170315551E-031
  -3.3750000000000002E-002    -7.7749892554003913E-032
  -3.3700000000000001E-002     3.5959327326075487E-031
  -3.3649999999999999E-002     1.1348856598006627E-030
  -3.3599999999999998E-002     2.1303279546050693E-030
  -3.3550000000000003E-002     3.0403269661037659E-030
  -3.3500000000000002E-002     3.3859707831366908E-030
  -3.3450000000000001E-002     2.5927445726857727E-030
  -3.3399999999999999E-002     1.2898588700364729E-031
  -3.3349999999999998E-002    -4.3053717811923673E-030
  -3.3300000000000003E-002    -1.0551299403751767E-029
  -3.3250000000000002E-002    -1.7739322957002511E-029
  -3.3200000000000000E-002    -2.4052915765141123E-029
  -3.3149999999999999E-002    -2.6603767059207845E-029
  -3.3099999999999997E-002    -2.1601879482659617E-029
  -3.3050000000000003E-002    -5.0703436545190663E-030
  -3.3000000000000002E-002     2.5679942867436427E-029
  -3.2950000000000000E-002     6.9823125374644386E-029
  -3.2899999999999999E-002     1.2048862101391929E-028
  -3.2850000000000004E-002     1.6294931112228846E-028
  -3.2800000000000003E-002     1.7500421197948130E-028
  -3.2750000000000001E-002     1.3102281454070203E-028
  -3.2700000000000000E-002     1.0328058151068706E-029
  -3.2649999999999998E-002    -1.9105327645425881E-028
  -3.2600000000000004E-002    -4.4841150755456717E-028
  -3.2550000000000003E-002    -7.0117733513876306E-028
  -3.2500000000000001E-002    -8.5614457667712911E-028
  -3.2450000000000000E-002    -8.0504443242853686E-028
  -3.2399999999999998E-002    -4.5636302505387359E-028
  -3.2350000000000004E-002     2.2434050692812784E-028
  -3.2300000000000002E-002     1.1767265593147672E-027
  -3.2250000000000001E-002     2.2245350162882715E-027
  -3.2199999999999999E-002     3.0835603498796803E-027
  -3.2149999999999998E-002     3.4053615396353044E-027
  -3.2100000000000004E-002     2.8543985491051682E-027
  -3.2050000000000002E-002     1.2072055489454076E-027
  -3.2000000000000001E-002    -1.5444092898041723E-027
  -3.1949999999999999E-002    -5.1071801032444747E-027
  -3.1899999999999998E-002    -8.8390196088105158E-027
  -3.1850000000000003E-002    -1.1763231776067743E-026
  -3.1800000000000002E-002    -1.2669314320311664E-026
  -3.1750000000000000E-002    -1.0325658520405718E-026
  -3.1699999999999999E-002    -3.8191487398153547E-027
  -3.1649999999999998E-002     6.9955169719112997E-027
  -3.1600000000000003E-002     2.1013954316344213E-026
  -3.1550000000000002E-002     3.5524220488269990E-026
  -3.1500000000000000E-002     4.6198595013054131E-026
  -3.1449999999999999E-002     4.7671862181789187E-026
  -3.1399999999999997E-002     3.4846967447346376E-026
  -3.1350000000000003E-002     4.8422919668561282E-027
  -3.1300000000000001E-002    -4.0831742381887855E-026
  -3.1250000000000000E-002    -9.4605648221550392E-026
  -3.1199999999999999E-002    -1.4260612111754958E-025
  -3.1150000000000001E-002    -1.6661136631454870E-025
  -3.1100000000000003E-002    -1.4845757731491767E-025
  -3.1050000000000001E-002    -7.6289063220706283E-026
  -3.1000000000000000E-002     4.8910731239025489E-026
  -3.0949999999999998E-002     2.0875731322425247E-025
  -3.0900000000000000E-002     3.6716393044379343E-025
  -3.0850000000000002E-002     4.7577061084881916E-025
  -3.0800000000000001E-002     4.8496513849562581E-025
  -3.0750000000000000E-002     3.5840079243837061E-025
  -3.0699999999999998E-002     8.7284022588319220E-026
  -3.0650000000000000E-002    -2.9991001312985988E-025
  -3.0600000000000002E-002    -7.3585628569404232E-025
  -3.0550000000000001E-002    -1.1224652714917172E-024
  -3.0499999999999999E-002    -1.3475829001874349E-024
  -3.0449999999999998E-002    -1.3071142603029184E-024
  -3.0400000000000000E-002    -9.2851057221632233E-025
  -3.0350000000000002E-002    -1.9216000251496391E-025
  -3.0300000000000001E-002     8.5138316323402356E-025
  -3.0249999999999999E-002     2.0695207021458454E-024
  -3.0200000000000001E-002     3.2431692581580930E-024
  -3.0150000000000000E-002     4.0747898772108140E-024
  -3.0100000000000002E-002     4.2175275950173998E-024
  -3.0050000000000000E-002     3.3353792583257545E-024
  -2.9999999999999999E-002     1.1996616487576881E-024
  -2.9950000000000001E-002    -2.1857024484676042E-024
  -2.9899999999999999E-002    -6.4571854403971416E-024
  -2.9850000000000002E-002    -1.0810670065070609E-023
  -2.9800000000000000E-002    -1.4025979678139383E-023
  -2.9749999999999999E-002    -1.4648531197828553E-023
  -2.9700000000000001E-002    -1.1345268392144227E-023
  -2.9650000000000003E-002    -3.3927530000924483E-024
  -2.9600000000000001E-002     8.8152363918518239E-024
  -2.9550000000000000E-002     2.3411135755392213E-023
  -2.9499999999999998E-002     3.7035739375238084E-023
  -2.9450000000000000E-002     4.5300962183136858E-023
  -2.9400000000000003E-002     4.3760951602157840E-023
  -2.9350000000000001E-002     2.9255818807213299E-023
  -2.9300000000000000E-002     1.3223037025724532E-024
  -2.9249999999999998E-002    -3.6753139329902521E-023
  -2.9200000000000000E-002    -7.7675943220552323E-023
  -2.9150000000000002E-002    -1.1099226023141118E-022
  -2.9100000000000001E-002    -1.2510291352733080E-022
  -2.9049999999999999E-002    -1.1016822555060531E-022
  -2.8999999999999998E-002    -6.1306882298703783E-023
  -2.8950000000000000E-002     1.8723606503999783E-023
  -2.8900000000000002E-002     1.1820566250678486E-022
  -2.8850000000000001E-002     2.1714667069839264E-022
  -2.8799999999999999E-002     2.9022631640961969E-022
  -2.8749999999999998E-002     3.1175311980971154E-022
  -2.8700000000000000E-002     2.6185861774423668E-022
  -2.8650000000000002E-002     1.3274839001236538E-022
  -2.8600000000000000E-002    -6.6385092906200278E-023
  -2.8549999999999999E-002    -3.0715208902292220E-022
  -2.8500000000000001E-002    -5.4353635898861236E-022
  -2.8450000000000000E-002    -7.1780444183786537E-022
  -2.8400000000000002E-002    -7.7058890802824643E-022
  -2.8350000000000000E-002    -6.5410971362646530E-022
  -2.8299999999999999E-002    -3.4655665969501337E-022
  -2.8250000000000001E-002     1.3520845674155451E-022
  -2.8200000000000003E-002     7.2804811155511313E-022
  -2.8150000000000001E-002     1.3234703091459913E-021
  -2.8100000000000000E-002     1.7796690774406158E-021
  -2.8049999999999999E-002     1.9454446260909699E-021
  -2.8000000000000001E-002     1.6940081061275467E-021
  -2.7950000000000003E-002     9.6141626464849837E-022
  -2.7900000000000001E-002    -2.1862913290280213E-022
  -2.7850000000000000E-002    -1.6936570356104527E-021
  -2.7799999999999998E-002    -3.1946221383125751E-021
  -2.7750000000000000E-002    -4.3678825310304886E-021
  -2.7700000000000002E-002    -4.8375357694830204E-021
  -2.7650000000000001E-002    -4.2909495017652044E-021
  -2.7600000000000000E-002    -2.5723961191004967E-021
  -2.7549999999999998E-002     2.3633064922244872E-022
  -2.7500000000000000E-002     3.7715204896906047E-021
  -2.7450000000000002E-002     7.3993382548429985E-021
  -2.7400000000000001E-002     1.0294871629015516E-020
  -2.7349999999999999E-002     1.1586091945826062E-020
  -2.7299999999999998E-002     1.0544690918999882E-020
  -2.7250000000000000E-002     6.7910489082002564E-021
  -2.7200000000000002E-002     4.7015119856891151E-022
  -2.7150000000000001E-002    -7.6479202574155850E-021
  -2.7099999999999999E-002    -1.6183279684043304E-020
  -2.7049999999999998E-002    -2.3302036302196384E-020
  -2.7000000000000000E-002    -2.7013008722134584E-020
  -2.6950000000000002E-002    -2.5575679946453637E-020
  -2.6900000000000000E-002    -1.7958183292154581E-020
  -2.6849999999999999E-002    -4.2569422215534871E-021
  -2.6800000000000001E-002     1.4026033242309944E-020
  -2.6749999999999999E-002     3.3949791918198736E-020
  -2.6700000000000002E-002     5.1420381143217074E-020
  -2.6650000000000000E-002     6.1819672916501333E-020
  -2.6599999999999999E-002     6.0927202552639436E-020
  -2.6550000000000001E-002     4.6000685071326362E-020
  -2.6500000000000003E-002     1.6803671772901791E-020
  -2.6450000000000001E-002    -2.3679583549208368E-020
  -2.6400000000000000E-002    -6.9098841991021874E-020
  -2.6349999999999998E-002    -1.1035013384563546E-019
  -2.6300000000000000E-002    -1.3699722495279234E-019
  -2.6250000000000002E-002    -1.3936785712191385E-019
  -2.6200000000000001E-002    -1.1098898137984071E-019
  -2.6150000000000000E-002    -5.0859126863102217E-020
  -2.6099999999999998E-002     3.5024342067274517E-020
  -2.6050000000000000E-002     1.3341819681339277E-019
  -2.6000000000000002E-002     2.2521143878404346E-019
  -2.5950000000000001E-002     2.8845857743299721E-019
  -2.5899999999999999E-002     3.0271207130732417E-019
  -2.5849999999999998E-002     2.5392435532787915E-019
  -2.5800000000000000E-002     1.3891798698159684E-019
  -2.5750000000000002E-002    -3.1662750342314899E-020
  -2.5700000000000001E-002    -2.3285869768662435E-019
  -2.5649999999999999E-002    -4.2792077520830698E-019
  -2.5599999999999998E-002    -5.7385237794358384E-019
  -2.5550000000000000E-002    -6.2932517696546512E-019
  -2.5500000000000002E-002    -5.6372473447904959E-019
  -2.5450000000000000E-002    -3.6564888342688868E-019
  -2.5399999999999999E-002    -4.9025154211290058E-020
  -2.5349999999999998E-002     3.4481137879556411E-019
  -2.5300000000000000E-002     7.5021883796346246E-019
  -2.5250000000000002E-002     1.0858530779939782E-018
  -2.5200000000000000E-002     1.2680961771860274E-018
  -2.5149999999999999E-002     1.2275799270938912E-018
  -2.5100000000000001E-002     9.2614475393689214E-019
  -2.5049999999999999E-002     3.7097162083999606E-019
  -2.5000000000000001E-002    -3.7750015550140681E-019
  -2.4950000000000000E-002    -1.2067517628331646E-018
  -2.4899999999999999E-002    -1.9641610347407221E-018
  -2.4850000000000001E-002    -2.4796869319124444E-018
  -2.4800000000000003E-002    -2.5969669434975434E-018
  -2.4750000000000001E-002    -2.2082866072940877E-018
  -2.4700000000000000E-002    -1.2870384363816127E-018
  -2.4649999999999998E-002     8.9630968179955348E-020
  -2.4600000000000000E-002     1.7348607374005080E-018
  -2.4550000000000002E-002     3.3676578977561952E-018
  -2.4500000000000001E-002     4.6513614509494856E-018
  -2.4450000000000000E-002     5.2517316459603568E-018
  -2.4399999999999998E-002     4.9065344594438999E-018
  -2.4350000000000000E-002     3.4943472369457884E-018
  -2.4299999999999999E-002     1.0879886259859726E-018
  -2.4250000000000001E-002    -2.0216933750772230E-018
  -2.4199999999999999E-002    -5.3424739697150130E-018
  -2.4150000000000001E-002    -8.2422291160786701E-018
  -2.4100000000000000E-002    -1.0051085777698229E-017
  -2.4049999999999998E-002    -1.0190870298393421E-017
  -2.4000000000000000E-002    -8.3103478692361061E-018
  -2.3949999999999999E-002    -4.3996413393911921E-018
  -2.3900000000000001E-002     1.1433710027832239E-018
  -2.3850000000000000E-002     7.5170049960180566E-018
  -2.3800000000000002E-002     1.3602131141517706E-017
  -2.3750000000000000E-002     1.8128504300746701E-017
  -2.3699999999999999E-002     1.9902037403019832E-017
  -2.3650000000000001E-002     1.8058275672553620E-017
  -2.3599999999999999E-002     1.2295780165422282E-017
  -2.3550000000000001E-002     3.0388323177806354E-018
  -2.3500000000000000E-002    -8.5159919946231742E-018
  -2.3449999999999999E-002    -2.0499616137387713E-017
  -2.3400000000000001E-002    -3.0622688294425877E-017
  -2.3349999999999999E-002    -3.6556617207840435E-017
  -2.3300000000000001E-002    -3.6389458708431101E-017
  -2.3250000000000000E-002    -2.9078142174040404E-017
  -2.3199999999999998E-002    -1.4805512178542646E-017
  -2.3150000000000000E-002     4.8456821509804090E-018
  -2.3099999999999999E-002     2.6967535689915854E-017
  -2.3050000000000001E-002     4.7676816721823327E-017
  -2.3000000000000000E-002     6.2715068139783906E-017
  -2.2950000000000002E-002     6.8219960704882037E-017
  -2.2900000000000000E-002     6.1542323859442111E-017
  -2.2849999999999999E-002     4.1955092003748254E-017
  -2.2800000000000001E-002     1.1098738440169884E-017
  -2.2749999999999999E-002    -2.6962925638176989E-017
  -2.2700000000000001E-002    -6.6144951636757323E-017
  -2.2650000000000000E-002    -9.9190667466530092E-017
  -2.2599999999999999E-002    -1.1887051234405978E-016
  -2.2550000000000001E-002    -1.1935262431822374E-016
  -2.2499999999999999E-002    -9.7511556894126385E-017
  -2.2450000000000001E-002    -5.3922016425624920E-017
  -2.2400000000000000E-002     6.6913154869890861E-018
  -2.2349999999999998E-002     7.5707115536571210E-017
  -2.2300000000000000E-002     1.4161700145753473E-016
  -2.2249999999999999E-002     1.9171472422355133E-016
  -2.2200000000000001E-002     2.1425561939937603E-016
  -2.2150000000000000E-002     2.0076290940776987E-016
  -2.2100000000000002E-002     1.4808486381416481E-016
  -2.2050000000000000E-002     5.9792556468972850E-017
  -2.1999999999999999E-002    -5.3435667740566723E-017
  -2.1950000000000001E-002    -1.7466939377614724E-016
  -2.1899999999999999E-002    -2.8285925293851808E-016
  -2.1850000000000001E-002    -3.5606063812536903E-016
  -2.1800000000000000E-002    -3.7533100750115291E-016
  -2.1749999999999999E-002    -3.2869204390206591E-016
  -2.1700000000000001E-002    -2.1443467932215254E-016
  -2.1649999999999999E-002    -4.3048519806791090E-017
  -2.1600000000000001E-002     1.6280569936789114E-016
  -2.1550000000000000E-002     3.7059010800366846E-016
  -2.1499999999999998E-002     5.4238354896633100E-016
  -2.1450000000000000E-002     6.4108103823376229E-016
  -2.1399999999999999E-002     6.3740339044462138E-016
  -2.1350000000000001E-002     5.1652409621084431E-016
  -2.1299999999999999E-002     2.8300812406518230E-016
  -2.1250000000000002E-002    -3.7124217081434069E-017
  -2.1200000000000000E-002    -3.9802747020859123E-016
  -2.1149999999999999E-002    -7.3959813609309198E-016
  -2.1100000000000001E-002    -9.9650980896444763E-016
  -2.1049999999999999E-002    -1.1095262569405020E-015
  -2.1000000000000001E-002    -1.0373010884553710E-015
  -2.0950000000000000E-002    -7.6653249706536840E-016
  -2.0899999999999998E-002    -3.1835253540376004E-016
  -2.0850000000000000E-002     2.5075500331477959E-016
  -2.0799999999999999E-002     8.5442477034214812E-016
  -2.0750000000000001E-002     1.3881181546597090E-015
  -2.0700000000000000E-002     1.7457430226252095E-015
  -2.0649999999999998E-002     1.8387760841388575E-015
  -2.0600000000000000E-002     1.6146986047300532E-015
  -2.0549999999999999E-002     1.0712799193422741E-015
  -2.0500000000000001E-002     2.6355589865811697E-016
  -2.0449999999999999E-002    -6.9870063469140282E-016
  -2.0400000000000001E-002    -1.6637549835884556E-015
  -2.0350000000000000E-002    -2.4598842946761632E-015
  -2.0299999999999999E-002    -2.9236929211354764E-015
  -2.0250000000000001E-002    -2.9304142087592435E-015
  -2.0199999999999999E-002    -2.4209620135653502E-015
  -2.0150000000000001E-002    -1.4204782175098407E-015
  -2.0100000000000000E-002    -4.4046835613031081E-017
  -2.0049999999999998E-002     1.5129208736936292E-015
  -2.0000000000000000E-002     2.9996577361885853E-015
  -1.9949999999999999E-002     4.1476561423851012E-015
  -1.9900000000000001E-002     4.7156784264866877E-015
  -1.9850000000000000E-002     4.5350516766122809E-015
  -1.9799999999999998E-002     3.5473572811181218E-015
  -1.9750000000000000E-002     1.8271457619146748E-015
  -1.9699999999999999E-002    -4.1583838463187714E-016
  -1.9650000000000001E-002    -2.8574658033002834E-015
  -1.9599999999999999E-002    -5.1019257621726456E-015
  -1.9550000000000001E-002    -6.7413554820227036E-015
  -1.9500000000000000E-002    -7.4240818066739496E-015
  -1.9449999999999999E-002    -6.9208712118942055E-015
  -1.9400000000000001E-002    -5.1778456697727445E-015
  -1.9349999999999999E-002    -2.3457295417957378E-015
  -1.9300000000000001E-002     1.2220900018957267E-015
  -1.9250000000000000E-002     5.0058708852816037E-015
  -1.9199999999999998E-002     8.3880717691615145E-015
  -1.9150000000000000E-002     1.0746447088672920E-014
  -1.9099999999999999E-002     1.1558986960475938E-014
  -1.9050000000000001E-002     1.0504491640986381E-014
  -1.9000000000000000E-002     7.5412635125327783E-015
  -1.8949999999999998E-002     2.9478620207769603E-015
  -1.8900000000000000E-002    -2.6857716406630076E-015
  -1.8849999999999999E-002    -8.5215948059447970E-015
  -1.8800000000000001E-002    -1.3587174862231502E-014
  -1.8749999999999999E-002    -1.6926611964510323E-014
  -1.8700000000000001E-002    -1.7767212338479338E-014
  -1.8650000000000000E-002    -1.5674865007964314E-014
  -1.8599999999999998E-002    -1.0669505546164479E-014
  -1.8550000000000001E-002    -3.2754234578989085E-015
  -1.8499999999999999E-002     5.5104759246330088E-015
  -1.8450000000000001E-002     1.4336853010484236E-014
  -1.8400000000000000E-002     2.1692023897738448E-014
  -1.8349999999999998E-002     2.6148587678455599E-014
  -1.8300000000000000E-002     2.6621124436599893E-014
  -1.8249999999999999E-002     2.2592840609632558E-014
  -1.8200000000000001E-002     1.4267621943321462E-014
  -1.8149999999999999E-002     2.6124365452411226E-015
  -1.8100000000000002E-002    -1.0729067550498077E-014
  -1.8050000000000000E-002    -2.3650034183121424E-014
  -1.7999999999999999E-002    -3.3896436417260160E-014
  -1.7950000000000001E-002    -3.9440527627657003E-014
  -1.7899999999999999E-002    -3.8852107013688680E-014
  -1.7850000000000001E-002    -3.1602749136306849E-014
  -1.7800000000000000E-002    -1.8243974443676443E-014
  -1.7749999999999998E-002    -4.1712818340609635E-016
  -1.7700000000000000E-002     1.9321762308568728E-014
  -1.7649999999999999E-002     3.7848218319020749E-014
  -1.7600000000000001E-002     5.1942177825814713E-014
  -1.7550000000000000E-002     5.8817889987065998E-014
  -1.7499999999999998E-002     5.6626177894896175E-014
  -1.7450000000000000E-002     4.4842683431415702E-014
  -1.7399999999999999E-002     2.4468847235613622E-014
  -1.7350000000000001E-002    -2.0018075868737357E-015
  -1.7299999999999999E-002    -3.0863647200118828E-014
  -1.7250000000000001E-002    -5.7697107326338598E-014
  -1.7200000000000000E-002    -7.8019713403199455E-014
  -1.7149999999999999E-002    -8.7995674619653056E-014
  -1.7100000000000001E-002    -8.5094864600547351E-014
  -1.7049999999999999E-002    -6.8593408661215682E-014
  -1.7000000000000001E-002    -3.9826731053452067E-014
  -1.6950000000000000E-002    -2.1393560935761755E-015
  -1.6899999999999998E-002     3.9480545866519783E-014
  -1.6850000000000000E-002     7.9046303566281394E-014
  -1.6799999999999999E-002     1.1041713396250272E-013
  -1.6750000000000001E-002     1.2822603228684771E-013
  -1.6700000000000000E-002     1.2875527678635070E-013
  -1.6649999999999998E-002     1.1062206439021193E-013
  -1.6600000000000000E-002     7.5155599466333290E-014
  -1.6549999999999999E-002     2.6383987433657806E-014
  -1.6500000000000001E-002    -2.9397449133294008E-014
  -1.6449999999999999E-002    -8.4443725301744619E-014
  -1.6400000000000001E-002    -1.3066761596929964E-013
  -1.6350000000000000E-002    -1.6088642628104538E-013
  -1.6299999999999999E-002    -1.7002031813259335E-013
  -1.6250000000000001E-002    -1.5604227266839905E-013
  -1.6199999999999999E-002    -1.2049924468411250E-013
  -1.6150000000000001E-002    -6.8475550997119082E-014
  -1.6100000000000000E-002    -7.9497758596074844E-015
  -1.6049999999999998E-002     5.1404776283277684E-014
  -1.6000000000000000E-002     9.9822552018516843E-014
  -1.5949999999999999E-002     1.2920822944299109E-013
  -1.5900000000000001E-002     1.3475892918136650E-013
  -1.5850000000000000E-002     1.1613533008748820E-013
  -1.5799999999999998E-002     7.7916532639726591E-014
  -1.5750000000000000E-002     2.9173238951457950E-014
  -1.5699999999999999E-002    -1.7863271395216054E-014
  -1.5650000000000001E-002    -4.9895147893901304E-014
  -1.5599999999999999E-002    -5.5117425875768915E-014
  -1.5550000000000001E-002    -2.5826352675214147E-014
  -1.5500000000000000E-002     3.9394578134088910E-014
  -1.5449999999999998E-002     1.3435676413324789E-013
  -1.5400000000000000E-002     2.4515370203379169E-013
  -1.5349999999999999E-002     3.5141189197436997E-013
  -1.5300000000000001E-002     4.2884193706756203E-013
  -1.5250000000000000E-002     4.5279867394508814E-013
  -1.5199999999999998E-002     4.0236620002193514E-013
  -1.5150000000000000E-002     2.6435951208404692E-013
  -1.5099999999999999E-002     3.6605460000699611E-014
  -1.5050000000000001E-002    -2.7005947695587624E-013
  -1.4999999999999999E-002    -6.3147125635262578E-013
  -1.4949999999999998E-002    -1.0116619884456481E-012
  -1.4900000000000000E-002    -1.3661239474632597E-012
  -1.4849999999999999E-002    -1.6464617416309915E-012
  -1.4800000000000001E-002    -1.8058830649523402E-012
  -1.4749999999999999E-002    -1.8048580252737919E-012
  -1.4700000000000001E-002    -1.6162636480272864E-012
  -1.4650000000000000E-002    -1.2293950611516715E-012
  -1.4599999999999998E-002    -6.5238868887150530E-013
  -1.4550000000000000E-002     8.7198817655242612E-014
  -1.4499999999999999E-002     9.4368271833353095E-013
  -1.4450000000000001E-002     1.8562290323138032E-012
  -1.4400000000000000E-002     2.7531626541891280E-012
  -1.4349999999999998E-002     3.5571329038774837E-012
  -1.4300000000000000E-002     4.1906160204940926E-012
  -1.4249999999999999E-002     4.5812544900582469E-012
  -1.4200000000000001E-002     4.6666124392675192E-012
  -1.4149999999999999E-002     4.3980512622748426E-012
  -1.4099999999999998E-002     3.7435935276614542E-012
  -1.4050000000000000E-002     2.6898030123323641E-012
  -1.3999999999999999E-002     1.2428797024015172E-012
  -1.3950000000000001E-002    -5.7069620394458747E-013
  -1.3899999999999999E-002    -2.7035688109645331E-012
  -1.3850000000000001E-002    -5.0865422450734887E-012
  -1.3800000000000000E-002    -7.6269171189370799E-012
  -1.3749999999999998E-002    -1.0205980054523157E-011
  -1.3700000000000000E-002    -1.2675757578781624E-011
  -1.3649999999999999E-002    -1.4855452499837297E-011
  -1.3600000000000001E-002    -1.6528290158592442E-011
  -1.3550000000000000E-002    -1.7439761778168075E-011
  -1.3499999999999998E-002    -1.7298349494830998E-011
  -1.3450000000000000E-002    -1.5779737054776388E-011
  -1.3399999999999999E-002    -1.2535233535624912E-011
  -1.3350000000000001E-002    -7.2046391241197798E-012
  -1.3299999999999999E-002     5.6691703423856465E-013
  -1.3249999999999998E-002     1.1109306029902218E-011
  -1.3200000000000000E-002     2.4706706775625233E-011
  -1.3149999999999998E-002     4.1578127221931904E-011
  -1.3100000000000001E-002     6.1861534968531808E-011
  -1.3049999999999999E-002     8.5603742502914848E-011
  -1.3000000000000001E-002     1.1275755662380200E-010
  -1.2950000000000000E-002     1.4318684865442173E-010
  -1.2899999999999998E-002     1.7667911588258769E-010
  -1.2850000000000000E-002     2.1296400362651427E-010
  -1.2799999999999999E-002     2.5173568465501813E-010