  -4.0000000000000001E-002     0.0000000000000000     
  -3.9949999999999999E-002     0.0000000000000000     
  -3.9899999999999998E-002     0.0000000000000000     
  -3.9850000000000003E-002     0.0000000000000000     
  -3.9800000000000002E-002     0.0000000000000000     
  -3.9750000000000001E-002     0.0000000000000000     
  -3.9699999999999999E-002     0.0000000000000000     
  -3.9649999999999998E-002     0.0000000000000000     
  -3.9600000000000003E-002     0.0000000000000000     
  -3.9550000000000002E-002     0.0000000000000000     
  -3.9500000000000000E-002     0.0000000000000000     
  -3.9449999999999999E-002     0.0000000000000000     
  -3.9399999999999998E-002     0.0000000000000000     
  -3.9350000000000003E-002     0.0000000000000000     
  -3.9300000000000002E-002     0.0000000000000000     
  -3.9250000000000000E-002     0.0000000000000000     
  -3.9199999999999999E-002     0.0000000000000000     
  -3.9150000000000004E-002     0.0000000000000000     
  -3.9100000000000003E-002     0.0000000000000000     
  -3.9050000000000001E-002     0.0000000000000000     
  -3.9000000000000000E-002     0.0000000000000000     
  -3.8949999999999999E-002     0.0000000000000000     
  -3.8900000000000004E-002     0.0000000000000000     
  -3.8850000000000003E-002     0.0000000000000000     
  -3.8800000000000001E-002     0.0000000000000000     
  -3.8750000000000000E-002     0.0000000000000000     
  -3.8699999999999998E-002     0.0000000000000000     
  -3.8650000000000004E-002     0.0000000000000000     
  -3.8600000000000002E-002     0.0000000000000000     
  -3.8550000000000001E-002     0.0000000000000000     
  -3.8500000000000000E-002     0.0000000000000000     
  -3.8449999999999998E-002     0.0000000000000000     
  -3.8400000000000004E-002     0.0000000000000000     
  -3.8350000000000002E-002     0.0000000000000000     
  -3.8300000000000001E-002     0.0000000000000000     
  -3.8249999999999999E-002     0.0000000000000000     
  -3.8199999999999998E-002     0.0000000000000000     
  -3.8150000000000003E-002     0.0000000000000000     
  -3.8100000000000002E-002     0.0000000000000000     
  -3.8050000000000000E-002     0.0000000000000000     
  -3.7999999999999999E-002     0.0000000000000000     
  -3.7949999999999998E-002     0.0000000000000000     
  -3.7900000000000003E-002     0.0000000000000000     
  -3.7850000000000002E-002     0.0000000000000000     
  -3.7800000000000000E-002     0.0000000000000000     
  -3.7749999999999999E-002     0.0000000000000000     
  -3.7699999999999997E-002     0.0000000000000000     
  -3.7650000000000003E-002     0.0000000000000000     
  -3.7600000000000001E-002     0.0000000000000000     
  -3.7550000000000000E-002     0.0000000000000000     
  -3.7499999999999999E-002     0.0000000000000000     
  -3.7449999999999997E-002     0.0000000000000000     
  -3.7400000000000003E-002     0.0000000000000000     
  -3.7350000000000001E-002     0.0000000000000000     
  -3.7300000000000000E-002     0.0000000000000000     
  -3.7249999999999998E-002     0.0000000000000000     
  -3.7200000000000004E-002     0.0000000000000000     
  -3.7150000000000002E-002     0.0000000000000000     
  -3.7100000000000001E-002     0.0000000000000000     
  -3.7050000000000000E-002     0.0000000000000000     
  -3.6999999999999998E-002     0.0000000000000000     
  -3.6950000000000004E-002     0.0000000000000000     
  -3.6900000000000002E-002     0.0000000000000000     
  -3.6850000000000001E-002     0.0000000000000000     
  -3.6799999999999999E-002     0.0000000000000000     
  -3.6749999999999998E-002     0.0000000000000000     
  -3.6700000000000003E-002     0.0000000000000000     
  -3.6650000000000002E-002     0.0000000000000000     
  -3.6600000000000001E-002     0.0000000000000000     
  -3.6549999999999999E-002     0.0000000000000000     
  -3.6499999999999998E-002     0.0000000000000000     
  -3.6450000000000003E-002     0.0000000000000000     
  -3.6400000000000002E-002     0.0000000000000000     
  -3.6350000000000000E-002     0.0000000000000000     
  -3.6299999999999999E-002     0.0000000000000000     
  -3.6249999999999998E-002     0.0000000000000000     
  -3.6200000000000003E-002     0.0000000000000000     
  -3.6150000000000002E-002     0.0000000000000000     
  -3.6100000000000000E-002     0.0000000000000000     
  -3.6049999999999999E-002     0.0000000000000000     
  -3.6000000000000004E-002     0.0000000000000000     
  -3.5950000000000003E-002     0.0000000000000000     
  -3.5900000000000001E-002     0.0000000000000000     
  -3.5850000000000000E-002     0.0000000000000000     
  -3.5799999999999998E-002     0.0000000000000000     
  -3.5750000000000004E-002     0.0000000000000000     
  -3.5700000000000003E-002     0.0000000000000000     
  -3.5650000000000001E-002     0.0000000000000000     
  -3.5600000000000000E-002     0.0000000000000000     
  -3.5549999999999998E-002     0.0000000000000000     
  -3.5500000000000004E-002     0.0000000000000000     
  -3.5450000000000002E-002     0.0000000000000000     
  -3.5400000000000001E-002     0.0000000000000000     
  -3.5349999999999999E-002     0.0000000000000000     
  -3.5299999999999998E-002     0.0000000000000000     
  -3.5250000000000004E-002     0.0000000000000000     
  -3.5200000000000002E-002     0.0000000000000000     
  -3.5150000000000001E-002     0.0000000000000000     
  -3.5099999999999999E-002     0.0000000000000000     
  -3.5049999999999998E-002     0.0000000000000000     
  -3.5000000000000003E-002     0.0000000000000000     
  -3.4950000000000002E-002     0.0000000000000000     
  -3.4900000000000000E-002     0.0000000000000000     
  -3.4849999999999999E-002     0.0000000000000000     
  -3.4799999999999998E-002     0.0000000000000000     
  -3.4750000000000003E-002     0.0000000000000000     
  -3.4700000000000002E-002     0.0000000000000000     
  -3.4650000000000000E-002     0.0000000000000000     
  -3.4599999999999999E-002     0.0000000000000000     
  -3.4549999999999997E-002     0.0000000000000000     
  -3.4500000000000003E-002     0.0000000000000000     
  -3.4450000000000001E-002     0.0000000000000000     
  -3.4400000000000000E-002     0.0000000000000000     
  -3.4349999999999999E-002     0.0000000000000000     
  -3.4299999999999997E-002     0.0000000000000000     
  -3.4250000000000003E-002     0.0000000000000000     
  -3.4200000000000001E-002     0.0000000000000000     
  -3.4150000000000000E-002     0.0000000000000000     
  -3.4099999999999998E-002     0.0000000000000000     
  -3.4049999999999997E-002     0.0000000000000000     
  -3.4000000000000002E-002     0.0000000000000000     
  -3.3950000000000001E-002     0.0000000000000000     
  -3.3900000000000000E-002     0.0000000000000000     
  -3.3849999999999998E-002     0.0000000000000000     
  -3.3799999999999997E-002     0.0000000000000000     
  -3.3750000000000002E-002     0.0000000000000000     
  -3.3700000000000001E-002     0.0000000000000000     
  -3.3649999999999999E-002     0.0000000000000000     
  -3.3599999999999998E-002     0.0000000000000000     
  -3.3550000000000003E-002     0.0000000000000000     
  -3.3500000000000002E-002     0.0000000000000000     
  -3.3450000000000001E-002     0.0000000000000000     
  -3.3399999999999999E-002     0.0000000000000000     
  -3.3349999999999998E-002     0.0000000000000000     
  -3.3300000000000003E-002     0.0000000000000000     
  -3.3250000000000002E-002     0.0000000000000000     
  -3.3200000000000000E-002     0.0000000000000000     
  -3.3149999999999999E-002     0.0000000000000000     
  -3.3099999999999997E-002     0.0000000000000000     
  -3.3050000000000003E-002     0.0000000000000000     
  -3.3000000000000002E-002     0.0000000000000000     
  -3.2950000000000000E-002     0.0000000000000000     
  -3.2899999999999999E-002     0.0000000000000000     
  -3.2850000000000004E-002     0.0000000000000000     
  -3.2800000000000003E-002     0.0000000000000000     
  -3.2750000000000001E-002     0.0000000000000000     
  -3.2700000000000000E-002     0.0000000000000000     
  -3.2649999999999998E-002     0.0000000000000000     
  -3.2600000000000004E-002     0.0000000000000000     
  -3.2550000000000003E-002     0.0000000000000000     
  -3.2500000000000001E-002     0.0000000000000000     
  -3.2450000000000000E-002     0.0000000000000000     
  -3.2399999999999998E-002     0.0000000000000000     
  -3.2350000000000004E-002     0.0000000000000000     
  -3.2300000000000002E-002     0.0000000000000000     
  -3.2250000000000001E-002     0.0000000000000000     
  -3.2199999999999999E-002     0.0000000000000000     
  -3.2149999999999998E-002     0.0000000000000000     
  -3.2100000000000004E-002     0.0000000000000000     
  -3.2050000000000002E-002     0.0000000000000000     
  -3.2000000000000001E-002     0.0000000000000000     
  -3.1949999999999999E-002     0.0000000000000000     
  -3.1899999999999998E-002     0.0000000000000000     
  -3.1850000000000003E-002     0.0000000000000000     
  -3.1800000000000002E-002     0.0000000000000000     
  -3.1750000000000000E-002     0.0000000000000000     
  -3.1699999999999999E-002     0.0000000000000000     
  -3.1649999999999998E-002     0.0000000000000000     
  -3.1600000000000003E-002     0.0000000000000000     
  -3.1550000000000002E-002     0.0000000000000000     
  -3.1500000000000000E-002     0.0000000000000000     
  -3.1449999999999999E-002     0.0000000000000000     
  -3.1399999999999997E-002     0.0000000000000000     
  -3.1350000000000003E-002     0.0000000000000000     
  -3.1300000000000001E-002     0.0000000000000000     
  -3.1250000000000000E-002     0.0000000000000000     
  -3.1199999999999999E-002     0.0000000000000000     
  -3.1150000000000001E-002     0.0000000000000000     
  -3.1100000000000003E-002     0.0000000000000000     
  -3.1050000000000001E-002     0.0000000000000000     
  -3.1000000000000000E-002     0.0000000000000000     
  -3.0949999999999998E-002     0.0000000000000000     
  -3.0900000000000000E-002     0.0000000000000000     
  -3.0850000000000002E-002     0.0000000000000000     
  -3.0800000000000001E-002     0.0000000000000000     
  -3.0750000000000000E-002     0.0000000000000000     
  -3.0699999999999998E-002     0.0000000000000000     
  -3.0650000000000000E-002     0.0000000000000000     
  -3.0600000000000002E-002     0.0000000000000000     
  -3.0550000000000001E-002     0.0000000000000000     
  -3.0499999999999999E-002     0.0000000000000000     
  -3.0449999999999998E-002     0.0000000000000000     
  -3.0400000000000000E-002     0.0000000000000000     
  -3.0350000000000002E-002     0.0000000000000000     
  -3.0300000000000001E-002     0.0000000000000000     
  -3.0249999999999999E-002     0.0000000000000000     
  -3.0200000000000001E-002     0.0000000000000000     
  -3.0150000000000000E-002     0.0000000000000000     
  -3.0100000000000002E-002     0.0000000000000000     
  -3.0050000000000000E-002     0.0000000000000000     
  -2.9999999999999999E-002     0.0000000000000000     
  -2.9950000000000001E-002     0.0000000000000000     
  -2.9899999999999999E-002     0.0000000000000000     
  -2.9850000000000002E-002     0.0000000000000000     
  -2.9800000000000000E-002     0.0000000000000000     
  -2.9749999999999999E-002     0.0000000000000000     
  -2.9700000000000001E-002     0.0000000000000000     
  -2.9650000000000003E-002     0.0000000000000000     
  -2.9600000000000001E-002     0.0000000000000000     
  -2.9550000000000000E-002     0.0000000000000000     
  -2.9499999999999998E-002     0.0000000000000000     
  -2.9450000000000000E-002     0.0000000000000000     
  -2.9400000000000003E-002     0.0000000000000000     
  -2.9350000000000001E-002     0.0000000000000000     
  -2.9300000000000000E-002     0.0000000000000000     
  -2.9249999999999998E-002     0.0000000000000000     
  -2.9200000000000000E-002     0.0000000000000000     
  -2.9150000000000002E-002     0.0000000000000000     
  -2.9100000000000001E-002     0.0000000000000000     
  -2.9049999999999999E-002     0.0000000000000000     
  -2.8999999999999998E-002     0.0000000000000000     
  -2.8950000000000000E-002     0.0000000000000000     
  -2.8900000000000002E-002     0.0000000000000000     
  -2.8850000000000001E-002     0.0000000000000000     
  -2.8799999999999999E-002     0.0000000000000000     
  -2.8749999999999998E-002     0.0000000000000000     
  -2.8700000000000000E-002     0.0000000000000000     
  -2.8650000000000002E-002     0.0000000000000000     
  -2.8600000000000000E-002     0.0000000000000000     
  -2.8549999999999999E-002     0.0000000000000000     
  -2.8500000000000001E-002     0.0000000000000000     
  -2.8450000000000000E-002     0.0000000000000000     
  -2.8400000000000002E-002     0.0000000000000000     
  -2.8350000000000000E-002     0.0000000000000000     
  -2.8299999999999999E-002     0.0000000000000000     
  -2.8250000000000001E-002     0.0000000000000000     
  -2.8200000000000003E-002     0.0000000000000000     
  -2.8150000000000001E-002     0.0000000000000000     
  -2.8100000000000000E-002     0.0000000000000000     
  -2.8049999999999999E-002     0.0000000000000000     
  -2.8000000000000001E-002     0.0000000000000000     
  -2.7950000000000003E-002     0.0000000000000000     
  -2.7900000000000001E-002     0.0000000000000000     
  -2.7850000000000000E-002     0.0000000000000000     
  -2.7799999999999998E-002     0.0000000000000000     
  -2.7750000000000000E-002     0.0000000000000000     
  -2.7700000000000002E-002     0.0000000000000000     
  -2.7650000000000001E-002     0.0000000000000000     
  -2.7600000000000000E-002     0.0000000000000000     
  -2.7549999999999998E-002     0.0000000000000000     
  -2.7500000000000000E-002     0.0000000000000000     
  -2.7450000000000002E-002    -8.3277081264771644E-040
  -2.7400000000000001E-002    -1.8695578063361638E-039
  -2.7349999999999999E-002    -1.8695578063361638E-039
  -2.7299999999999998E-002     8.7549939310129596E-040
  -2.7250000000000000E-002     3.5499265285392362E-039
  -2.7200000000000002E-002     6.9785799173659229E-039
  -2.7150000000000001E-002     8.5342556906161535E-039
  -2.7099999999999999E-002     6.5934263855198962E-039
  -2.7049999999999998E-002     0.0000000000000000     
  -2.7000000000000000E-002    -2.1505740260659042E-038
  -2.6950000000000002E-002    -4.7098464578127639E-038
  -2.6900000000000000E-002    -6.6673508913872154E-038
  -2.6849999999999999E-002    -6.8846245669625773E-038
  -2.6800000000000001E-002    -5.2180974696232966E-038
  -2.6749999999999999E-002    -3.4295498818750957E-039
  -2.6700000000000002E-002     8.5487226984911679E-038
  -2.6650000000000000E-002     1.8997583684857760E-037
  -2.6599999999999999E-002     3.0758817635859409E-037
  -2.6550000000000001E-002     3.7716840459318667E-037
  -2.6500000000000003E-002     3.3768218835367320E-037
  -2.6450000000000001E-002     1.2961543844446040E-037
  -2.6400000000000000E-002    -2.5954221510837975E-037
  -2.6349999999999998E-002    -7.6176752112828767E-037
  -2.6300000000000000E-002    -1.2203144887488177E-036
  -2.6250000000000002E-002    -1.4034375018200175E-036
  -2.6200000000000001E-002    -1.0762613148563746E-036
  -2.6150000000000000E-002    -1.0988305410037757E-037
  -2.6099999999999998E-002     1.4106839193719698E-036
  -2.6050000000000000E-002     3.1057552240253530E-036
  -2.6000000000000002E-002     4.3568503532063016E-036
  -2.5950000000000001E-002     4.4346379911117939E-036
  -2.5899999999999999E-002     2.7818084263672011E-036
  -2.5849999999999998E-002    -6.8542937486490080E-037
  -2.5800000000000000E-002    -5.3527662549873338E-036
  -2.5750000000000002E-002    -9.8846939254782557E-036
  -2.5700000000000001E-002    -1.2492744675120170E-035
  -2.5649999999999999E-002    -1.1479646628182815E-035
  -2.5599999999999998E-002    -5.9392794980770733E-036
  -2.5550000000000000E-002     3.6223620965549188E-036
  -2.5500000000000002E-002     1.5028920742907136E-035
  -2.5450000000000000E-002     2.4763569917520626E-035
  -2.5399999999999999E-002     2.8933729470252913E-035
  -2.5349999999999998E-002     2.4662483352727659E-035
  -2.5300000000000000E-002     1.1440885309503095E-035
  -2.5250000000000002E-002    -8.1490286596973998E-036
  -2.5200000000000000E-002    -2.8822170496931797E-035
  -2.5149999999999999E-002    -4.4199074310162019E-035
  -2.5100000000000001E-002    -4.9197115488913450E-035
  -2.5049999999999999E-002    -4.2256583806073532E-035
  -2.5000000000000001E-002    -2.6255323559469527E-035
  -2.4950000000000000E-002    -7.2923006864062168E-036
  -2.4899999999999999E-002     8.5988591454523578E-036
  -2.4850000000000001E-002     1.9562119912246890E-035
  -2.4800000000000003E-002     3.0637380527265769E-035
  -2.4750000000000001E-002     5.2712438018277336E-035
  -2.4700000000000000E-002     9.6449928906347955E-035
  -2.4649999999999998E-002     1.6228349792249128E-034
  -2.4600000000000000E-002     2.3047542024664801E-034
  -2.4550000000000002E-002     2.5737725883470460E-034
  -2.4500000000000001E-002     1.8393317729457667E-034
  -2.4450000000000000E-002    -4.0930101004972470E-035
  -2.4399999999999998E-002    -4.2591681635726078E-034
  -2.4350000000000000E-002    -9.0374119319975856E-034
  -2.4299999999999999E-002    -1.3159381236817525E-033
  -2.4250000000000001E-002    -1.4338659295609493E-033
  -2.4199999999999999E-002    -1.0251708014499887E-033
  -2.4150000000000001E-002     4.2003084096331092E-035
  -2.4100000000000000E-002     1.6861090261845383E-033
  -2.4049999999999998E-002     3.5373938571045090E-033
  -2.4000000000000000E-002     4.9524488951977125E-033
  -2.3949999999999999E-002     5.1528790856562559E-033
  -2.3900000000000001E-002     3.4839892590642276E-033
  -2.3850000000000000E-002    -2.6386926625497488E-034
  -2.3800000000000002E-002    -5.5788326674501084E-033
  -2.3750000000000000E-002    -1.1127836938607076E-032
  -2.3699999999999999E-002    -1.4943889724951031E-032
  -2.3650000000000001E-002    -1.4934831804662725E-032
  -2.3599999999999999E-002    -9.6308030990463510E-033
  -2.3550000000000001E-002     1.0373958626247116E-033
  -2.3500000000000000E-002     1.5220534115629497E-032
  -2.3449999999999999E-002     2.9179739163942651E-032
  -2.3400000000000001E-002     3.8026599312260547E-032
  -2.3349999999999999E-002     3.7115303782931953E-032
  -2.3300000000000001E-002     2.3759440763890376E-032
  -2.3250000000000000E-002    -1.2710622568303191E-033
  -2.3199999999999998E-002    -3.3083106290137625E-032
  -2.3150000000000000E-002    -6.3280015945063885E-032
  -2.3099999999999999E-002    -8.1953888300049631E-032
  -2.3050000000000001E-002    -8.0643473972703076E-032
  -2.3000000000000000E-002    -5.5399650844856926E-032
  -2.2950000000000002E-002    -8.8838276912749483E-033
  -2.2900000000000000E-002     4.9417989737862920E-032
  -2.2849999999999999E-002     1.0523278821165936E-031
  -2.2800000000000001E-002     1.4335806996072849E-031
  -2.2749999999999999E-002     1.5214150397641991E-031
  -2.2700000000000001E-002     1.2698529630440171E-031
  -2.2650000000000000E-002     7.1493435467288119E-032
  -2.2599999999999999E-002    -4.2586939072853668E-033
  -2.2550000000000001E-002    -8.7602754796244379E-032
  -2.2499999999999999E-002    -1.6744253056870301E-031
  -2.2450000000000001E-002    -2.3641653317867327E-031
  -2.2400000000000000E-002    -2.8945563268326461E-031
  -2.2349999999999998E-002    -3.1892137720859180E-031
  -2.2300000000000000E-002    -3.0882611480242870E-031
  -2.2249999999999999E-002    -2.3244492579310926E-031
  -2.2200000000000001E-002    -5.7770560914784333E-032
  -2.2150000000000000E-002     2.3703147537454507E-031
  -2.2100000000000002E-002     6.4060193184117371E-031
  -2.2050000000000000E-002     1.0858078819596113E-030
  -2.1999999999999999E-002     1.4398469258737809E-030
  -2.1950000000000001E-002     1.5195484474084986E-030
  -2.1899999999999999E-002     1.1388436832515257E-030
  -2.1850000000000001E-002     1.8406739036716344E-031
  -2.1800000000000000E-002    -1.3016625619833361E-030
  -2.1749999999999999E-002    -3.0562547518420799E-030
  -2.1700000000000001E-002    -4.5943580695373025E-030
  -2.1649999999999999E-002    -5.2880950779417263E-030
  -2.1600000000000001E-002    -4.5368838013554630E-030
  -2.1550000000000000E-002    -1.9969274750172059E-030
  -2.1499999999999998E-002     2.1932844705773447E-030
  -2.1450000000000000E-002     7.2769115506587180E-030
  -2.1399999999999999E-002     1.1914237769105090E-029
  -2.1350000000000001E-002     1.4436358199836115E-029
  -2.1299999999999999E-002     1.3299444888336339E-029
  -2.1250000000000002E-002     7.6440696375948524E-030
  -2.1200000000000000E-002    -2.2026213596320709E-030
  -2.1149999999999999E-002    -1.4471793235570448E-029
  -2.1100000000000001E-002    -2.6102601172712316E-029
  -2.1049999999999999E-002    -3.3357799392935502E-029
  -2.1000000000000001E-002    -3.2823266250956986E-029
  -2.0950000000000000E-002    -2.2559215060073965E-029
  -2.0899999999999998E-002    -3.0644345901915812E-030
  -2.0850000000000000E-002     2.2299860313068830E-029
  -2.0799999999999999E-002     4.7678479904676875E-029
  -2.0750000000000001E-002     6.5927757478139429E-029
  -2.0700000000000000E-002     7.0441245314454368E-029
  -2.0649999999999998E-002     5.7142168415838594E-029
  -2.0600000000000000E-002     2.6063648626789737E-029
  -2.0549999999999999E-002    -1.8015977723569323E-029
  -2.0500000000000001E-002    -6.6188260466300763E-029
  -2.0449999999999999E-002    -1.0723100265732119E-028
  -2.0400000000000001E-002    -1.3020294098382630E-028
  -2.0350000000000000E-002    -1.2712979484088303E-028
  -2.0299999999999999E-002    -9.5044648556649394E-029
  -2.0250000000000001E-002    -3.6844082489474784E-029
  -2.0199999999999999E-002     3.9189943679361309E-029
  -2.0150000000000001E-002     1.2091666426992499E-028
  -2.0100000000000000E-002     1.9432002539869768E-028
  -2.0049999999999998E-002     2.4532699593429429E-028
  -2.0000000000000000E-002     2.6111934974940110E-028
  -1.9949999999999999E-002     2.3108253841589703E-028
  -1.9900000000000001E-002     1.4798828226726421E-028
  -1.9850000000000000E-002     1.0144717024610165E-029
  -1.9799999999999998E-002    -1.7513627372732023E-028
  -1.9750000000000000E-002    -3.8731564956441064E-028
  -1.9699999999999999E-002    -5.8937655081880834E-028
  -1.9650000000000001E-002    -7.2818675993893768E-028
  -1.9599999999999999E-002    -7.4117096789561039E-028
  -1.9550000000000001E-002    -5.7073631870980969E-028
  -1.9500000000000000E-002    -1.8529704658080140E-028
  -1.9449999999999999E-002     3.9765713821222899E-028
  -1.9400000000000001E-002     1.0941079064507952E-027
  -1.9349999999999999E-002     1.7507271847101887E-027
  -1.9300000000000001E-002     2.1642677355333168E-027
  -1.9250000000000000E-002     2.1255971554204404E-027
  -1.9199999999999998E-002     1.4829721568990176E-027
  -1.9150000000000000E-002     2.1036832447432915E-028
  -1.9099999999999999E-002    -1.5401073673753594E-027
  -1.9050000000000001E-002    -3.4244057947259520E-027
  -1.9000000000000000E-002    -4.9484496769488468E-027
  -1.8949999999999998E-002    -5.5697911206304684E-027
  -1.8900000000000000E-002    -4.8447662346980528E-027
  -1.8849999999999999E-002    -2.5881508838692358E-027
  -1.8800000000000001E-002     1.0006385016526319E-027
  -1.8749999999999999E-002     5.2922853651116746E-027
  -1.8700000000000001E-002     9.2973949698347796E-027
  -1.8650000000000000E-002     1.1858296941143068E-026
  -1.8599999999999998E-002     1.1934167624778549E-026
  -1.8550000000000001E-002     8.9165261025379737E-027
  -1.8499999999999999E-002     2.8902116010869518E-027
  -1.8450000000000001E-002    -5.2454311713356073E-027
  -1.8400000000000000E-002    -1.3855234635507961E-026
  -1.8349999999999998E-002    -2.0859653950338453E-026
  -1.8300000000000000E-002    -2.4193562816035332E-026
  -1.8249999999999999E-002    -2.2333700856742133E-026
  -1.8200000000000001E-002    -1.4764528129749514E-026
  -1.8149999999999999E-002    -2.2540975428944955E-027
  -1.8100000000000002E-002     1.3150282700320435E-026
  -1.8050000000000000E-002     2.8430942452722714E-026
  -1.7999999999999999E-002     4.0161593559255278E-026
  -1.7950000000000001E-002     4.5205964351566125E-026
  -1.7899999999999999E-002     4.1403691327079066E-026
  -1.7850000000000001E-002     2.8100126553964417E-026
  -1.7800000000000000E-002     6.4187402349039176E-027
  -1.7749999999999998E-002    -2.0763397895092320E-026
  -1.7700000000000000E-002    -4.9117992466351976E-026
  -1.7649999999999999E-002    -7.3390723114656650E-026
  -1.7600000000000001E-002    -8.8089081879932036E-026
  -1.7550000000000000E-002    -8.8290142336841895E-026
  -1.7499999999999998E-002    -7.0541977496936461E-026
  -1.7450000000000000E-002    -3.3821293446522718E-026
  -1.7399999999999999E-002     1.9548524335327605E-026
  -1.7350000000000001E-002     8.3214261045097963E-026
  -1.7299999999999999E-002     1.4664659563996740E-025
  -1.7250000000000001E-002     1.9588532937456563E-025
  -1.7200000000000000E-002     2.1546429681518470E-025
  -1.7149999999999999E-002     1.9157365490913793E-025
  -1.7100000000000001E-002     1.1613156384394887E-025
  -1.7049999999999999E-002    -9.0289596041704838E-027
  -1.7000000000000001E-002    -1.6905474677862370E-025
  -1.6950000000000000E-002    -3.3540946949562788E-025
  -1.6899999999999998E-002    -4.6878594361436059E-025
  -1.6850000000000000E-002    -5.2603605172439482E-025
  -1.6799999999999999E-002    -4.7048039002277619E-025
  -1.6750000000000001E-002    -2.8371471397305540E-025
  -1.6700000000000000E-002     2.4021362829070240E-026
  -1.6649999999999998E-002     4.0831553000385685E-025
  -1.6600000000000000E-002     7.9285873788329610E-025
  -1.6549999999999999E-002     1.0810383688370478E-024
  -1.6500000000000001E-002     1.1760765035339257E-024
  -1.6449999999999999E-002     1.0063048812417613E-024
  -1.6400000000000001E-002     5.4989282364566145E-025
  -1.6350000000000000E-002    -1.4781615477692116E-025
  -1.6299999999999999E-002    -9.7067292002066777E-025
  -1.6250000000000001E-002    -1.7456886063867492E-024
  -1.6199999999999999E-002    -2.2745112415599946E-024
  -1.6150000000000001E-002    -2.3776335942480102E-024
  -1.6100000000000000E-002    -1.9423236407038598E-024
  -1.6049999999999998E-002    -9.6276646119442892E-025
  -1.6000000000000000E-002     4.3894489582807242E-025
  -1.5949999999999999E-002     2.0191939397486671E-024
  -1.5900000000000001E-002     3.4491669121465393E-024
  -1.5850000000000000E-002     4.3766955506110284E-024
  -1.5799999999999998E-002     4.5025361615623590E-024
  -1.5750000000000000E-002     3.6554146299379559E-024
  -1.5699999999999999E-002     1.8488925334714479E-024
  -1.5650000000000001E-002    -6.9432708477735364E-025
  -1.5599999999999999E-002    -3.5591350507405940E-024
  -1.5550000000000001E-002    -6.1963254118583355E-024
  -1.5500000000000000E-002    -8.0147798604495184E-024
  -1.5449999999999998E-002    -8.4930294810674482E-024
  -1.5400000000000000E-002    -7.2915746881058110E-024
  -1.5349999999999999E-002    -4.3463667652315950E-024
  -1.5300000000000001E-002     7.4292802399810223E-026
  -1.5250000000000000E-002     5.3631416092995511E-024
  -1.5199999999999998E-002     1.0625869922559338E-023
  -1.5150000000000000E-002     1.4793272490291505E-023
  -1.5099999999999999E-002     1.6787610011895998E-023
  -1.5050000000000001E-002     1.5727930976388910E-023
  -1.4999999999999999E-002     1.1148473874562315E-023
  -1.4949999999999998E-002     3.1932732757208460E-024
  -1.4900000000000000E-002    -7.2585205417484541E-024
  -1.4849999999999999E-002    -1.8584443838622760E-023
  -1.4800000000000001E-002    -2.8567252499658958E-023
  -1.4749999999999999E-002    -3.4717629580380547E-023
  -1.4700000000000001E-002    -3.4752563257468146E-023
  -1.4650000000000000E-002    -2.7165551781994141E-023
  -1.4599999999999998E-002    -1.1779649421451983E-023
  -1.4550000000000000E-002     9.8570363089292162E-024
  -1.4499999999999999E-002     3.4377821582849867E-023
  -1.4450000000000001E-002     5.6915973157823580E-023
  -1.4400000000000000E-002     7.1870727062156642E-023
  -1.4349999999999998E-002     7.4049933891174483E-023
  -1.4300000000000000E-002     6.0001732728668615E-023
  -1.4249999999999999E-002     2.9249802261125832E-023
  -1.4200000000000001E-002    -1.4900065831559430E-023
  -1.4149999999999999E-002    -6.5284166551134948E-023
  -1.4099999999999998E-002    -1.1172178353743660E-022
  -1.4050000000000000E-002    -1.4276731272289563E-022
  -1.3999999999999999E-002    -1.4813722481750365E-022
  -1.3950000000000001E-002    -1.2135821053899646E-022
  -1.3899999999999999E-002    -6.2037676735625840E-023
  -1.3850000000000001E-002     2.2862355088399596E-023
  -1.3800000000000000E-002     1.1923649441220010E-022
  -1.3749999999999998E-002     2.0774656846795373E-022
  -1.3700000000000000E-002     2.6727488040887077E-022
  -1.3649999999999999E-002     2.7937285481381765E-022
  -1.3600000000000001E-002     2.3284089256353402E-022
  -1.3550000000000000E-002     1.2741932736699502E-022
  -1.3499999999999998E-002    -2.4369595095122168E-023
  -1.3450000000000000E-002    -1.9790025453124278E-022
  -1.3399999999999999E-002    -3.5984237993844220E-022
  -1.3350000000000001E-002    -4.7391235977620983E-022
  -1.3299999999999999E-002    -5.0806424604546665E-022
  -1.3249999999999998E-002    -4.4180515450690769E-022
  -1.3200000000000000E-002    -2.7215274959412878E-022
  -1.3149999999999998E-002    -1.6867801909385526E-023
  -1.3100000000000001E-002     2.8601161451707143E-022
  -1.3049999999999999E-002     5.8270375369277409E-022
  -1.3000000000000001E-002     8.1193359546715700E-022
  -1.2950000000000000E-002     9.1583217537184209E-022
  -1.2899999999999998E-002     8.5182005464029380E-022
  -1.2850000000000000E-002     6.0342892700015268E-022
  -1.2799999999999999E-002     1.8791545958802137E-022