  -4.0000000000000001E-002     0.0000000000000000     
  -3.9949999999999999E-002     0.0000000000000000     
  -3.9899999999999998E-002     0.0000000000000000     
  -3.9850000000000003E-002     0.0000000000000000     
  -3.9800000000000002E-002     0.0000000000000000     
  -3.9750000000000001E-002     0.0000000000000000     
  -3.9699999999999999E-002     0.0000000000000000     
  -3.9649999999999998E-002     0.0000000000000000     
  -3.9600000000000003E-002     0.0000000000000000     
  -3.9550000000000002E-002     0.0000000000000000     
  -3.9500000000000000E-002     0.0000000000000000     
  -3.9449999999999999E-002     0.0000000000000000     
  -3.9399999999999998E-002     0.0000000000000000     
  -3.9350000000000003E-002     0.0000000000000000     
  -3.9300000000000002E-002     3.1766188861005371E-040
  -3.9250000000000000E-002     7.5419953079540932E-039
  -3.9199999999999999E-002     8.9146061191675259E-038
  -3.9150000000000004E-002     7.0134278340565344E-037
  -3.9100000000000003E-002     4.0551086536481379E-036
  -3.9050000000000001E-002     1.7601570552885082E-035
  -3.9000000000000000E-002     5.7738346687088553E-035
  -3.8949999999999999E-002     1.3023510512091124E-034
  -3.8900000000000004E-002     9.4016757350737118E-035
  -3.8850000000000003E-002    -8.3295064362116838E-034
  -3.8800000000000001E-002    -5.3091620903088956E-033
  -3.8750000000000000E-002    -1.9897808014343952E-032
  -3.8699999999999998E-002    -5.5910276107873008E-032
  -3.8650000000000004E-002    -1.2147701851332752E-031
  -3.8600000000000002E-002    -1.8742162761835839E-031
  -3.8550000000000001E-002    -1.0150757582011112E-031
  -3.8500000000000000E-002     5.5892494072526264E-031
  -3.8449999999999998E-002     2.6243290375997399E-030
  -3.8400000000000004E-002     7.1932037255668267E-030
  -3.8350000000000002E-002     1.4649554827098175E-029
  -3.8300000000000001E-002     2.2063503716814948E-029
  -3.8249999999999999E-002     1.8592263192221595E-029
  -3.8199999999999998E-002    -1.9704825513680203E-029
  -3.8150000000000003E-002    -1.3036792632991716E-028
  -3.8100000000000002E-002    -3.4977204206070840E-028
  -3.8050000000000000E-002    -6.6917768428412815E-028
  -3.7999999999999999E-002    -9.5362063754948817E-028
  -3.7949999999999998E-002    -8.4047703456031386E-028
  -3.7900000000000003E-002     3.1631937651923669E-028
  -3.7850000000000002E-002     3.3274156489476240E-027
  -3.7800000000000000E-002     8.7077544023116012E-027
  -3.7749999999999999E-002     1.5765965162380896E-026
  -3.7699999999999997E-002     2.1367129319946786E-026
  -3.7650000000000003E-002     1.8929031844026157E-026
  -3.7600000000000001E-002    -1.2535050438615039E-027
  -3.7550000000000000E-002    -4.8937200586062826E-026
  -3.7499999999999999E-002    -1.2706509965638159E-025
  -3.7449999999999997E-002    -2.2160539490656964E-025
  -3.7400000000000003E-002    -2.9140385446504264E-025
  -3.7350000000000001E-002    -2.6472242851934756E-025
  -3.7300000000000000E-002    -5.1297233186822379E-026
  -3.7249999999999998E-002     4.2277383923426570E-025
  -3.7200000000000004E-002     1.1573398689614795E-024
  -3.7150000000000002E-002     2.0110197254691456E-024
  -3.7100000000000001E-002     2.6536977890327937E-024
  -3.7050000000000000E-002     2.5789838146426661E-024
  -3.6999999999999998E-002     1.2140894823520962E-024
  -3.6950000000000004E-002    -1.8593031967486553E-024
  -3.6900000000000002E-002    -6.6042969426723509E-024
  -3.6850000000000001E-002    -1.2233767561170628E-023
  -3.6799999999999999E-002    -1.7050367077296997E-023
  -3.6749999999999998E-002    -1.8560156281883773E-023
  -3.6700000000000003E-002    -1.3957436283223554E-023
  -3.6650000000000002E-002    -9.8728363260659540E-025
  -3.6600000000000001E-002     2.0930849534259074E-023
  -3.6549999999999999E-002     4.9562090246136248E-023
  -3.6499999999999998E-002     7.9046457796099856E-023
  -3.6450000000000003E-002     9.9834984740541726E-023
  -3.6400000000000002E-002     9.9793753125702313E-023
  -3.6350000000000000E-002     6.6805449879978546E-023
  -3.6299999999999999E-002    -7.0742451020076121E-024
  -3.6249999999999998E-002    -1.2039181142281506E-022
  -3.6200000000000003E-002    -2.5731898854248777E-022
  -3.6150000000000002E-002    -3.8516724615288628E-022
  -3.6100000000000000E-002    -4.5717452286924690E-022
  -3.6049999999999999E-002    -4.2278722546596368E-022
  -3.6000000000000004E-002    -2.4539578100975039E-022
  -3.5950000000000003E-002     7.6457610230976606E-023
  -3.5900000000000001E-002     4.9282448085150019E-022
  -3.5850000000000000E-002     9.0201132640907589E-022
  -3.5799999999999998E-002     1.1748392229252605E-021
  -3.5750000000000004E-002     1.2032683079031339E-021
  -3.5700000000000003E-002     9.5883107160359181E-022
  -3.5650000000000001E-002     5.3210310414489564E-022
  -3.5600000000000000E-002     1.1929049701711076E-022
  -3.5549999999999998E-002    -6.5258423802509776E-023
  -3.5500000000000004E-002     6.1765530049305028E-023
  -3.5450000000000002E-002     3.0028771400870602E-022
  -3.5400000000000001E-002     1.0770678058086829E-022
  -3.5349999999999999E-002    -1.2690178193700335E-021
  -3.5299999999999998E-002    -4.4282807863236917E-021
  -3.5250000000000004E-002    -9.2874151995419389E-021
  -3.5200000000000002E-002    -1.4602565607543647E-020
  -3.5150000000000001E-002    -1.7835163082710903E-020
  -3.5099999999999999E-002    -1.5640403658287259E-020
  -3.5049999999999998E-002    -5.0656064780434669E-021
  -3.5000000000000003E-002     1.4780090816394995E-020
  -3.4950000000000002E-002     4.1178774140813330E-020
  -3.4900000000000000E-002     6.7184509802036196E-020
  -3.4849999999999999E-002     8.2632883570022500E-020
  -3.4799999999999998E-002     7.6988033225839935E-020
  -3.4750000000000003E-002     4.3453260693497728E-020
  -3.4700000000000002E-002    -1.7016352190325852E-020
  -3.4650000000000000E-002    -9.3567389092108815E-020
  -3.4599999999999999E-002    -1.6663536190218076E-019
  -3.4549999999999997E-002    -2.1285492055610995E-019
  -3.4500000000000003E-002    -2.1252264305076146E-019
  -3.4450000000000001E-002    -1.5703244894926168E-019
  -3.4400000000000000E-002    -5.3175717979675057E-020
  -3.4349999999999999E-002     7.7959189273644911E-020
  -3.4299999999999997E-002     2.0762802102829943E-019
  -3.4250000000000003E-002     3.0911816626646722E-019
  -3.4200000000000001E-002     3.6609531344970446E-019
  -3.4150000000000000E-002     3.7525828085452178E-019
  -3.4099999999999998E-002     3.4139266593635578E-019
  -3.4049999999999997E-002     2.6705910059078553E-019
  -3.4000000000000002E-002     1.4315804880180415E-019
  -3.3950000000000001E-002    -5.1841610260418093E-020
  -3.3900000000000000E-002    -3.3882900725492242E-019
  -3.3849999999999998E-002    -7.1266010998038957E-019
  -3.3799999999999997E-002    -1.1144833917673542E-018
  -3.3750000000000002E-002    -1.4180758654704538E-018
  -3.3700000000000001E-002    -1.4462991443798931E-018
  -3.3649999999999999E-002    -1.0249018095548575E-018
  -3.3599999999999998E-002    -6.4770744867746507E-020
  -3.3550000000000003E-002     1.3540923836124805E-018
  -3.3500000000000002E-002     2.9350347894156144E-018
  -3.3450000000000001E-002     4.1894106905380046E-018
  -3.3399999999999999E-002     4.5497796000664298E-018
  -3.3349999999999998E-002     3.5553958047604427E-018
  -3.3300000000000003E-002     1.0586986978390839E-018
  -3.3250000000000002E-002    -2.6215319710026449E-018
  -3.3200000000000000E-002    -6.6730364621943000E-018
  -3.3149999999999999E-002    -9.9304701400728637E-018
  -3.3099999999999997E-002    -1.1170748136250123E-017
  -3.3050000000000003E-002    -9.4911176451284419E-018
  -3.3000000000000002E-002    -4.6552808464249505E-018
  -3.2950000000000000E-002     2.7130799950019506E-018
  -3.2899999999999999E-002     1.1172179056602036E-017
  -3.2850000000000004E-002     1.8750097293642422E-017
  -3.2800000000000003E-002     2.3407624759099370E-017
  -3.2750000000000001E-002     2.3543984147187602E-017
  -3.2700000000000000E-002     1.8398967210993222E-017
  -3.2649999999999998E-002     8.2444842758958259E-018
  -3.2600000000000004E-002    -5.6628762954809579E-018
  -3.2550000000000003E-002    -2.1311831300499170E-017
  -3.2500000000000001E-002    -3.6239864822488717E-017
  -3.2450000000000000E-002    -4.7806754967116493E-017
  -3.2399999999999998E-002    -5.3398709982336117E-017
  -3.2350000000000004E-002    -5.0615318488067163E-017
  -3.2300000000000002E-002    -3.7559935907775912E-017
  -3.2250000000000001E-002    -1.3348751967568011E-017
  -3.2199999999999999E-002     2.1148710604892484E-017
  -3.2149999999999998E-002     6.2503122486148339E-017
  -3.2100000000000004E-002     1.0420315258702299E-016
  -3.2050000000000002E-002     1.3686334631278296E-016
  -3.2000000000000001E-002     1.4952871775519462E-016
  -3.1949999999999999E-002     1.3215651050127064E-016
  -3.1899999999999998E-002     7.8912398373339844E-017
  -3.1850000000000003E-002    -8.5466675069763783E-018
  -3.1800000000000002E-002    -1.1893493043414639E-016
  -3.1750000000000000E-002    -2.3145028615870191E-016
  -3.1699999999999999E-002    -3.1879986964836362E-016
  -3.1649999999999998E-002    -3.5300341735746496E-016
  -3.1600000000000003E-002    -3.1288727710630027E-016
  -3.1550000000000002E-002    -1.9138579496306680E-016
  -3.1500000000000000E-002    -4.3295192805767527E-019
  -3.1449999999999999E-002     2.2844188555393791E-016
  -3.1399999999999997E-002     4.4870916473609122E-016
  -3.1350000000000003E-002     6.0810481683022581E-016
  -3.1300000000000001E-002     6.6061769169443141E-016
  -3.1250000000000000E-002     5.7827626816590962E-016
  -3.1199999999999999E-002     3.5964325584929654E-016
  -3.1150000000000001E-002     3.2670793059265307E-017
  -3.1100000000000003E-002    -3.4897641439798135E-016
  -3.1050000000000001E-002    -7.1530959872478392E-016
  -3.1000000000000000E-002    -9.9287898771315481E-016
  -3.0949999999999998E-002    -1.1182021326082663E-015
  -3.0900000000000000E-002    -1.0490956294461952E-015
  -3.0850000000000002E-002    -7.7223136763060547E-016
  -3.0800000000000001E-002    -3.0649778011105599E-016
  -3.0750000000000000E-002     2.9729169699948810E-016
  -3.0699999999999998E-002     9.5954340558720359E-016
  -3.0650000000000000E-002     1.5775907379523742E-015
  -3.0600000000000002E-002     2.0345929819248270E-015
  -3.0550000000000001E-002     2.2129183004624046E-015
  -3.0499999999999999E-002     2.0130293954608186E-015
  -3.0449999999999998E-002     1.3772994592787200E-015
  -3.0400000000000000E-002     3.1548571886779203E-016
  -3.0350000000000002E-002    -1.0743724317910544E-015
  -3.0300000000000001E-002    -2.5978297264506346E-015
  -3.0249999999999999E-002    -3.9765587943372096E-015
  -3.0200000000000001E-002    -4.8860531924514318E-015
  -3.0150000000000000E-002    -5.0169142992414295E-015
  -3.0100000000000002E-002    -4.1505202651747834E-015
  -3.0050000000000000E-002    -2.2329905179380816E-015
  -2.9999999999999999E-002     5.7239043379616743E-016
  -2.9950000000000001E-002     3.8728655295550684E-015
  -2.9899999999999999E-002     7.0857392251529073E-015
  -2.9850000000000002E-002     9.5301078224012525E-015
  -2.9800000000000000E-002     1.0557854845332731E-014
  -2.9749999999999999E-002     9.6992704402543850E-015
  -2.9700000000000001E-002     6.7918890102685687E-015
  -2.9650000000000003E-002     2.0615036129021224E-015
  -2.9600000000000001E-002    -3.8677745774715100E-015
  -2.9550000000000000E-002    -1.0043823300573814E-014
  -2.9499999999999998E-002    -1.5330190545149586E-014
  -2.9450000000000000E-002    -1.8600866773920005E-014
  -2.9400000000000003E-002    -1.8953054074938463E-014
  -2.9350000000000001E-002    -1.5900354397583914E-014
  -2.9300000000000000E-002    -9.5110501054797203E-015
  -2.9249999999999998E-002    -4.6397688653203125E-016
  -2.9200000000000000E-002     9.9940384739728775E-015
  -2.9150000000000002E-002     2.0191802302126498E-014
  -2.9100000000000001E-002     2.8267092951770163E-014
  -2.9049999999999999E-002     3.2464569637475493E-014
  -2.8999999999999998E-002     3.1460058240546543E-014
  -2.8950000000000000E-002     2.4661973896309520E-014
  -2.8900000000000002E-002     1.2434004320973964E-014
  -2.8850000000000001E-002    -3.8159591156137030E-015
  -2.8799999999999999E-002    -2.1723914437899929E-014
  -2.8749999999999998E-002    -3.8253824574212074E-014
  -2.8700000000000000E-002    -5.0160989646498992E-014
  -2.8650000000000002E-002    -5.4576430177035033E-014
  -2.8600000000000000E-002    -4.9615531779079078E-014
  -2.8549999999999999E-002    -3.4889358688776310E-014
  -2.8500000000000001E-002    -1.1796198510498840E-014
  -2.8450000000000000E-002     1.6501424790259488E-014
  -2.8400000000000002E-002     4.5454105408220875E-014
  -2.8350000000000000E-002     6.9824953331151764E-014
  -2.8299999999999999E-002     8.4604823319306241E-014
  -2.8250000000000001E-002     8.5979999239371534E-014
  -2.8200000000000003E-002     7.2163643117991225E-014
  -2.8150000000000001E-002     4.3917479521010061E-014
  -2.8100000000000000E-002     4.6435574452905585E-015
  -2.8049999999999999E-002    -3.9993718338242719E-014
  -2.8000000000000001E-002    -8.2866619821884908E-014
  -2.7950000000000003E-002    -1.1647847894482901E-013
  -2.7900000000000001E-002    -1.3417788958999865E-013
  -2.7850000000000000E-002    -1.3130198404973174E-013
  -2.7799999999999998E-002    -1.0607547189626715E-013
  -2.7750000000000000E-002    -6.0132881844319200E-014
  -2.7700000000000002E-002     1.4176772028806900E-015
  -2.7650000000000001E-002     7.0418861984492920E-014
  -2.7600000000000000E-002     1.3655900308588452E-013
  -2.7549999999999998E-002     1.8867520337519565E-013
  -2.7500000000000000E-002     2.1635426347515779E-013
  -2.7450000000000002E-002     2.1166727744361965E-013
  -2.7400000000000001E-002     1.7081550958110682E-013
  -2.7349999999999999E-002     9.5416360319155311E-014
  -2.7299999999999998E-002    -6.8608632316488765E-015
  -2.7250000000000000E-002    -1.2256690483753996E-013
  -2.7200000000000002E-002    -2.3380817689178079E-013
  -2.7150000000000001E-002    -3.2063176911725828E-013
  -2.7099999999999999E-002    -3.6422925780892065E-013
  -2.7049999999999998E-002    -3.5050615015629360E-013
  -2.7000000000000000E-002    -2.7339307418563384E-013
  -2.6950000000000002E-002    -1.3720674585523703E-013
  -2.6900000000000000E-002     4.2557721903689383E-014
  -2.6849999999999999E-002     2.4040064688742673E-013
  -2.6800000000000001E-002     4.2401532488493957E-013
  -2.6749999999999999E-002     5.5917072638794812E-013
  -2.6700000000000002E-002     6.1556794344166448E-013
  -2.6650000000000000E-002     5.7269432488290248E-013
  -2.6599999999999999E-002     4.2460329993134635E-013
  -2.6550000000000001E-002     1.8265226660486812E-013
  -2.6500000000000003E-002    -1.2447646947991229E-013
  -2.6450000000000001E-002    -4.5371467604432013E-013
  -2.6400000000000000E-002    -7.5325389347276482E-013
  -2.6349999999999998E-002    -9.7016983033980729E-013
  -2.6300000000000000E-002    -1.0589225490661066E-012
  -2.6250000000000002E-002    -9.8941743388457648E-013
  -2.6200000000000001E-002    -7.5329631619794417E-013
  -2.6150000000000000E-002    -3.6731928816008153E-013
  -2.6099999999999998E-002     1.2692845375103740E-013
  -2.6050000000000000E-002     6.6724646604506345E-013
  -2.6000000000000002E-002     1.1785902092890939E-012
  -2.5950000000000001E-002     1.5834478799649158E-012
  -2.5899999999999999E-002     1.8133661118722189E-012
  -2.5849999999999998E-002     1.8198553234265244E-012
  -2.5800000000000000E-002     1.5828616160312834E-012
  -2.5750000000000002E-002     1.1152661140372436E-012
  -2.5700000000000001E-002     4.6244031978801532E-013
  -2.5649999999999999E-002    -3.0330439079548295E-013
  -2.5599999999999998E-002    -1.0926418205279271E-012
  -2.5550000000000000E-002    -1.8119730433594851E-012
  -2.5500000000000002E-002    -2.3768621593365928E-012
  -2.5450000000000000E-002    -2.7238579262968884E-012
  -2.5399999999999999E-002    -2.8186685693659914E-012
  -2.5349999999999998E-002    -2.6593306743413951E-012
  -2.5300000000000000E-002    -2.2739695208303017E-012
  -2.5250000000000002E-002    -1.7137801587517866E-012
  -2.5200000000000000E-002    -1.0427334399207761E-012
  -2.5149999999999999E-002    -3.2607414105711191E-013
  -2.5100000000000001E-002     3.8019329399982379E-013
  -2.5049999999999999E-002     1.0369313509231882E-012
  -2.5000000000000001E-002     1.6253248359789972E-012
  -2.4950000000000000E-002     2.1456698536853013E-012
  -2.4899999999999999E-002     2.6117883347186496E-012
  -2.4850000000000001E-002     3.0420242282510335E-012
  -2.4800000000000003E-002     3.4482377697205801E-012
  -2.4750000000000001E-002     3.8245020758635326E-012
  -2.4700000000000000E-002     4.1373167255892863E-012
  -2.4649999999999998E-002     4.3191921419647917E-012
  -2.4600000000000000E-002     4.2673734688918514E-012
  -2.4550000000000002E-002     3.8492491272468910E-012
  -2.4500000000000001E-002     2.9155522787441427E-012
  -2.4450000000000000E-002     1.3216812481459502E-012
  -2.4399999999999998E-002    -1.0436374783757991E-012
  -2.4350000000000000E-002    -4.2245068985139619E-012
  -2.4299999999999999E-002    -8.1624655593223844E-012
  -2.4250000000000001E-002    -1.2664391759982345E-011
  -2.4199999999999999E-002    -1.7379204423388692E-011
  -2.4150000000000001E-002    -2.1788671856140947E-011
  -2.4100000000000000E-002    -2.5216389440005525E-011
  -2.4049999999999998E-002    -2.6856825246332972E-011
  -2.4000000000000000E-002    -2.5823535856329152E-011
  -2.3949999999999999E-002    -2.1212528699370993E-011
  -2.3900000000000001E-002    -1.2174152423355213E-011
  -2.3850000000000000E-002     2.0150149274027080E-012
  -2.3800000000000002E-002     2.1889273388849168E-011
  -2.3750000000000000E-002     4.7748173244353149E-011
  -2.3699999999999999E-002     7.9634281954307542E-011
  -2.3650000000000001E-002     1.1733730027062092E-010
  -2.3599999999999999E-002     1.6042406938220859E-010
  -2.3550000000000001E-002     2.0829026523465020E-010
  -2.3500000000000000E-002     2.6022697945039947E-010
  -2.3449999999999999E-002     3.1549318623933104E-010
  -2.3400000000000001E-002     3.7338459522497245E-010
  -2.3349999999999999E-002     4.3329004995454557E-010
  -2.3300000000000001E-002     4.9472878995075214E-010
  -2.3250000000000000E-002     5.5736458879566908E-010
  -2.3199999999999998E-002     6.2099698400422668E-010
  -2.3150000000000000E-002     6.8553281134551216E-010
  -2.3099999999999999E-002     7.5094487046728309E-010
  -2.3050000000000001E-002     8.1722655300637472E-010
  -2.3000000000000000E-002     8.8435144947803476E-010
  -2.2950000000000002E-002     9.5224567051348109E-010
  -2.2900000000000000E-002     1.0207784334872459E-009
  -2.2849999999999999E-002     1.0897722419053323E-009
  -2.2800000000000001E-002     1.1590293574027322E-009
  -2.2749999999999999E-002     1.2283684308028367E-009
  -2.2700000000000001E-002     1.2976633914188206E-009
  -2.2650000000000000E-002     1.3668747042753274E-009
  -2.2599999999999999E-002     1.4360667004470022E-009
  -2.2550000000000001E-002     1.5054072400597501E-009
  -2.2499999999999999E-002     1.5751492805888180E-009
  -2.2450000000000001E-002     1.6455989187779804E-009
  -2.2400000000000000E-002     1.7170771806556238E-009
  -2.2349999999999998E-002     1.7898819849818683E-009
  -2.2300000000000000E-002     1.8642596130661659E-009
  -2.2249999999999999E-002     1.9403880694831474E-009
  -2.2200000000000001E-002     2.0183754678812489E-009
  -2.2150000000000000E-002     2.0982718732310505E-009
  -2.2100000000000002E-002     2.1800896679382838E-009
  -2.2050000000000000E-002     2.2638277337447546E-009
  -2.1999999999999999E-002     2.3494972773369041E-009
  -2.1950000000000001E-002     2.4371408375743306E-009
  -2.1899999999999999E-002     2.5268461090756464E-009
  -2.1850000000000001E-002     2.6187529983214930E-009
  -2.1800000000000000E-002     2.7130530524627979E-009
  -2.1749999999999999E-002     2.8099834752887900E-009
  -2.1700000000000001E-002     2.9098130363175183E-009
  -2.1649999999999999E-002     3.0128246003732299E-009
  -2.1600000000000001E-002     3.1192896263450761E-009
  -2.1550000000000000E-002     3.2294387817834948E-009
  -2.1499999999999998E-002     3.3434308135581116E-009
  -2.1450000000000000E-002     3.4613227616363375E-009
  -2.1399999999999999E-002     3.5830463361015662E-009
  -2.1350000000000001E-002     3.7083986981500045E-009
  -2.1299999999999999E-002     3.8370507274115863E-009
  -2.1250000000000002E-002     3.9685739108558792E-009
  -2.1200000000000000E-002     4.1024927086891766E-009
  -2.1149999999999999E-002     4.2383484715059596E-009
  -2.1100000000000001E-002     4.3757798524134334E-009
  -2.1049999999999999E-002     4.5145979740936630E-009
  -2.1000000000000001E-002     4.6548533183476565E-009
  -2.0950000000000000E-002     4.7968783590843026E-009
  -2.0899999999999998E-002     4.9412974169839411E-009
  -2.0850000000000000E-002     5.0889991057353327E-009
  -2.0799999999999999E-002     5.2410699789072182E-009
  -2.0750000000000001E-002     5.3986908777432067E-009
  -2.0700000000000000E-002     5.5630133874824074E-009
  -2.0649999999999998E-002     5.7350245973055544E-009
  -2.0600000000000000E-002     5.9154250149269698E-009
  -2.0549999999999999E-002     6.1045347616324297E-009
  -2.0500000000000001E-002     6.3022456733836826E-009
  -2.0449999999999999E-002     6.5080329540424747E-009
  -2.0400000000000001E-002     6.7210230827262282E-009
  -2.0350000000000000E-002     6.9401161053934875E-009
  -2.0299999999999999E-002     7.1641409091725693E-009
  -2.0250000000000001E-002     7.3920246965690539E-009
  -2.0199999999999999E-002     7.6229486104024927E-009
  -2.0150000000000001E-002     7.8564607472507989E-009
  -2.0100000000000000E-002     8.0925380752896171E-009
  -2.0049999999999998E-002     8.3315894593281542E-009
  -2.0000000000000000E-002     8.5743917842329337E-009
  -1.9949999999999999E-002     8.8219941055369461E-009
  -1.9900000000000001E-002     9.0755903358177392E-009
  -1.9850000000000000E-002     9.3363962933636795E-009
  -1.9799999999999998E-002     9.6055431234195760E-009
  -1.9750000000000000E-002     9.8840059961558365E-009
  -1.9699999999999999E-002     1.0172566867403804E-008
  -1.9650000000000001E-002     1.0471813115481517E-008
  -1.9599999999999999E-002     1.0782145126730401E-008
  -1.9550000000000001E-002     1.1103812058593882E-008
  -1.9500000000000000E-002     1.1436928938878819E-008
  -1.9449999999999999E-002     1.1781493669306107E-008
  -1.9400000000000001E-002     1.2137391933553229E-008
  -1.9349999999999999E-002     1.2504394965275652E-008
  -1.9300000000000001E-002     1.2882162727193763E-008
  -1.9250000000000000E-002     1.3270251616452961E-008
  -1.9199999999999998E-002     1.3668145737795386E-008
  -1.9150000000000000E-002     1.4075304867482306E-008
  -1.9099999999999999E-002     1.4491231952164180E-008
  -1.9050000000000001E-002     1.4915555662961425E-008
  -1.9000000000000000E-002     1.5348111387013210E-008
  -1.8949999999999998E-002     1.5789018244437650E-008
  -1.8900000000000000E-002     1.6238720117341771E-008
  -1.8849999999999999E-002     1.6698008012471075E-008
  -1.8800000000000001E-002     1.7167987926426859E-008
  -1.8749999999999999E-002     1.7650019024381601E-008
  -1.8700000000000001E-002     1.8145608279273810E-008
  -1.8650000000000000E-002     1.8656287553690622E-008
  -1.8599999999999998E-002     1.9183473769136461E-008
  -1.8550000000000001E-002     1.9728351262911552E-008
  -1.8499999999999999E-002     2.0291778784046442E-008
  -1.8450000000000001E-002     2.0874228726594704E-008
  -1.8400000000000000E-002     2.1475788857010795E-008
  -1.8349999999999998E-002     2.2096198276188448E-008
  -1.8300000000000000E-002     2.2734927654162468E-008
  -1.8249999999999999E-002     2.3391278195437659E-008
  -1.8200000000000001E-002     2.4064495642278781E-008
  -1.8149999999999999E-002     2.4753871356880335E-008
  -1.8100000000000002E-002     2.5458842715260607E-008
  -1.8050000000000000E-002     2.6179065569698578E-008
  -1.7999999999999999E-002     2.6914466838926807E-008
  -1.7950000000000001E-002     2.7665298144229060E-008
  -1.7899999999999999E-002     2.8432149108782381E-008
  -1.7850000000000001E-002     2.9215968042759469E-008
  -1.7800000000000000E-002     3.0018040930408052E-008
  -1.7749999999999998E-002     3.0839953279791439E-008
  -1.7700000000000000E-002     3.1683502347263167E-008
  -1.7649999999999999E-002     3.2550590832296420E-008
  -1.7600000000000001E-002     3.3443065371998363E-008
  -1.7550000000000000E-002     3.4362570230505647E-008
  -1.7499999999999998E-002     3.5310395967857916E-008
  -1.7450000000000000E-002     3.6287387630277494E-008
  -1.7399999999999999E-002     3.7293891289330650E-008
  -1.7350000000000001E-002     3.8329762947581380E-008
  -1.7299999999999999E-002     3.9394491953581383E-008
  -1.7250000000000001E-002     4.0487324099180975E-008
  -1.7200000000000000E-002     4.1607446179066146E-008
  -1.7149999999999999E-002     4.2754138643635281E-008
  -1.7100000000000001E-002     4.3926922775500745E-008
  -1.7049999999999999E-002     4.5125665098607690E-008
  -1.7000000000000001E-002     4.6350628186791560E-008
  -1.6950000000000000E-002     4.7602476816652170E-008
  -1.6899999999999998E-002     4.8882269383960945E-008
  -1.6850000000000000E-002     5.0191421261829413E-008
  -1.6799999999999999E-002     5.1531647143303474E-008
  -1.6750000000000001E-002     5.2904899899871432E-008
  -1.6700000000000000E-002     5.4313269204946730E-008
  -1.6649999999999998E-002     5.5758847853947546E-008
  -1.6600000000000000E-002     5.7243593716496288E-008
  -1.6549999999999999E-002     5.8769170633464306E-008
  -1.6500000000000001E-002     6.0336800812761473E-008
  -1.6449999999999999E-002     6.1947159885879360E-008
  -1.6400000000000001E-002     6.3600380443946103E-008
  -1.6350000000000000E-002     6.5296100637369658E-008
  -1.6299999999999999E-002     6.7033672838542280E-008
  -1.6250000000000001E-002     6.8812354664698420E-008
  -1.6199999999999999E-002     7.0631609078831190E-008
  -1.6150000000000001E-002     7.2491321102438454E-008
  -1.6100000000000000E-002     7.4391939022228804E-008
  -1.6049999999999998E-002     7.6334547856496740E-008
  -1.6000000000000000E-002     7.8320772931933267E-008
  -1.5949999999999999E-002     8.0352670695367713E-008
  -1.5900000000000001E-002     8.2432479281900463E-008
  -1.5850000000000000E-002     8.4562451334868250E-008
  -1.5799999999999998E-002     8.6744707932964131E-008
  -1.5750000000000000E-002     8.8981184358254901E-008
  -1.5699999999999999E-002     9.1273636837042661E-008
  -1.5650000000000001E-002     9.3623701522363689E-008
  -1.5599999999999999E-002     9.6032987716404601E-008
  -1.5550000000000001E-002     9.8503136155104712E-008
  -1.5500000000000000E-002     1.0103579031598443E-007
  -1.5449999999999998E-002     1.0363251221373631E-007
  -1.5400000000000000E-002     1.0629463543063810E-007
  -1.5349999999999999E-002     1.0902313337061948E-007
  -1.5300000000000001E-002     1.1181849228288914E-007
  -1.5250000000000000E-002     1.1468071536405346E-007
  -1.5199999999999998E-002     1.1760942187090037E-007
  -1.5150000000000000E-002     1.2060406430803688E-007
  -1.5099999999999999E-002     1.2366420877201606E-007
  -1.5050000000000001E-002     1.2678987295831592E-007
  -1.4999999999999999E-002     1.2998171916851121E-007
  -1.4949999999999998E-002     1.3324126827057958E-007
  -1.4900000000000000E-002     1.3657077699501907E-007
  -1.4849999999999999E-002     1.3997315927384265E-007
  -1.4800000000000001E-002     1.4345160401201850E-007
  -1.4749999999999999E-002     1.4700932936166098E-007
  -1.4700000000000001E-002     1.5064921041468500E-007
  -1.4650000000000000E-002     1.5437362173846350E-007
  -1.4599999999999998E-002     1.5818433927003913E-007
  -1.4550000000000000E-002     1.6208266181730047E-007
  -1.4499999999999999E-002     1.6606960559478042E-007
  -1.4450000000000001E-002     1.7014613119292302E-007
  -1.4400000000000000E-002     1.7431335379367823E-007
  -1.4349999999999998E-002     1.7857270491112232E-007
  -1.4300000000000000E-002     1.8292590805754018E-007
  -1.4249999999999999E-002     1.8737488619398694E-007
  -1.4200000000000001E-002     1.9192167756414285E-007
  -1.4149999999999999E-002     1.9656820412362429E-007
  -1.4099999999999998E-002     2.0131625984372191E-007
  -1.4050000000000000E-002     2.0616756150935394E-007
  -1.3999999999999999E-002     2.1112395447422577E-007
  -1.3950000000000001E-002     2.1618763813626374E-007
  -1.3899999999999999E-002     2.2136146332760980E-007
  -1.3850000000000001E-002     2.2664908010618175E-007
  -1.3800000000000000E-002     2.3205495713453702E-007
  -1.3749999999999998E-002     2.3758409162236609E-007
  -1.3700000000000000E-002     2.4324157610546841E-007
  -1.3649999999999999E-002     2.4903202903148798E-007
  -1.3600000000000001E-002     2.5495903489311090E-007
  -1.3550000000000000E-002     2.6102481547308636E-007
  -1.3499999999999998E-002     2.6723018328083305E-007
  -1.3450000000000000E-002     2.7357471832438354E-007
  -1.3399999999999999E-002     2.8005726213726630E-007
  -1.3350000000000001E-002     2.8667661906305063E-007
  -1.3299999999999999E-002     2.9343229815814356E-007
  -1.3249999999999998E-002     3.0032492196274770E-007
  -1.3200000000000000E-002     3.0735644912685002E-007
  -1.3149999999999998E-002     3.1452986298138738E-007
  -1.3100000000000001E-002     3.2184878904667166E-007
  -1.3049999999999999E-002     3.2931673952107134E-007
  -1.3000000000000001E-002     3.3693647553829301E-007
  -1.2950000000000000E-002     3.4470981872924698E-007
  -1.2899999999999998E-002     3.5263758269449605E-007
  -1.2850000000000000E-002     3.6071994192283828E-007
  -1.2799999999999999E-002     3.6895717678982097E-007