  -4.0000000000000001E-002     0.0000000000000000     
  -3.9949999999999999E-002     0.0000000000000000     
  -3.9899999999999998E-002     0.0000000000000000     
  -3.9850000000000003E-002     0.0000000000000000     
  -3.9800000000000002E-002     0.0000000000000000     
  -3.9750000000000001E-002     0.0000000000000000     
  -3.9699999999999999E-002     0.0000000000000000     
  -3.9649999999999998E-002     0.0000000000000000     
  -3.9600000000000003E-002     0.0000000000000000     
  -3.9550000000000002E-002     0.0000000000000000     
  -3.9500000000000000E-002     0.0000000000000000     
  -3.9449999999999999E-002     0.0000000000000000     
  -3.9399999999999998E-002     0.0000000000000000     
  -3.9350000000000003E-002     0.0000000000000000     
  -3.9300000000000002E-002     0.0000000000000000     
  -3.9250000000000000E-002     0.0000000000000000     
  -3.9199999999999999E-002     0.0000000000000000     
  -3.9150000000000004E-002     0.0000000000000000     
  -3.9100000000000003E-002     0.0000000000000000     
  -3.9050000000000001E-002     0.0000000000000000     
  -3.9000000000000000E-002     0.0000000000000000     
  -3.8949999999999999E-002     0.0000000000000000     
  -3.8900000000000004E-002     0.0000000000000000     
  -3.8850000000000003E-002     0.0000000000000000     
  -3.8800000000000001E-002     0.0000000000000000     
  -3.8750000000000000E-002     0.0000000000000000     
  -3.8699999999999998E-002     0.0000000000000000     
  -3.8650000000000004E-002     0.0000000000000000     
  -3.8600000000000002E-002     0.0000000000000000     
  -3.8550000000000001E-002     0.0000000000000000     
  -3.8500000000000000E-002     0.0000000000000000     
  -3.8449999999999998E-002     0.0000000000000000     
  -3.8400000000000004E-002     0.0000000000000000     
  -3.8350000000000002E-002     0.0000000000000000     
  -3.8300000000000001E-002     0.0000000000000000     
  -3.8249999999999999E-002     0.0000000000000000     
  -3.8199999999999998E-002     0.0000000000000000     
  -3.8150000000000003E-002     0.0000000000000000     
  -3.8100000000000002E-002     0.0000000000000000     
  -3.8050000000000000E-002     0.0000000000000000     
  -3.7999999999999999E-002     0.0000000000000000     
  -3.7949999999999998E-002     0.0000000000000000     
  -3.7900000000000003E-002     0.0000000000000000     
  -3.7850000000000002E-002     0.0000000000000000     
  -3.7800000000000000E-002     0.0000000000000000     
  -3.7749999999999999E-002     0.0000000000000000     
  -3.7699999999999997E-002     0.0000000000000000     
  -3.7650000000000003E-002     0.0000000000000000     
  -3.7600000000000001E-002     0.0000000000000000     
  -3.7550000000000000E-002     0.0000000000000000     
  -3.7499999999999999E-002     0.0000000000000000     
  -3.7449999999999997E-002     0.0000000000000000     
  -3.7400000000000003E-002     0.0000000000000000     
  -3.7350000000000001E-002     0.0000000000000000     
  -3.7300000000000000E-002     0.0000000000000000     
  -3.7249999999999998E-002     0.0000000000000000     
  -3.7200000000000004E-002     0.0000000000000000     
  -3.7150000000000002E-002     0.0000000000000000     
  -3.7100000000000001E-002     0.0000000000000000     
  -3.7050000000000000E-002     0.0000000000000000     
  -3.6999999999999998E-002     0.0000000000000000     
  -3.6950000000000004E-002     0.0000000000000000     
  -3.6900000000000002E-002     0.0000000000000000     
  -3.6850000000000001E-002     0.0000000000000000     
  -3.6799999999999999E-002     0.0000000000000000     
  -3.6749999999999998E-002     0.0000000000000000     
  -3.6700000000000003E-002     0.0000000000000000     
  -3.6650000000000002E-002     0.0000000000000000     
  -3.6600000000000001E-002     0.0000000000000000     
  -3.6549999999999999E-002     0.0000000000000000     
  -3.6499999999999998E-002     0.0000000000000000     
  -3.6450000000000003E-002     0.0000000000000000     
  -3.6400000000000002E-002     0.0000000000000000     
  -3.6350000000000000E-002     0.0000000000000000     
  -3.6299999999999999E-002     0.0000000000000000     
  -3.6249999999999998E-002     0.0000000000000000     
  -3.6200000000000003E-002     0.0000000000000000     
  -3.6150000000000002E-002     0.0000000000000000     
  -3.6100000000000000E-002     0.0000000000000000     
  -3.6049999999999999E-002     0.0000000000000000     
  -3.6000000000000004E-002     0.0000000000000000     
  -3.5950000000000003E-002     0.0000000000000000     
  -3.5900000000000001E-002     0.0000000000000000     
  -3.5850000000000000E-002     0.0000000000000000     
  -3.5799999999999998E-002     0.0000000000000000     
  -3.5750000000000004E-002     0.0000000000000000     
  -3.5700000000000003E-002     0.0000000000000000     
  -3.5650000000000001E-002     0.0000000000000000     
  -3.5600000000000000E-002     0.0000000000000000     
  -3.5549999999999998E-002    -1.5617790383054041E-039
  -3.5500000000000004E-002    -3.4747531439512848E-039
  -3.5450000000000002E-002    -3.4747531439512848E-039
  -3.5400000000000001E-002     0.0000000000000000     
  -3.5349999999999999E-002     5.3992035197614851E-039
  -3.5299999999999998E-002     1.6529087244912125E-038
  -3.5250000000000004E-002     3.3662181059330825E-038
  -3.5200000000000002E-002     5.1272813607411390E-038
  -3.5150000000000001E-002     4.5736248063163833E-038
  -3.5099999999999999E-002     1.1592269822617996E-038
  -3.5049999999999998E-002    -6.4569469933526864E-038
  -3.5000000000000003E-002    -2.0510576420417757E-037
  -3.4950000000000002E-002    -4.0905615390466600E-037
  -3.4900000000000000E-002    -5.6889475081156456E-037
  -3.4849999999999999E-002    -5.6695306249754451E-037
  -3.4799999999999998E-002    -2.5794966743193223E-037
  -3.4750000000000003E-002     4.6030798463984241E-037
  -3.4700000000000002E-002     1.5661636085013778E-036
  -3.4650000000000000E-002     2.8215295477773841E-036
  -3.4599999999999999E-002     3.7108665852797034E-036
  -3.4549999999999997E-002     3.4706541629475891E-036
  -3.4500000000000003E-002     1.3068038768475416E-036
  -3.4450000000000001E-002    -3.1776816018223403E-036
  -3.4400000000000000E-002    -9.4272889685166378E-036
  -3.4349999999999999E-002    -1.5518925183826683E-035
  -3.4299999999999997E-002    -1.8243572997888154E-035
  -3.4250000000000003E-002    -1.4035163208717785E-035
  -3.4200000000000001E-002    -7.6636807088570144E-037
  -3.4150000000000000E-002     2.0088004621484325E-035
  -3.4099999999999998E-002     4.2032313950772618E-035
  -3.4049999999999997E-002     5.4289592071633878E-035
  -3.4000000000000002E-002     4.5698291863717236E-035
  -3.3950000000000001E-002     1.1380545179617723E-035
  -3.3900000000000000E-002    -4.0312087441152745E-035
  -3.3849999999999998E-002    -8.4997626070153505E-035
  -3.3799999999999997E-002    -8.8330721177936521E-035
  -3.3750000000000002E-002    -2.2977715433896299E-035
  -3.3700000000000001E-002     1.0739184967977586E-034
  -3.3649999999999999E-002     2.4839447564532076E-034
  -3.3599999999999998E-002     2.9567876770042452E-034
  -3.3550000000000003E-002     1.2967439088764812E-034
  -3.3500000000000002E-002    -3.1546835073774273E-034
  -3.3450000000000001E-002    -9.7073308269861869E-034
  -3.3399999999999999E-002    -1.5828098184076167E-033
  -3.3349999999999998E-002    -1.7473889194538473E-033
  -3.3300000000000003E-002    -1.0545805867622777E-033
  -3.3250000000000002E-002     6.7758540995782546E-034
  -3.3200000000000000E-002     3.1748513506853051E-033
  -3.3149999999999999E-002     5.6256174061703413E-033
  -3.3099999999999997E-002     6.8731912213570986E-033
  -3.3050000000000003E-002     5.9002241110000198E-033
  -3.3000000000000002E-002     2.4441660635578887E-033
  -3.2950000000000000E-002    -2.5911717522947350E-033
  -3.2899999999999999E-002    -7.3085631725953825E-033
  -3.2850000000000004E-002    -9.7655092380009770E-033
  -3.2800000000000003E-002    -9.4504825721214541E-033
  -3.2750000000000001E-002    -8.5033027446950306E-033
  -3.2700000000000000E-002    -1.1566702625288994E-032
  -3.2649999999999998E-002    -2.3391373946070027E-032
  -3.2600000000000004E-002    -4.4316330812674984E-032
  -3.2550000000000003E-002    -6.5331364837208062E-032
  -3.2500000000000001E-002    -6.5931263330449752E-032
  -3.2450000000000000E-002    -1.8376353725557338E-032
  -3.2399999999999998E-002     9.9651250471915676E-032
  -3.2350000000000004E-002     2.8589039014779384E-031
  -3.2300000000000002E-002     4.9488388567544542E-031
  -3.2250000000000001E-002     6.3106626244074969E-031
  -3.2199999999999999E-002     5.6490788819391217E-031
  -3.2149999999999998E-002     1.7751971946303028E-031
  -3.2100000000000004E-002    -5.7286220390621554E-031
  -3.2050000000000002E-002    -1.5837199614533493E-030
  -3.2000000000000001E-002    -2.5725754814700884E-030
  -3.1949999999999999E-002    -3.1050805042890192E-030
  -3.1899999999999998E-002    -2.7039458225774792E-030
  -3.1850000000000003E-002    -1.0265742203570533E-030
  -3.1800000000000002E-002     1.9353083301845528E-030
  -3.1750000000000000E-002     5.7066419275511442E-030
  -3.1699999999999999E-002     9.3064855678087154E-030
  -3.1649999999999998E-002     1.1400999397000797E-029
  -3.1600000000000003E-002     1.0628887530744939E-029
  -3.1550000000000002E-002     6.0354532932710576E-030
  -3.1500000000000000E-002    -2.4951670677133371E-030
  -3.1449999999999999E-002    -1.3934093241238921E-029
  -3.1399999999999997E-002    -2.6029909796132962E-029
  -3.1350000000000003E-002    -3.5514203004812452E-029
  -3.1300000000000001E-002    -3.8597963117653814E-029
  -3.1250000000000000E-002    -3.1734664277392603E-029
  -3.1199999999999999E-002    -1.2606219064164447E-029
  -3.1150000000000001E-002     1.8748175535458873E-029
  -3.1100000000000003E-002     5.8829808361058812E-029
  -3.1050000000000001E-002     9.9929494516413653E-029
  -3.1000000000000000E-002     1.3022615978179367E-028
  -3.0949999999999998E-002     1.3530769008617174E-028
  -3.0900000000000000E-002     1.0150932627444705E-028
  -3.0850000000000002E-002     2.0928317707680082E-029
  -3.0800000000000001E-002    -1.0287952528956691E-028
  -3.0750000000000000E-002    -2.5043026266402373E-028
  -3.0699999999999998E-002    -3.8550904699308927E-028
  -3.0650000000000000E-002    -4.6014260905949488E-028
  -3.0600000000000002E-002    -4.2599978375755776E-028
  -3.0550000000000001E-002    -2.5048091151076480E-028
  -3.0499999999999999E-002     6.6818325328169630E-029
  -3.0449999999999998E-002     4.8320652995284106E-028
  -3.0400000000000000E-002     9.1308576315821998E-028
  -3.0350000000000002E-002     1.2418631713802033E-027
  -3.0300000000000001E-002     1.3515074282236309E-027
  -3.0249999999999999E-002     1.1509257443120973E-027
  -3.0200000000000001E-002     6.0188023623193528E-028
  -3.0150000000000000E-002    -2.6726140429777045E-028
  -3.0100000000000002E-002    -1.3620283955810799E-027
  -3.0050000000000000E-002    -2.5314527635661120E-027
  -2.9999999999999999E-002    -3.5769992735831888E-027
  -2.9950000000000001E-002    -4.2532941692753153E-027
  -2.9899999999999999E-002    -4.2638602371260979E-027
  -2.9850000000000002E-002    -3.2709174421210428E-027
  -2.9800000000000000E-002    -9.5065896698078970E-028
  -2.9749999999999999E-002     2.8771841978622822E-027
  -2.9700000000000001E-002     8.0429614628090701E-027
  -2.9650000000000003E-002     1.3790850303447492E-026
  -2.9600000000000001E-002     1.8618020713632330E-026
  -2.9550000000000000E-002     2.0333995295173368E-026
  -2.9499999999999998E-002     1.6472961312946394E-026
  -2.9450000000000000E-002     5.1043263070226049E-027
  -2.9400000000000003E-002    -1.4073916172175973E-026
  -2.9350000000000001E-002    -3.8669824808904972E-026
  -2.9300000000000000E-002    -6.3027410584038650E-026
  -2.9249999999999998E-002    -7.8646745081209056E-026
  -2.9200000000000000E-002    -7.5917493952491857E-026
  -2.9150000000000002E-002    -4.7103162735785469E-026
  -2.9100000000000001E-002     1.0012915126603828E-026
  -2.9049999999999999E-002     8.8916306571718079E-026
  -2.8999999999999998E-002     1.7295740173412534E-025
  -2.8950000000000000E-002     2.3697742223185920E-025
  -2.8900000000000002E-002     2.5252024772340406E-025
  -2.8850000000000001E-002     1.9608422344350448E-025
  -2.8799999999999999E-002     5.8603049781957802E-026
  -2.8749999999999998E-002    -1.4666217451029324E-025
  -2.8700000000000000E-002    -3.8095000020110135E-025
  -2.8650000000000002E-002    -5.8398962235920931E-025
  -2.8600000000000000E-002    -6.8590211737564769E-025
  -2.8549999999999999E-002    -6.2538472612703346E-025
  -2.8500000000000001E-002    -3.7016089315680013E-025
  -2.8450000000000000E-002     6.5938053277971979E-026
  -2.8400000000000002E-002     6.1505889096933651E-025
  -2.8350000000000000E-002     1.1607808329241835E-024
  -2.8299999999999999E-002     1.5580213368542468E-024
  -2.8250000000000001E-002     1.6645837683356483E-024
  -2.8200000000000003E-002     1.3779827228392690E-024
  -2.8150000000000001E-002     6.6902140404343258E-025
  -2.8100000000000000E-002    -3.9644872031636037E-025
  -2.8049999999999999E-002    -1.6540345325330397E-024
  -2.8000000000000001E-002    -2.8583207869460159E-024
  -2.7950000000000003E-002    -3.7199391416662727E-024
  -2.7900000000000001E-002    -3.9570792762048827E-024
  -2.7850000000000000E-002    -3.3540018567755541E-024
  -2.7799999999999998E-002    -1.8181627855036469E-024
  -2.7750000000000000E-002     5.7253271090662572E-025
  -2.7700000000000002E-002     3.5407866947692548E-024
  -2.7650000000000001E-002     6.6080125584956857E-024
  -2.7600000000000000E-002     9.1284981019727437E-024
  -2.7549999999999998E-002     1.0367527229632679E-023
  -2.7500000000000000E-002     9.6270280466021521E-024
  -2.7450000000000002E-002     6.4130837378622509E-024
  -2.7400000000000001E-002     6.2531270544616608E-025
  -2.7349999999999999E-002    -7.2691067437888363E-024
  -2.7299999999999998E-002    -1.6129315572974281E-023
  -2.7250000000000000E-002    -2.4161809436917199E-023
  -2.7200000000000002E-002    -2.9118894610858295E-023
  -2.7150000000000001E-002    -2.8696029758690917E-023
  -2.7099999999999999E-002    -2.1100940381491624E-023
  -2.7049999999999998E-002    -5.7068564425358098E-024
  -2.7000000000000000E-002     1.6357056377411980E-023
  -2.6950000000000002E-002     4.1863710463940570E-023
  -2.6900000000000000E-002     6.5579975693113178E-023
  -2.6849999999999999E-002     8.0924420327878562E-023
  -2.6800000000000001E-002     8.1213236173399567E-023
  -2.6749999999999999E-002     6.1362808894206963E-023
  -2.6700000000000002E-002     1.9747687580534135E-023
  -2.6650000000000000E-002    -4.0230975693823179E-023
  -2.6599999999999999E-002    -1.0938045680643653E-022
  -2.6550000000000001E-002    -1.7322117305743555E-022
  -2.6500000000000003E-002    -2.1403598897463134E-022
  -2.6450000000000001E-002    -2.1441298711641134E-022
  -2.6400000000000000E-002    -1.6181509723715739E-022
  -2.6349999999999998E-002    -5.3289389330180852E-023
  -2.6300000000000000E-002     1.0088073264952826E-022
  -2.6250000000000002E-002     2.7585795680195840E-022
  -2.6200000000000001E-002     4.3430539259359212E-022
  -2.6150000000000000E-002     5.3225720807870069E-022
  -2.6099999999999998E-002     5.2836444408942020E-022
  -2.6050000000000000E-002     3.9505715950542319E-022
  -2.6000000000000002E-002     1.2925207196044705E-022
  -2.5950000000000001E-002    -2.4028244602254596E-022
  -2.5899999999999999E-002    -6.5167873721520975E-022
  -2.5849999999999998E-002    -1.0167243672596345E-021
  -2.5800000000000000E-002    -1.2358972785936303E-021
  -2.5750000000000002E-002    -1.2198876319532710E-021
  -2.5700000000000001E-002    -9.1373790332759627E-022
  -2.5649999999999999E-002    -3.1819048559657423E-022
  -2.5599999999999998E-002     4.9762588360492855E-022
  -2.5550000000000000E-002     1.3971155579121100E-021
  -2.5500000000000002E-002     2.1933153333284031E-021
  -2.5450000000000000E-002     2.6813109622848076E-021
  -2.5399999999999999E-002     2.6813005753206248E-021
  -2.5349999999999998E-002     2.0843185826836022E-021
  -2.5300000000000000E-002     8.9072686789767044E-022
  -2.5250000000000002E-002    -7.6831166261000317E-022
  -2.5200000000000000E-002    -2.6338399962671815E-021
  -2.5149999999999999E-002    -4.3498087198083712E-021
  -2.5100000000000001E-002    -5.5193573267803706E-021
  -2.5049999999999999E-002    -5.7791152454256041E-021
  -2.5000000000000001E-002    -4.8795737690212469E-021
  -2.4950000000000000E-002    -2.7570191272017499E-021
  -2.4899999999999999E-002     4.1768185936414834E-022
  -2.4850000000000001E-002     4.2260120202687546E-021
  -2.4800000000000003E-002     8.0327823922145708E-021
  -2.4750000000000001E-002     1.1063670644495353E-020
  -2.4700000000000000E-002     1.2524879910731446E-020
  -2.4649999999999998E-002     1.1752905576984889E-020
  -2.4600000000000000E-002     8.3747086353052068E-021
  -2.4550000000000002E-002     2.4517516764003433E-021
  -2.4500000000000001E-002    -5.4234195484365012E-021
  -2.4450000000000000E-002    -1.4110097876680068E-020
  -2.4399999999999998E-002    -2.2008580988928476E-020
  -2.4350000000000000E-002    -2.7269180975786706E-020
  -2.4299999999999999E-002    -2.8113446616729409E-020
  -2.4250000000000001E-002    -2.3232360200693263E-020
  -2.4199999999999999E-002    -1.2196729676334969E-020
  -2.4150000000000001E-002     4.2089795950971865E-021
  -2.4100000000000000E-002     2.3828899262230840E-020
  -2.4049999999999998E-002     4.3242736641497240E-020
  -2.4000000000000000E-002     5.8189326609613901E-020
  -2.3949999999999999E-002     6.4297780356313657E-020
  -2.3900000000000001E-002     5.8039754260655586E-020
  -2.3850000000000000E-002     3.7738688005477610E-020
  -2.3800000000000002E-002     4.4135276633210603E-021
  -2.3750000000000000E-002    -3.7784095755630575E-020
  -2.3699999999999999E-002    -8.1743766375990205E-020
  -2.3650000000000001E-002    -1.1828969068463822E-019
  -2.3599999999999999E-002    -1.3775629586739479E-019
  -2.3550000000000001E-002    -1.3203782063190526E-019
  -2.3500000000000000E-002    -9.6745109264012114E-020
  -2.3449999999999999E-002    -3.2997043642032123E-020
  -2.3400000000000001E-002     5.1640918761542382E-020
  -2.3349999999999999E-002     1.4346196163209797E-019
  -2.3300000000000001E-002     2.2435011060754615E-019
  -2.3250000000000000E-002     2.7483251554175468E-019
  -2.3199999999999998E-002     2.7802624001147276E-019
  -2.3150000000000000E-002     2.2377504404659194E-019
  -2.3099999999999999E-002     1.1210331453957771E-019
  -2.3050000000000001E-002    -4.4884878397991690E-020
  -2.3000000000000000E-002    -2.2334170895047507E-019
  -2.2950000000000002E-002    -3.9055154894764460E-019
  -2.2900000000000000E-002    -5.1015693763126418E-019
  -2.2849999999999999E-002    -5.4901670554255638E-019
  -2.2800000000000001E-002    -4.8452778842455008E-019
  -2.2749999999999999E-002    -3.1097943503255946E-019
  -2.2700000000000001E-002    -4.3505244790740775E-020
  -2.2650000000000000E-002     2.8151116354829958E-019
  -2.2599999999999999E-002     6.1016493065314216E-019
  -2.2550000000000001E-002     8.7874645800218326E-019
  -2.2499999999999999E-002     1.0245101537123634E-018
  -2.2450000000000001E-002     9.9786666346718602E-019
  -2.2400000000000000E-002     7.7390519057640408E-019
  -2.2349999999999998E-002     3.6102752677545512E-019
  -2.2300000000000000E-002    -1.9527810789557130E-019
  -2.2249999999999999E-002    -8.1487410451328702E-019
  -2.2200000000000001E-002    -1.3920751804142972E-018
  -2.2150000000000000E-002    -1.8107858589700303E-018
  -2.2100000000000002E-002    -1.9639551323879923E-018
  -2.2050000000000000E-002    -1.7746629692424433E-018
  -2.1999999999999999E-002    -1.2154694071524771E-018
  -2.1950000000000001E-002    -3.2238486195746470E-019
  -2.1899999999999999E-002     7.9994593601464395E-019
  -2.1850000000000001E-002     1.9844250419570681E-018
  -2.1800000000000000E-002     3.0202185573995784E-018
  -2.1749999999999999E-002     3.6832518701939717E-018
  -2.1700000000000001E-002     3.7754413343950724E-018
  -2.1649999999999999E-002     3.1673149060436714E-018
  -2.1600000000000001E-002     1.8367478058457344E-018
  -2.1550000000000000E-002    -1.0449563577183607E-019
  -2.1499999999999998E-002    -2.4043913165714388E-018
  -2.1450000000000000E-002    -4.6903451708053711E-018
  -2.1399999999999999E-002    -6.5170150537705070E-018
  -2.1350000000000001E-002    -7.4390038827420817E-018
  -2.1299999999999999E-002    -7.0992135154776469E-018
  -2.1250000000000002E-002    -5.3181461141749312E-018
  -2.1200000000000000E-002    -2.1658610279765521E-018
  -2.1149999999999999E-002     2.0021274019029008E-018
  -2.1100000000000001E-002     6.5601195371565119E-018
  -2.1049999999999999E-002     1.0685966457795937E-017
  -2.1000000000000001E-002     1.3489534967733579E-017
  -2.0950000000000000E-002     1.4179614300935734E-017
  -2.0899999999999998E-002     1.2241555653304298E-017
  -2.0850000000000000E-002     7.5904392675341983E-018
  -2.0799999999999999E-002     6.6345489142336206E-019
  -2.0750000000000001E-002    -7.5782464229825128E-018
  -2.0700000000000000E-002    -1.5753755728413504E-017
  -2.0649999999999998E-002    -2.2268340206261886E-017
  -2.0600000000000000E-002    -2.5594825990558890E-017
  -2.0549999999999999E-002    -2.4584566721767800E-017
  -2.0500000000000001E-002    -1.8749522550357511E-017
  -2.0449999999999999E-002    -8.4548532077617968E-018
  -2.0400000000000001E-002     5.0282515414483214E-018
  -2.0350000000000000E-002     1.9638197520858821E-017
  -2.0299999999999999E-002     3.2805708638317941E-017
  -2.0250000000000001E-002     4.1869470124373412E-017
  -2.0199999999999999E-002     4.4561269447541180E-017
  -2.0150000000000001E-002     3.9477357629240670E-017
  -2.0100000000000000E-002     2.6447165663441595E-017
  -2.0049999999999998E-002     6.7208875191893637E-018
  -2.0000000000000000E-002    -1.7076765503556357E-017
  -1.9949999999999999E-002    -4.1242807512878338E-017
  -1.9900000000000001E-002    -6.1515975484849970E-017
  -1.9850000000000000E-002    -7.3753926818995262E-017
  -1.9799999999999998E-002    -7.4669000110922246E-017
  -1.9750000000000000E-002    -6.2505528444750392E-017
  -1.9699999999999999E-002    -3.7540403364253048E-017
  -1.9650000000000001E-002    -2.3051468619610593E-018
  -1.9599999999999999E-002     3.8539653720618864E-017
  -1.9550000000000001E-002     7.8700184779745727E-017
  -1.9500000000000000E-002     1.1108480545824545E-016
  -1.9449999999999999E-002     1.2889141537293158E-016
  -1.9400000000000001E-002     1.2680811777475471E-016
  -1.9349999999999999E-002     1.0214894645040472E-016
  -1.9300000000000001E-002     5.5727152288848205E-017
  -1.9250000000000000E-002    -7.7241373647238145E-018
  -1.9199999999999998E-002    -7.9734100232147286E-017
  -1.9150000000000000E-002    -1.4895681638616000E-016
  -1.9099999999999999E-002    -2.0268900987034669E-016
  -1.9050000000000001E-002    -2.2889657671424815E-016
  -1.9000000000000000E-002    -2.1848189898691387E-016
  -1.8949999999999998E-002    -1.6742435753301991E-016
  -1.8900000000000000E-002    -7.8375479316422373E-017
  -1.8849999999999999E-002     3.8691202656412356E-017
  -1.8800000000000001E-002     1.6707458486130539E-016
  -1.8749999999999999E-002     2.8530075505691166E-016
  -1.8700000000000001E-002     3.7031075358923957E-016
  -1.8650000000000000E-002     4.0148809637963873E-016
  -1.8599999999999998E-002     3.6489517571555971E-016
  -1.8550000000000001E-002     2.5693335428186679E-016
  -1.8499999999999999E-002     8.6621796767553977E-017
  -1.8450000000000001E-002    -1.2416991211149125E-016
  -1.8400000000000000E-002    -3.4289984495668852E-016
  -1.8349999999999998E-002    -5.3088386185608662E-016
  -1.8300000000000000E-002    -6.4964411134486830E-016
  -1.8249999999999999E-002    -6.6810451126630706E-016
  -1.8200000000000001E-002    -5.6936204481466963E-016
  -1.8149999999999999E-002    -3.5567821657032133E-016
  -1.8100000000000002E-002    -5.0512104505291839E-017
  -1.8050000000000000E-002     3.0314881962703763E-016
  -1.7999999999999999E-002     6.4827521582701695E-016
  -1.7950000000000001E-002     9.2249507174926553E-016
  -1.7899999999999999E-002     1.0687299181783272E-015
  -1.7850000000000001E-002     1.0460048576134456E-015
  -1.7800000000000000E-002     8.3847750731941063E-016
  -1.7749999999999998E-002     4.6089045966276886E-016
  -1.7700000000000000E-002    -4.0840085632803780E-017
  -1.7649999999999999E-002    -5.9442040331203885E-016
  -1.7600000000000001E-002    -1.1109651688141875E-015
  -1.7550000000000000E-002    -1.4984924322050658E-015
  -1.7499999999999998E-002    -1.6771359271935621E-015
  -1.7450000000000000E-002    -1.5936762882731513E-015
  -1.7399999999999999E-002    -1.2329666741275772E-015
  -1.7350000000000001E-002    -6.2417516753240986E-016
  -1.7299999999999999E-002     1.5954177917333264E-016
  -1.7250000000000001E-002     1.0084112544398558E-015
  -1.7200000000000000E-002     1.7899135129653771E-015
  -1.7149999999999999E-002     2.3676149256331261E-015
  -1.7100000000000001E-002     2.6225783371280276E-015
  -1.7049999999999999E-002     2.4743872473334577E-015
  -1.7000000000000001E-002     1.8985644238138441E-015
  -1.6950000000000000E-002     9.3731300756741299E-016
  -1.6899999999999998E-002    -2.9891321870522847E-016
  -1.6850000000000000E-002    -1.6404888332493987E-015
  -1.6799999999999999E-002    -2.8784384056642341E-015
  -1.6750000000000001E-002    -3.7934451379490763E-015
  -1.6700000000000000E-002    -4.1907460640514638E-015
  -1.6649999999999998E-002    -3.9360865309595446E-015
  -1.6600000000000000E-002    -2.9868613411585230E-015
  -1.6549999999999999E-002    -1.4123463176753066E-015
  -1.6500000000000001E-002     6.0226552968296966E-016
  -1.6449999999999999E-002     2.7713512910330797E-015
  -1.6400000000000001E-002     4.7442597498027835E-015
  -1.6350000000000000E-002     6.1574167087590322E-015
  -1.6299999999999999E-002     6.6963091923648593E-015
  -1.6250000000000001E-002     6.1575382495265310E-015
  -1.6199999999999999E-002     4.4995968607517874E-015
  -1.6150000000000001E-002     1.8713828413828222E-015
  -1.6100000000000000E-002    -1.3898957059578088E-015
  -1.6049999999999998E-002    -4.7951790302477569E-015
  -1.6000000000000000E-002    -7.7720662225749887E-015
  -1.5949999999999999E-002    -9.7567274617777453E-015
  -1.5900000000000001E-002    -1.0295012005159630E-014
  -1.5850000000000000E-002    -9.1351625751059664E-015
  -1.5799999999999998E-002    -6.2941707326757430E-015
  -1.5750000000000000E-002    -2.0828371449280956E-015
  -1.5699999999999999E-002     2.9191380110354453E-015
  -1.5650000000000001E-002     7.9382512235790506E-015
  -1.5599999999999999E-002     1.2123449787964450E-014
  -1.5550000000000001E-002     1.4686229766090362E-014
  -1.5500000000000000E-002     1.5041611978432838E-014
  -1.5449999999999998E-002     1.2925270249825851E-014
  -1.5400000000000000E-002     8.4647067457188574E-015
  -1.5349999999999999E-002     2.1891130745516249E-015
  -1.5300000000000001E-002    -5.0275745249464037E-015
  -1.5250000000000000E-002    -1.2084862154774086E-014
  -1.5199999999999998E-002    -1.7818900498964850E-014
  -1.5150000000000000E-002    -2.1186496852771635E-014
  -1.5099999999999999E-002    -2.1441344298766975E-014
  -1.5050000000000001E-002    -1.8274218715350231E-014
  -1.4999999999999999E-002    -1.1893491750025308E-014
  -1.4949999999999998E-002    -3.0306679311411098E-015
  -1.4900000000000000E-002     7.1337601289065253E-015
  -1.4849999999999999E-002     1.7117458315650199E-014
  -1.4800000000000001E-002     2.5339175688699652E-014
  -1.4749999999999999E-002     3.0351585248947995E-014
  -1.4700000000000001E-002     3.1072774625335195E-014
  -1.4650000000000000E-002     2.6983141591456149E-014
  -1.4599999999999998E-002     1.8256605711564513E-014
  -1.4550000000000000E-002     5.8010774990807432E-015
  -1.4499999999999999E-002    -8.8070042548815381E-015
  -1.4450000000000001E-002    -2.3496273155515499E-014
  -1.4400000000000000E-002    -3.5969000703398543E-014
  -1.4349999999999998E-002    -4.4035688934056373E-014
  -1.4300000000000000E-002    -4.5972415595028977E-014
  -1.4249999999999999E-002    -4.0847487676703642E-014
  -1.4200000000000001E-002    -2.8760595094568395E-014
  -1.4149999999999999E-002    -1.0943255379516668E-014
  -1.4099999999999998E-002     1.0315188117993942E-014
  -1.4050000000000000E-002     3.1927244946346212E-014
  -1.3999999999999999E-002     5.0432862253710928E-014
  -1.3950000000000001E-002     6.2538801725639812E-014
  -1.3899999999999999E-002     6.5691679634125703E-014
  -1.3850000000000001E-002     5.8587413499234939E-014
  -1.3800000000000000E-002     4.1518791918903281E-014
  -1.3749999999999998E-002     1.6479997309301203E-014
  -1.3700000000000000E-002    -1.3017336282445189E-014
  -1.3649999999999999E-002    -4.2413899482946835E-014
  -1.3600000000000001E-002    -6.6801936911857834E-014
  -1.3550000000000000E-002    -8.1749136372527720E-014
  -1.3499999999999998E-002    -8.4109122287753059E-014
  -1.3450000000000000E-002    -7.2670647138055200E-014
  -1.3399999999999999E-002    -4.8514758951770402E-014
  -1.3350000000000001E-002    -1.4993622735196666E-014
  -1.3299999999999999E-002     2.2692987025474200E-014
  -1.3249999999999998E-002     5.8274664279217665E-014
  -1.3200000000000000E-002     8.5425935719609900E-014
  -1.3149999999999998E-002     9.8855755012487436E-014
  -1.3100000000000001E-002     9.5285456993375456E-014
  -1.3049999999999999E-002     7.4141031765748540E-014
  -1.3000000000000001E-002     3.7828539108229513E-014
  -1.2950000000000000E-002    -8.4719614693515779E-015
  -1.2899999999999998E-002    -5.7479483130422964E-014
  -1.2850000000000000E-002    -1.0086102310828259E-013
  -1.2799999999999999E-002    -1.3050308289840623E-013