  -4.0000000000000001E-002     0.0000000000000000     
  -3.9949999999999999E-002     0.0000000000000000     
  -3.9899999999999998E-002     0.0000000000000000     
  -3.9850000000000003E-002     0.0000000000000000     
  -3.9800000000000002E-002     0.0000000000000000     
  -3.9750000000000001E-002     0.0000000000000000     
  -3.9699999999999999E-002     0.0000000000000000     
  -3.9649999999999998E-002     0.0000000000000000     
  -3.9600000000000003E-002     0.0000000000000000     
  -3.9550000000000002E-002     0.0000000000000000     
  -3.9500000000000000E-002     0.0000000000000000     
  -3.9449999999999999E-002     0.0000000000000000     
  -3.9399999999999998E-002     0.0000000000000000     
  -3.9350000000000003E-002     0.0000000000000000     
  -3.9300000000000002E-002     0.0000000000000000     
  -3.9250000000000000E-002     0.0000000000000000     
  -3.9199999999999999E-002     0.0000000000000000     
  -3.9150000000000004E-002     0.0000000000000000     
  -3.9100000000000003E-002     0.0000000000000000     
  -3.9050000000000001E-002     0.0000000000000000     
  -3.9000000000000000E-002     0.0000000000000000     
  -3.8949999999999999E-002     0.0000000000000000     
  -3.8900000000000004E-002     0.0000000000000000     
  -3.8850000000000003E-002     0.0000000000000000     
  -3.8800000000000001E-002     0.0000000000000000     
  -3.8750000000000000E-002     0.0000000000000000     
  -3.8699999999999998E-002     0.0000000000000000     
  -3.8650000000000004E-002     0.0000000000000000     
  -3.8600000000000002E-002     0.0000000000000000     
  -3.8550000000000001E-002     0.0000000000000000     
  -3.8500000000000000E-002     0.0000000000000000     
  -3.8449999999999998E-002     0.0000000000000000     
  -3.8400000000000004E-002     0.0000000000000000     
  -3.8350000000000002E-002     0.0000000000000000     
  -3.8300000000000001E-002     0.0000000000000000     
  -3.8249999999999999E-002     0.0000000000000000     
  -3.8199999999999998E-002     0.0000000000000000     
  -3.8150000000000003E-002     0.0000000000000000     
  -3.8100000000000002E-002     0.0000000000000000     
  -3.8050000000000000E-002     0.0000000000000000     
  -3.7999999999999999E-002     0.0000000000000000     
  -3.7949999999999998E-002     0.0000000000000000     
  -3.7900000000000003E-002     0.0000000000000000     
  -3.7850000000000002E-002     0.0000000000000000     
  -3.7800000000000000E-002     0.0000000000000000     
  -3.7749999999999999E-002     0.0000000000000000     
  -3.7699999999999997E-002     0.0000000000000000     
  -3.7650000000000003E-002     0.0000000000000000     
  -3.7600000000000001E-002     0.0000000000000000     
  -3.7550000000000000E-002     0.0000000000000000     
  -3.7499999999999999E-002     0.0000000000000000     
  -3.7449999999999997E-002     0.0000000000000000     
  -3.7400000000000003E-002     0.0000000000000000     
  -3.7350000000000001E-002     0.0000000000000000     
  -3.7300000000000000E-002     0.0000000000000000     
  -3.7249999999999998E-002     0.0000000000000000     
  -3.7200000000000004E-002     0.0000000000000000     
  -3.7150000000000002E-002     0.0000000000000000     
  -3.7100000000000001E-002     0.0000000000000000     
  -3.7050000000000000E-002     0.0000000000000000     
  -3.6999999999999998E-002     0.0000000000000000     
  -3.6950000000000004E-002     0.0000000000000000     
  -3.6900000000000002E-002     0.0000000000000000     
  -3.6850000000000001E-002     0.0000000000000000     
  -3.6799999999999999E-002     0.0000000000000000     
  -3.6749999999999998E-002     0.0000000000000000     
  -3.6700000000000003E-002     0.0000000000000000     
  -3.6650000000000002E-002     0.0000000000000000     
  -3.6600000000000001E-002     0.0000000000000000     
  -3.6549999999999999E-002     0.0000000000000000     
  -3.6499999999999998E-002     0.0000000000000000     
  -3.6450000000000003E-002     0.0000000000000000     
  -3.6400000000000002E-002     0.0000000000000000     
  -3.6350000000000000E-002     0.0000000000000000     
  -3.6299999999999999E-002     0.0000000000000000     
  -3.6249999999999998E-002     0.0000000000000000     
  -3.6200000000000003E-002     0.0000000000000000     
  -3.6150000000000002E-002     0.0000000000000000     
  -3.6100000000000000E-002     0.0000000000000000     
  -3.6049999999999999E-002     0.0000000000000000     
  -3.6000000000000004E-002     0.0000000000000000     
  -3.5950000000000003E-002     0.0000000000000000     
  -3.5900000000000001E-002     0.0000000000000000     
  -3.5850000000000000E-002     0.0000000000000000     
  -3.5799999999999998E-002     0.0000000000000000     
  -3.5750000000000004E-002     0.0000000000000000     
  -3.5700000000000003E-002     0.0000000000000000     
  -3.5650000000000001E-002     0.0000000000000000     
  -3.5600000000000000E-002     0.0000000000000000     
  -3.5549999999999998E-002     0.0000000000000000     
  -3.5500000000000004E-002     0.0000000000000000     
  -3.5450000000000002E-002     0.0000000000000000     
  -3.5400000000000001E-002     0.0000000000000000     
  -3.5349999999999999E-002     0.0000000000000000     
  -3.5299999999999998E-002     0.0000000000000000     
  -3.5250000000000004E-002     0.0000000000000000     
  -3.5200000000000002E-002     0.0000000000000000     
  -3.5150000000000001E-002     0.0000000000000000     
  -3.5099999999999999E-002     0.0000000000000000     
  -3.5049999999999998E-002     0.0000000000000000     
  -3.5000000000000003E-002     0.0000000000000000     
  -3.4950000000000002E-002     0.0000000000000000     
  -3.4900000000000000E-002     0.0000000000000000     
  -3.4849999999999999E-002     0.0000000000000000     
  -3.4799999999999998E-002     0.0000000000000000     
  -3.4750000000000003E-002     0.0000000000000000     
  -3.4700000000000002E-002     0.0000000000000000     
  -3.4650000000000000E-002     0.0000000000000000     
  -3.4599999999999999E-002     0.0000000000000000     
  -3.4549999999999997E-002     0.0000000000000000     
  -3.4500000000000003E-002     0.0000000000000000     
  -3.4450000000000001E-002     0.0000000000000000     
  -3.4400000000000000E-002     0.0000000000000000     
  -3.4349999999999999E-002     0.0000000000000000     
  -3.4299999999999997E-002     0.0000000000000000     
  -3.4250000000000003E-002     0.0000000000000000     
  -3.4200000000000001E-002     0.0000000000000000     
  -3.4150000000000000E-002     0.0000000000000000     
  -3.4099999999999998E-002     0.0000000000000000     
  -3.4049999999999997E-002     0.0000000000000000     
  -3.4000000000000002E-002     0.0000000000000000     
  -3.3950000000000001E-002     0.0000000000000000     
  -3.3900000000000000E-002     0.0000000000000000     
  -3.3849999999999998E-002     0.0000000000000000     
  -3.3799999999999997E-002     0.0000000000000000     
  -3.3750000000000002E-002     0.0000000000000000     
  -3.3700000000000001E-002     0.0000000000000000     
  -3.3649999999999999E-002     0.0000000000000000     
  -3.3599999999999998E-002     0.0000000000000000     
  -3.3550000000000003E-002     0.0000000000000000     
  -3.3500000000000002E-002     0.0000000000000000     
  -3.3450000000000001E-002     0.0000000000000000     
  -3.3399999999999999E-002     0.0000000000000000     
  -3.3349999999999998E-002     0.0000000000000000     
  -3.3300000000000003E-002     0.0000000000000000     
  -3.3250000000000002E-002     0.0000000000000000     
  -3.3200000000000000E-002     0.0000000000000000     
  -3.3149999999999999E-002     0.0000000000000000     
  -3.3099999999999997E-002     0.0000000000000000     
  -3.3050000000000003E-002     0.0000000000000000     
  -3.3000000000000002E-002     0.0000000000000000     
  -3.2950000000000000E-002     0.0000000000000000     
  -3.2899999999999999E-002     0.0000000000000000     
  -3.2850000000000004E-002     0.0000000000000000     
  -3.2800000000000003E-002     0.0000000000000000     
  -3.2750000000000001E-002     0.0000000000000000     
  -3.2700000000000000E-002     0.0000000000000000     
  -3.2649999999999998E-002     0.0000000000000000     
  -3.2600000000000004E-002     0.0000000000000000     
  -3.2550000000000003E-002     0.0000000000000000     
  -3.2500000000000001E-002     0.0000000000000000     
  -3.2450000000000000E-002     0.0000000000000000     
  -3.2399999999999998E-002     0.0000000000000000     
  -3.2350000000000004E-002     0.0000000000000000     
  -3.2300000000000002E-002     0.0000000000000000     
  -3.2250000000000001E-002     0.0000000000000000     
  -3.2199999999999999E-002     0.0000000000000000     
  -3.2149999999999998E-002     0.0000000000000000     
  -3.2100000000000004E-002     0.0000000000000000     
  -3.2050000000000002E-002     0.0000000000000000     
  -3.2000000000000001E-002     0.0000000000000000     
  -3.1949999999999999E-002     0.0000000000000000     
  -3.1899999999999998E-002     0.0000000000000000     
  -3.1850000000000003E-002     0.0000000000000000     
  -3.1800000000000002E-002     0.0000000000000000     
  -3.1750000000000000E-002     0.0000000000000000     
  -3.1699999999999999E-002     0.0000000000000000     
  -3.1649999999999998E-002     0.0000000000000000     
  -3.1600000000000003E-002     0.0000000000000000     
  -3.1550000000000002E-002     0.0000000000000000     
  -3.1500000000000000E-002     0.0000000000000000     
  -3.1449999999999999E-002     0.0000000000000000     
  -3.1399999999999997E-002     0.0000000000000000     
  -3.1350000000000003E-002     0.0000000000000000     
  -3.1300000000000001E-002     0.0000000000000000     
  -3.1250000000000000E-002     0.0000000000000000     
  -3.1199999999999999E-002     0.0000000000000000     
  -3.1150000000000001E-002     0.0000000000000000     
  -3.1100000000000003E-002     0.0000000000000000     
  -3.1050000000000001E-002     0.0000000000000000     
  -3.1000000000000000E-002     0.0000000000000000     
  -3.0949999999999998E-002     0.0000000000000000     
  -3.0900000000000000E-002     0.0000000000000000     
  -3.0850000000000002E-002     0.0000000000000000     
  -3.0800000000000001E-002     0.0000000000000000     
  -3.0750000000000000E-002     0.0000000000000000     
  -3.0699999999999998E-002     0.0000000000000000     
  -3.0650000000000000E-002     0.0000000000000000     
  -3.0600000000000002E-002     0.0000000000000000     
  -3.0550000000000001E-002     0.0000000000000000     
  -3.0499999999999999E-002     0.0000000000000000     
  -3.0449999999999998E-002     0.0000000000000000     
  -3.0400000000000000E-002     0.0000000000000000     
  -3.0350000000000002E-002     0.0000000000000000     
  -3.0300000000000001E-002     0.0000000000000000     
  -3.0249999999999999E-002     0.0000000000000000     
  -3.0200000000000001E-002     0.0000000000000000     
  -3.0150000000000000E-002     0.0000000000000000     
  -3.0100000000000002E-002     0.0000000000000000     
  -3.0050000000000000E-002     0.0000000000000000     
  -2.9999999999999999E-002     0.0000000000000000     
  -2.9950000000000001E-002     0.0000000000000000     
  -2.9899999999999999E-002     0.0000000000000000     
  -2.9850000000000002E-002     0.0000000000000000     
  -2.9800000000000000E-002     0.0000000000000000     
  -2.9749999999999999E-002     0.0000000000000000     
  -2.9700000000000001E-002     0.0000000000000000     
  -2.9650000000000003E-002     0.0000000000000000     
  -2.9600000000000001E-002     0.0000000000000000     
  -2.9550000000000000E-002     0.0000000000000000     
  -2.9499999999999998E-002     0.0000000000000000     
  -2.9450000000000000E-002     0.0000000000000000     
  -2.9400000000000003E-002     0.0000000000000000     
  -2.9350000000000001E-002     0.0000000000000000     
  -2.9300000000000000E-002     0.0000000000000000     
  -2.9249999999999998E-002     0.0000000000000000     
  -2.9200000000000000E-002     0.0000000000000000     
  -2.9150000000000002E-002     0.0000000000000000     
  -2.9100000000000001E-002     0.0000000000000000     
  -2.9049999999999999E-002     0.0000000000000000     
  -2.8999999999999998E-002     0.0000000000000000     
  -2.8950000000000000E-002     0.0000000000000000     
  -2.8900000000000002E-002     0.0000000000000000     
  -2.8850000000000001E-002     0.0000000000000000     
  -2.8799999999999999E-002     0.0000000000000000     
  -2.8749999999999998E-002     6.3166177726176163E-040
  -2.8700000000000000E-002     1.4349309103974693E-039
  -2.8650000000000002E-002     9.6541928563291101E-040
  -2.8600000000000000E-002    -7.8104311107061850E-040
  -2.8549999999999999E-002    -3.9812000821815555E-039
  -2.8500000000000001E-002    -7.1554965530341545E-039
  -2.8450000000000000E-002    -7.9592139233418646E-039
  -2.8400000000000002E-002    -4.3422406050333969E-039
  -2.8350000000000000E-002     5.9810031368160693E-039
  -2.8299999999999999E-002     1.9718382793391015E-038
  -2.8250000000000001E-002     3.0590183999225199E-038
  -2.8200000000000003E-002     4.0627916888520842E-038
  -2.8150000000000001E-002     2.9199920218627300E-038
  -2.8100000000000000E-002     6.9469100866805707E-040
  -2.8049999999999999E-002    -5.4616062207009610E-038
  -2.8000000000000001E-002    -9.5947312560750403E-038
  -2.7950000000000003E-002    -1.2421851307818355E-037
  -2.7900000000000001E-002    -1.2009531832113205E-037
  -2.7850000000000000E-002    -8.0277232172098197E-038
  -2.7799999999999998E-002     1.9016344195918440E-038
  -2.7750000000000000E-002     1.4719100601548504E-037
  -2.7700000000000002E-002     2.8195210775847317E-037
  -2.7650000000000001E-002     3.7268788537160557E-037
  -2.7600000000000000E-002     3.8610316212678414E-037
  -2.7549999999999998E-002     3.0407398997679113E-037
  -2.7500000000000000E-002     1.1696476156938764E-037
  -2.7450000000000002E-002    -1.5831220899243445E-037
  -2.7400000000000001E-002    -4.7860758889707735E-037
  -2.7349999999999999E-002    -7.9285550219071410E-037
  -2.7299999999999998E-002    -1.0540683595085986E-036
  -2.7250000000000000E-002    -1.2135657889358954E-036
  -2.7200000000000002E-002    -1.1996002370282824E-036
  -2.7150000000000001E-002    -8.9418015934363637E-037
  -2.7099999999999999E-002    -1.2944262824115358E-037
  -2.7049999999999998E-002     1.2635998069920905E-036
  -2.7000000000000000E-002     3.3241400799411368E-036
  -2.6950000000000002E-002     5.7752041859840949E-036
  -2.6900000000000000E-002     7.8630765889858810E-036
  -2.6849999999999999E-002     8.3470486311989661E-036
  -2.6800000000000001E-002     5.7526128507864311E-036
  -2.6749999999999999E-002    -1.0597898458418409E-036
  -2.6700000000000002E-002    -1.2091994800867099E-035
  -2.6650000000000000E-002    -2.5431763880175904E-035
  -2.6599999999999999E-002    -3.6891815577570033E-035
  -2.6550000000000001E-002    -4.0484019960176562E-035
  -2.6500000000000003E-002    -2.9992799038924309E-035
  -2.6450000000000001E-002    -1.5447031244993121E-036
  -2.6400000000000000E-002     4.3427461300255527E-035
  -2.6349999999999998E-002     9.5925938013207783E-035
  -2.6300000000000000E-002     1.3916644721494395E-034
  -2.6250000000000002E-002     1.5150119043230761E-034
  -2.6200000000000001E-002     1.1277187545619784E-034
  -2.6150000000000000E-002     1.3061681430124812E-035
  -2.6099999999999998E-002    -1.3865286751397878E-034
  -2.6050000000000000E-002    -3.0950404962765855E-034
  -2.6000000000000002E-002    -4.4495893565501685E-034
  -2.5950000000000001E-002    -4.8038883556011366E-034
  -2.5899999999999999E-002    -3.6120013838311626E-034
  -2.5849999999999998E-002    -6.7038247811241400E-035
  -2.5800000000000000E-002     3.6770603137436000E-034
  -2.5750000000000002E-002     8.4621354779497210E-034
  -2.5700000000000001E-002     1.2216979236816747E-033
  -2.5649999999999999E-002     1.3320283719361342E-033
  -2.5599999999999998E-002     1.0507483998975540E-033
  -2.5550000000000000E-002     3.4083312548396196E-034
  -2.5500000000000002E-002    -7.0731656863819502E-034
  -2.5450000000000000E-002    -1.8711336252020499E-033
  -2.5399999999999999E-002    -2.8338567096860861E-033
  -2.5349999999999998E-002    -3.2611314383786640E-033
  -2.5300000000000000E-002    -2.8973395357834764E-033
  -2.5250000000000002E-002    -1.6525176526868557E-033
  -2.5200000000000000E-002     3.4964252938419888E-034
  -2.5149999999999999E-002     2.7806765099209930E-033
  -2.5100000000000001E-002     5.1705932027552971E-033
  -2.5049999999999999E-002     7.0015995159017439E-033
  -2.5000000000000001E-002     7.7966913569922194E-033
  -2.4950000000000000E-002     7.1738144676009664E-033
  -2.4899999999999999E-002     4.8616660353230740E-033
  -2.4850000000000001E-002     7.0807091561069614E-034
  -2.4800000000000003E-002    -5.2627805190516079E-033
  -2.4750000000000001E-002    -1.2693913367133453E-032
  -2.4700000000000000E-002    -2.0640433228046644E-032
  -2.4649999999999998E-002    -2.7305613951361592E-032
  -2.4600000000000000E-002    -2.9954073707558630E-032
  -2.4550000000000002E-002    -2.5236976898772135E-032
  -2.4500000000000001E-002    -1.0109214859748977E-032
  -2.4450000000000000E-002     1.6672811781898805E-032
  -2.4399999999999998E-002     5.2791494258646398E-032
  -2.4350000000000000E-002     9.0998498474871565E-032
  -2.4299999999999999E-002     1.1899871909930101E-031
  -2.4250000000000001E-002     1.2137551402112707E-031
  -2.4199999999999999E-002     8.3872564912136119E-032
  -2.4150000000000001E-002    -5.0472273743073322E-034
  -2.4100000000000000E-002    -1.2514134047599636E-031
  -2.4049999999999998E-002    -2.6564967399405014E-031
  -2.4000000000000000E-002    -3.8055931953527614E-031
  -2.3949999999999999E-002    -4.1877885874863963E-031
  -2.3900000000000001E-002    -3.3391074889574487E-031
  -2.3850000000000000E-002    -1.0287908047889183E-031
  -2.3800000000000002E-002     2.5633582413192453E-031
  -2.3750000000000000E-002     6.7473927333532177E-031
  -2.3699999999999999E-002     1.0367002202021380E-030
  -2.3650000000000001E-002     1.2023191756835007E-030
  -2.3599999999999999E-002     1.0461730931372890E-030
  -2.3550000000000001E-002     5.0439820684472167E-031
  -2.3500000000000000E-002    -3.8348976297229816E-031
  -2.3449999999999999E-002    -1.4540283195077357E-030
  -2.3400000000000001E-002    -2.4338899860997073E-030
  -2.3349999999999999E-002    -2.9939698447089206E-030
  -2.3300000000000001E-002    -2.8367421621598207E-030
  -2.3250000000000000E-002    -1.7972696066345040E-030
  -2.3199999999999998E-002     7.1110962611260970E-032
  -2.3150000000000000E-002     2.4571440226799532E-030
  -2.3099999999999999E-002     4.8206496211821870E-030
  -2.3050000000000001E-002     6.4955791854707036E-030
  -2.3000000000000000E-002     6.8504748030985946E-030
  -2.2950000000000002E-002     5.4693572670615075E-030
  -2.2900000000000000E-002     2.3045809975193754E-030
  -2.2849999999999999E-002    -2.2444525081703804E-030
  -2.2800000000000001E-002    -7.3560261561162102E-030
  -2.2749999999999999E-002    -1.1916787516092862E-029
  -2.2700000000000001E-002    -1.4732671930736763E-029
  -2.2650000000000000E-002    -1.4774407431539812E-029
  -2.2599999999999999E-002    -1.1407040317720223E-029
  -2.2550000000000001E-002    -4.5638650687962313E-030
  -2.2499999999999999E-002     5.1545991444794880E-030
  -2.2450000000000001E-002     1.6457706961042924E-029
  -2.2400000000000000E-002     2.7414230938537710E-029
  -2.2349999999999998E-002     3.5584090928546121E-029
  -2.2300000000000000E-002     3.8266899035950242E-029
  -2.2249999999999999E-002     3.2919773454505639E-029
  -2.2200000000000001E-002     1.7783242059084108E-029
  -2.2150000000000000E-002    -7.3101210009366558E-030
  -2.2100000000000002E-002    -4.0084560921421645E-029
  -2.2050000000000000E-002    -7.5204882773860504E-029
  -2.1999999999999999E-002    -1.0427505974842551E-028
  -2.1950000000000001E-002    -1.1682836347743379E-028
  -2.1899999999999999E-002    -1.0251727106582844E-028
  -2.1850000000000001E-002    -5.4362689121459595E-029
  -2.1800000000000000E-002     2.7550525160732033E-029
  -2.1749999999999999E-002     1.3300825768302914E-028
  -2.1700000000000001E-002     2.4057522670664062E-028
  -2.1649999999999999E-002     3.1970203679446671E-028
  -2.1600000000000001E-002     3.3664267122177096E-028
  -2.1550000000000000E-002     2.6371484936603045E-028
  -2.1499999999999998E-002     9.0112183273903724E-029
  -2.1450000000000000E-002    -1.6870625525627104E-028
  -2.1399999999999999E-002    -4.6659763816821044E-028
  -2.1350000000000001E-002    -7.3039929552192434E-028
  -2.1299999999999999E-002    -8.7316190119889464E-028
  -2.1250000000000002E-002    -8.1581169860075953E-028
  -2.1200000000000000E-002    -5.1305941504321468E-028
  -2.1149999999999999E-002     2.3194962840526519E-029
  -2.1100000000000001E-002     7.1082729477870583E-028
  -2.1049999999999999E-002     1.4016056325004959E-027
  -2.1000000000000001E-002     1.9057449141090192E-027
  -2.0950000000000000E-002     2.0348109313706120E-027
  -2.0899999999999998E-002     1.6548869433615424E-027
  -2.0850000000000000E-002     7.3702836640970493E-028
  -2.0799999999999999E-002    -6.0999153336580355E-028
  -2.0750000000000001E-002    -2.1376308873690406E-027
  -2.0700000000000000E-002    -3.4930013154397416E-027
  -2.0649999999999998E-002    -4.2892807661966127E-027
  -2.0600000000000000E-002    -4.1985629029232788E-027
  -2.0549999999999999E-002    -3.0465219241950954E-027
  -2.0500000000000001E-002    -8.8479586313415081E-028
  -2.0449999999999999E-002     1.9803854672923291E-027
  -2.0400000000000001E-002     5.0162522980808450E-027
  -2.0350000000000000E-002     7.5485598418121166E-027
  -2.0299999999999999E-002     8.8905852440621618E-027
  -2.0250000000000001E-002     8.4921669252262462E-027
  -2.0199999999999999E-002     6.0795118812517475E-027
  -2.0150000000000001E-002     1.7574603303469606E-027
  -2.0100000000000000E-002    -3.9476048740682179E-027
  -2.0049999999999998E-002    -1.0116423338069560E-026
  -2.0000000000000000E-002    -1.5539392469785104E-026
  -1.9949999999999999E-002    -1.8886899007473869E-026
  -1.9900000000000001E-002    -1.8934666475822205E-026
  -1.9850000000000000E-002    -1.4824427324374538E-026
  -1.9799999999999998E-002    -6.3307661422114978E-027
  -1.9750000000000000E-002     5.9084522018003904E-027
  -1.9699999999999999E-002     2.0256109567705661E-026
  -1.9650000000000001E-002     3.4103522979833361E-026
  -1.9599999999999999E-002     4.4128184419432759E-026
  -1.9550000000000001E-002     4.6821042198812374E-026
  -1.9500000000000000E-002     3.9265806734973170E-026
  -1.9449999999999999E-002     2.0069799391164102E-026
  -1.9400000000000001E-002    -9.7467857982883179E-027
  -1.9349999999999999E-002    -4.6169848167124199E-026
  -1.9300000000000001E-002    -8.2204908242507454E-026
  -1.9250000000000000E-002    -1.0870721022344693E-025
  -1.9199999999999998E-002    -1.1608978702347959E-025
  -1.9150000000000000E-002    -9.6729710822713109E-026
  -1.9099999999999999E-002    -4.7621579056927249E-026
  -1.9050000000000001E-002     2.7398055511258154E-026
  -1.9000000000000000E-002     1.1662286658821976E-025
  -1.8949999999999998E-002     2.0130063036935425E-025
  -1.8900000000000000E-002     2.5862011309189279E-025
  -1.8849999999999999E-002     2.6663732175217187E-025
  -1.8800000000000001E-002     2.1030087984392282E-025
  -1.8749999999999999E-002     8.7202788986591912E-026
  -1.8700000000000001E-002    -8.8590764131146184E-026
  -1.8650000000000000E-002    -2.8613806939609220E-025
  -1.8599999999999998E-002    -4.6156521008333442E-025
  -1.8550000000000001E-002    -5.6628457188629929E-025
  -1.8499999999999999E-002    -5.5824787938581111E-025
  -1.8450000000000001E-002    -4.1392574069614620E-025
  -1.8400000000000000E-002    -1.3806357538741114E-025
  -1.8349999999999998E-002     2.3170172533178804E-025
  -1.8300000000000000E-002     6.2746892301601293E-025
  -1.8249999999999999E-002     9.6155657186180217E-025
  -1.8200000000000001E-002     1.1435891153251365E-024
  -1.8149999999999999E-002     1.1011251702451832E-024
  -1.8100000000000002E-002     7.9949423693174533E-025
  -1.8050000000000000E-002     2.5614678190846569E-025
  -1.7999999999999999E-002    -4.5446657737086573E-025
  -1.7950000000000001E-002    -1.2077795170089783E-024
  -1.7899999999999999E-002    -1.8477239973020903E-024
  -1.7850000000000001E-002    -2.2145864674925005E-024
  -1.7800000000000000E-002    -2.1775540688930813E-024
  -1.7749999999999998E-002    -1.6661575218053702E-024
  -1.7700000000000000E-002    -6.9457289696140720E-025
  -1.7649999999999999E-002     6.2648475906303381E-025
  -1.7600000000000001E-002     2.0940024043911275E-024
  -1.7550000000000000E-002     3.4346791159568283E-024
  -1.7499999999999998E-002     4.3439511955446268E-024
  -1.7450000000000000E-002     4.5386771772007475E-024
  -1.7399999999999999E-002     3.8174209603859849E-024
  -1.7350000000000001E-002     2.1195265015293197E-024
  -1.7299999999999999E-002    -4.2821111575564545E-025
  -1.7250000000000001E-002    -3.4898729553319191E-024
  -1.7200000000000000E-002    -6.5357753001042820E-024
  -1.7149999999999999E-002    -8.9033517408215298E-024
  -1.7100000000000001E-002    -9.9049028666354370E-024
  -1.7049999999999999E-002    -8.9729812411453447E-024
  -1.7000000000000001E-002    -5.8216621134273174E-024
  -1.6950000000000000E-002    -5.9029918066799788E-025
  -1.6899999999999998E-002     6.0707131920324156E-024
  -1.6850000000000000E-002     1.3011220427977542E-023
  -1.6799999999999999E-002     1.8716211669236533E-023
  -1.6750000000000001E-002     2.1567006826837256E-023
  -1.6700000000000000E-002     2.0199333883089024E-023
  -1.6649999999999998E-002     1.3895108891556090E-023
  -1.6600000000000000E-002     2.9183225312199179E-024
  -1.6549999999999999E-002    -1.1304179355698410E-023
  -1.6500000000000001E-002    -2.6241807162341966E-023
  -1.6449999999999999E-002    -3.8603410739014581E-023
  -1.6400000000000001E-002    -4.4946478990733086E-023
  -1.6350000000000000E-002    -4.2462274171875161E-023
  -1.6299999999999999E-002    -2.9782102964824877E-023
  -1.6250000000000001E-002    -7.6111973727131002E-024
  -1.6199999999999999E-002     2.1000390314333329E-023
  -1.6150000000000001E-002     5.0888661326904405E-023
  -1.6100000000000000E-002     7.5550636977796729E-023
  -1.6049999999999998E-002     8.8381275493442137E-023
  -1.6000000000000000E-002     8.4164697007753535E-023
  -1.5949999999999999E-002     6.0516322815269665E-023
  -1.5900000000000001E-002     1.8934783010015141E-023
  -1.5850000000000000E-002    -3.4840283729738504E-023
  -1.5799999999999998E-002    -9.1354972233807814E-023
  -1.5750000000000000E-002    -1.3887102097015846E-022
  -1.5699999999999999E-002    -1.6552006420326178E-022
  -1.5650000000000001E-002    -1.6182218085317505E-022
  -1.5599999999999999E-002    -1.2308577839611426E-022
  -1.5550000000000001E-002    -5.1171506545120235E-023
  -1.5500000000000000E-002     4.4828103767275895E-023
  -1.5449999999999998E-002     1.4927711722620657E-022
  -1.5400000000000000E-002     2.4210234999961615E-022
  -1.5349999999999999E-002     3.0210203496129031E-022
  -1.5300000000000001E-002     3.1099253550923972E-022
  -1.5250000000000000E-002     2.5753606725278954E-022
  -1.5199999999999998E-002     1.4099070716252286E-022
  -1.5150000000000000E-002    -2.6865411811127753E-023
  -1.5099999999999999E-002    -2.2175083208480743E-022
  -1.5050000000000001E-002    -4.0930206337166132E-022
  -1.4999999999999999E-002    -5.4990652414242347E-022
  -1.4949999999999998E-002    -6.0552369345051437E-022
  -1.4900000000000000E-002    -5.4761379467021964E-022
  -1.4849999999999999E-002    -3.6487946814798319E-022
  -1.4800000000000001E-002    -6.9246635558241810E-023
  -1.4749999999999999E-002     3.0153864925639979E-022
  -1.4700000000000001E-002     6.8604759560347535E-022
  -1.4650000000000000E-002     1.0067518076506059E-021
  -1.4599999999999998E-002     1.1827806215276761E-021
  -1.4550000000000000E-002     1.1463740421232622E-021
  -1.4499999999999999E-002     8.6034001462318507E-022
  -1.4450000000000001E-002     3.3289751406827894E-022
  -1.4400000000000000E-002    -3.7404085453318593E-022
  -1.4349999999999998E-002    -1.1465737295970975E-021
  -1.4300000000000000E-002    -1.8324533085384786E-021
  -1.4249999999999999E-002    -2.2663087297525135E-021
  -1.4200000000000001E-002    -2.3033003677822129E-021
  -1.4149999999999999E-002    -1.8553734741299862E-021
  -1.4099999999999998E-002    -9.2238056745042776E-022
  -1.4050000000000000E-002     3.9011814527895500E-022
  -1.3999999999999999E-002     1.8731633801232394E-021
  -1.3950000000000001E-002     3.2402945586285710E-021
  -1.3899999999999999E-002     4.1757309401099234E-021
  -1.3850000000000001E-002     4.3981367944017013E-021
  -1.3800000000000000E-002     3.7284621525056812E-021
  -1.3749999999999998E-002     2.1473778408104225E-021
  -1.3700000000000000E-002    -1.7230903838969469E-022
  -1.3649999999999999E-002    -2.8696643793924690E-021
  -1.3600000000000001E-002    -5.4411580346631359E-021
  -1.3550000000000000E-002    -7.3244021691472489E-021
  -1.3499999999999998E-002    -8.0078918157343854E-021
  -1.3450000000000000E-002    -7.1471066435541711E-021
  -1.3399999999999999E-002    -4.6632084709333478E-021
  -1.3350000000000001E-002    -8.0100559113245881E-022
  -1.3299999999999999E-002     3.8716544100042228E-021
  -1.3249999999999998E-002     8.5310531236500966E-021
  -1.3200000000000000E-002     1.2226681137856868E-020
  -1.3149999999999998E-002     1.4054475856746453E-020
  -1.3100000000000001E-002     1.3345477526426598E-020
  -1.3049999999999999E-002     9.8346629477290485E-021
  -1.3000000000000001E-002     3.7742486797695743E-021
  -1.2950000000000000E-002    -4.0379378912274793E-021
  -1.2899999999999998E-002    -1.2332053289461253E-020
  -1.2850000000000000E-002    -1.9541936373946761E-020
  -1.2799999999999999E-002    -2.4064164764884759E-020