  -4.0000000000000001E-002     0.0000000000000000     
  -3.9949999999999999E-002     0.0000000000000000     
  -3.9899999999999998E-002     0.0000000000000000     
  -3.9850000000000003E-002     0.0000000000000000     
  -3.9800000000000002E-002     0.0000000000000000     
  -3.9750000000000001E-002     0.0000000000000000     
  -3.9699999999999999E-002     0.0000000000000000     
  -3.9649999999999998E-002     0.0000000000000000     
  -3.9600000000000003E-002     0.0000000000000000     
  -3.9550000000000002E-002     0.0000000000000000     
  -3.9500000000000000E-002     0.0000000000000000     
  -3.9449999999999999E-002     0.0000000000000000     
  -3.9399999999999998E-002     0.0000000000000000     
  -3.9350000000000003E-002     0.0000000000000000     
  -3.9300000000000002E-002     0.0000000000000000     
  -3.9250000000000000E-002     0.0000000000000000     
  -3.9199999999999999E-002     0.0000000000000000     
  -3.9150000000000004E-002     0.0000000000000000     
  -3.9100000000000003E-002     0.0000000000000000     
  -3.9050000000000001E-002     0.0000000000000000     
  -3.9000000000000000E-002     0.0000000000000000     
  -3.8949999999999999E-002     0.0000000000000000     
  -3.8900000000000004E-002     0.0000000000000000     
  -3.8850000000000003E-002     0.0000000000000000     
  -3.8800000000000001E-002     0.0000000000000000     
  -3.8750000000000000E-002     0.0000000000000000     
  -3.8699999999999998E-002     0.0000000000000000     
  -3.8650000000000004E-002     0.0000000000000000     
  -3.8600000000000002E-002     0.0000000000000000     
  -3.8550000000000001E-002     0.0000000000000000     
  -3.8500000000000000E-002     0.0000000000000000     
  -3.8449999999999998E-002     0.0000000000000000     
  -3.8400000000000004E-002     0.0000000000000000     
  -3.8350000000000002E-002     0.0000000000000000     
  -3.8300000000000001E-002     0.0000000000000000     
  -3.8249999999999999E-002     0.0000000000000000     
  -3.8199999999999998E-002     0.0000000000000000     
  -3.8150000000000003E-002     0.0000000000000000     
  -3.8100000000000002E-002     0.0000000000000000     
  -3.8050000000000000E-002     0.0000000000000000     
  -3.7999999999999999E-002     0.0000000000000000     
  -3.7949999999999998E-002     0.0000000000000000     
  -3.7900000000000003E-002     0.0000000000000000     
  -3.7850000000000002E-002     0.0000000000000000     
  -3.7800000000000000E-002     0.0000000000000000     
  -3.7749999999999999E-002     0.0000000000000000     
  -3.7699999999999997E-002     0.0000000000000000     
  -3.7650000000000003E-002     0.0000000000000000     
  -3.7600000000000001E-002     0.0000000000000000     
  -3.7550000000000000E-002     0.0000000000000000     
  -3.7499999999999999E-002     0.0000000000000000     
  -3.7449999999999997E-002     0.0000000000000000     
  -3.7400000000000003E-002     0.0000000000000000     
  -3.7350000000000001E-002     0.0000000000000000     
  -3.7300000000000000E-002     0.0000000000000000     
  -3.7249999999999998E-002     0.0000000000000000     
  -3.7200000000000004E-002     0.0000000000000000     
  -3.7150000000000002E-002     0.0000000000000000     
  -3.7100000000000001E-002     0.0000000000000000     
  -3.7050000000000000E-002     0.0000000000000000     
  -3.6999999999999998E-002     0.0000000000000000     
  -3.6950000000000004E-002     0.0000000000000000     
  -3.6900000000000002E-002     0.0000000000000000     
  -3.6850000000000001E-002     0.0000000000000000     
  -3.6799999999999999E-002     0.0000000000000000     
  -3.6749999999999998E-002     0.0000000000000000     
  -3.6700000000000003E-002     0.0000000000000000     
  -3.6650000000000002E-002     0.0000000000000000     
  -3.6600000000000001E-002     0.0000000000000000     
  -3.6549999999999999E-002     0.0000000000000000     
  -3.6499999999999998E-002     0.0000000000000000     
  -3.6450000000000003E-002     0.0000000000000000     
  -3.6400000000000002E-002     0.0000000000000000     
  -3.6350000000000000E-002     0.0000000000000000     
  -3.6299999999999999E-002     0.0000000000000000     
  -3.6249999999999998E-002     0.0000000000000000     
  -3.6200000000000003E-002     0.0000000000000000     
  -3.6150000000000002E-002     0.0000000000000000     
  -3.6100000000000000E-002     0.0000000000000000     
  -3.6049999999999999E-002     0.0000000000000000     
  -3.6000000000000004E-002     0.0000000000000000     
  -3.5950000000000003E-002     0.0000000000000000     
  -3.5900000000000001E-002     0.0000000000000000     
  -3.5850000000000000E-002     0.0000000000000000     
  -3.5799999999999998E-002     0.0000000000000000     
  -3.5750000000000004E-002     0.0000000000000000     
  -3.5700000000000003E-002     0.0000000000000000     
  -3.5650000000000001E-002     0.0000000000000000     
  -3.5600000000000000E-002     0.0000000000000000     
  -3.5549999999999998E-002     0.0000000000000000     
  -3.5500000000000004E-002     0.0000000000000000     
  -3.5450000000000002E-002     0.0000000000000000     
  -3.5400000000000001E-002     0.0000000000000000     
  -3.5349999999999999E-002     0.0000000000000000     
  -3.5299999999999998E-002     0.0000000000000000     
  -3.5250000000000004E-002     0.0000000000000000     
  -3.5200000000000002E-002     0.0000000000000000     
  -3.5150000000000001E-002     0.0000000000000000     
  -3.5099999999999999E-002     0.0000000000000000     
  -3.5049999999999998E-002     0.0000000000000000     
  -3.5000000000000003E-002     0.0000000000000000     
  -3.4950000000000002E-002     0.0000000000000000     
  -3.4900000000000000E-002     0.0000000000000000     
  -3.4849999999999999E-002     0.0000000000000000     
  -3.4799999999999998E-002     0.0000000000000000     
  -3.4750000000000003E-002     0.0000000000000000     
  -3.4700000000000002E-002     0.0000000000000000     
  -3.4650000000000000E-002     0.0000000000000000     
  -3.4599999999999999E-002     0.0000000000000000     
  -3.4549999999999997E-002     0.0000000000000000     
  -3.4500000000000003E-002     0.0000000000000000     
  -3.4450000000000001E-002     0.0000000000000000     
  -3.4400000000000000E-002     0.0000000000000000     
  -3.4349999999999999E-002     0.0000000000000000     
  -3.4299999999999997E-002     0.0000000000000000     
  -3.4250000000000003E-002     0.0000000000000000     
  -3.4200000000000001E-002     0.0000000000000000     
  -3.4150000000000000E-002     0.0000000000000000     
  -3.4099999999999998E-002     0.0000000000000000     
  -3.4049999999999997E-002     0.0000000000000000     
  -3.4000000000000002E-002     0.0000000000000000     
  -3.3950000000000001E-002     0.0000000000000000     
  -3.3900000000000000E-002     0.0000000000000000     
  -3.3849999999999998E-002     0.0000000000000000     
  -3.3799999999999997E-002     0.0000000000000000     
  -3.3750000000000002E-002     0.0000000000000000     
  -3.3700000000000001E-002     0.0000000000000000     
  -3.3649999999999999E-002     0.0000000000000000     
  -3.3599999999999998E-002     0.0000000000000000     
  -3.3550000000000003E-002     0.0000000000000000     
  -3.3500000000000002E-002     0.0000000000000000     
  -3.3450000000000001E-002     0.0000000000000000     
  -3.3399999999999999E-002     0.0000000000000000     
  -3.3349999999999998E-002     0.0000000000000000     
  -3.3300000000000003E-002     0.0000000000000000     
  -3.3250000000000002E-002     0.0000000000000000     
  -3.3200000000000000E-002     0.0000000000000000     
  -3.3149999999999999E-002     0.0000000000000000     
  -3.3099999999999997E-002     0.0000000000000000     
  -3.3050000000000003E-002     0.0000000000000000     
  -3.3000000000000002E-002     0.0000000000000000     
  -3.2950000000000000E-002     0.0000000000000000     
  -3.2899999999999999E-002     0.0000000000000000     
  -3.2850000000000004E-002     0.0000000000000000     
  -3.2800000000000003E-002     0.0000000000000000     
  -3.2750000000000001E-002     0.0000000000000000     
  -3.2700000000000000E-002     0.0000000000000000     
  -3.2649999999999998E-002     0.0000000000000000     
  -3.2600000000000004E-002     0.0000000000000000     
  -3.2550000000000003E-002     0.0000000000000000     
  -3.2500000000000001E-002     0.0000000000000000     
  -3.2450000000000000E-002     0.0000000000000000     
  -3.2399999999999998E-002     0.0000000000000000     
  -3.2350000000000004E-002     0.0000000000000000     
  -3.2300000000000002E-002     0.0000000000000000     
  -3.2250000000000001E-002     0.0000000000000000     
  -3.2199999999999999E-002     0.0000000000000000     
  -3.2149999999999998E-002     0.0000000000000000     
  -3.2100000000000004E-002     0.0000000000000000     
  -3.2050000000000002E-002     0.0000000000000000     
  -3.2000000000000001E-002     0.0000000000000000     
  -3.1949999999999999E-002     0.0000000000000000     
  -3.1899999999999998E-002     0.0000000000000000     
  -3.1850000000000003E-002     0.0000000000000000     
  -3.1800000000000002E-002     0.0000000000000000     
  -3.1750000000000000E-002     0.0000000000000000     
  -3.1699999999999999E-002     0.0000000000000000     
  -3.1649999999999998E-002     0.0000000000000000     
  -3.1600000000000003E-002     0.0000000000000000     
  -3.1550000000000002E-002     0.0000000000000000     
  -3.1500000000000000E-002     0.0000000000000000     
  -3.1449999999999999E-002     0.0000000000000000     
  -3.1399999999999997E-002     0.0000000000000000     
  -3.1350000000000003E-002     0.0000000000000000     
  -3.1300000000000001E-002     0.0000000000000000     
  -3.1250000000000000E-002     0.0000000000000000     
  -3.1199999999999999E-002     0.0000000000000000     
  -3.1150000000000001E-002     0.0000000000000000     
  -3.1100000000000003E-002     0.0000000000000000     
  -3.1050000000000001E-002     0.0000000000000000     
  -3.1000000000000000E-002     0.0000000000000000     
  -3.0949999999999998E-002     0.0000000000000000     
  -3.0900000000000000E-002     0.0000000000000000     
  -3.0850000000000002E-002     0.0000000000000000     
  -3.0800000000000001E-002     0.0000000000000000     
  -3.0750000000000000E-002     0.0000000000000000     
  -3.0699999999999998E-002     0.0000000000000000     
  -3.0650000000000000E-002     0.0000000000000000     
  -3.0600000000000002E-002     0.0000000000000000     
  -3.0550000000000001E-002     0.0000000000000000     
  -3.0499999999999999E-002     0.0000000000000000     
  -3.0449999999999998E-002     0.0000000000000000     
  -3.0400000000000000E-002     0.0000000000000000     
  -3.0350000000000002E-002     0.0000000000000000     
  -3.0300000000000001E-002     0.0000000000000000     
  -3.0249999999999999E-002     0.0000000000000000     
  -3.0200000000000001E-002     0.0000000000000000     
  -3.0150000000000000E-002     0.0000000000000000     
  -3.0100000000000002E-002     0.0000000000000000     
  -3.0050000000000000E-002     0.0000000000000000     
  -2.9999999999999999E-002     0.0000000000000000     
  -2.9950000000000001E-002     0.0000000000000000     
  -2.9899999999999999E-002     0.0000000000000000     
  -2.9850000000000002E-002     0.0000000000000000     
  -2.9800000000000000E-002     0.0000000000000000     
  -2.9749999999999999E-002     0.0000000000000000     
  -2.9700000000000001E-002     0.0000000000000000     
  -2.9650000000000003E-002     0.0000000000000000     
  -2.9600000000000001E-002     0.0000000000000000     
  -2.9550000000000000E-002     0.0000000000000000     
  -2.9499999999999998E-002     0.0000000000000000     
  -2.9450000000000000E-002     0.0000000000000000     
  -2.9400000000000003E-002     0.0000000000000000     
  -2.9350000000000001E-002     0.0000000000000000     
  -2.9300000000000000E-002     0.0000000000000000     
  -2.9249999999999998E-002     0.0000000000000000     
  -2.9200000000000000E-002     0.0000000000000000     
  -2.9150000000000002E-002     0.0000000000000000     
  -2.9100000000000001E-002     0.0000000000000000     
  -2.9049999999999999E-002     0.0000000000000000     
  -2.8999999999999998E-002     0.0000000000000000     
  -2.8950000000000000E-002     0.0000000000000000     
  -2.8900000000000002E-002     0.0000000000000000     
  -2.8850000000000001E-002     0.0000000000000000     
  -2.8799999999999999E-002     0.0000000000000000     
  -2.8749999999999998E-002     0.0000000000000000     
  -2.8700000000000000E-002     0.0000000000000000     
  -2.8650000000000002E-002     0.0000000000000000     
  -2.8600000000000000E-002     0.0000000000000000     
  -2.8549999999999999E-002     0.0000000000000000     
  -2.8500000000000001E-002     0.0000000000000000     
  -2.8450000000000000E-002     0.0000000000000000     
  -2.8400000000000002E-002     0.0000000000000000     
  -2.8350000000000000E-002     0.0000000000000000     
  -2.8299999999999999E-002     0.0000000000000000     
  -2.8250000000000001E-002     0.0000000000000000     
  -2.8200000000000003E-002     0.0000000000000000     
  -2.8150000000000001E-002     0.0000000000000000     
  -2.8100000000000000E-002     0.0000000000000000     
  -2.8049999999999999E-002     0.0000000000000000     
  -2.8000000000000001E-002     0.0000000000000000     
  -2.7950000000000003E-002     0.0000000000000000     
  -2.7900000000000001E-002     0.0000000000000000     
  -2.7850000000000000E-002     0.0000000000000000     
  -2.7799999999999998E-002     0.0000000000000000     
  -2.7750000000000000E-002     0.0000000000000000     
  -2.7700000000000002E-002     0.0000000000000000     
  -2.7650000000000001E-002     0.0000000000000000     
  -2.7600000000000000E-002     0.0000000000000000     
  -2.7549999999999998E-002     0.0000000000000000     
  -2.7500000000000000E-002     0.0000000000000000     
  -2.7450000000000002E-002     0.0000000000000000     
  -2.7400000000000001E-002     0.0000000000000000     
  -2.7349999999999999E-002     0.0000000000000000     
  -2.7299999999999998E-002     0.0000000000000000     
  -2.7250000000000000E-002     0.0000000000000000     
  -2.7200000000000002E-002     0.0000000000000000     
  -2.7150000000000001E-002     0.0000000000000000     
  -2.7099999999999999E-002     0.0000000000000000     
  -2.7049999999999998E-002     0.0000000000000000     
  -2.7000000000000000E-002     0.0000000000000000     
  -2.6950000000000002E-002     0.0000000000000000     
  -2.6900000000000000E-002     0.0000000000000000     
  -2.6849999999999999E-002     0.0000000000000000     
  -2.6800000000000001E-002     0.0000000000000000     
  -2.6749999999999999E-002     0.0000000000000000     
  -2.6700000000000002E-002     0.0000000000000000     
  -2.6650000000000000E-002     0.0000000000000000     
  -2.6599999999999999E-002     0.0000000000000000     
  -2.6550000000000001E-002     0.0000000000000000     
  -2.6500000000000003E-002     0.0000000000000000     
  -2.6450000000000001E-002     0.0000000000000000     
  -2.6400000000000000E-002     0.0000000000000000     
  -2.6349999999999998E-002     0.0000000000000000     
  -2.6300000000000000E-002     0.0000000000000000     
  -2.6250000000000002E-002     0.0000000000000000     
  -2.6200000000000001E-002     0.0000000000000000     
  -2.6150000000000000E-002     0.0000000000000000     
  -2.6099999999999998E-002     0.0000000000000000     
  -2.6050000000000000E-002     0.0000000000000000     
  -2.6000000000000002E-002     0.0000000000000000     
  -2.5950000000000001E-002     0.0000000000000000     
  -2.5899999999999999E-002     0.0000000000000000     
  -2.5849999999999998E-002     0.0000000000000000     
  -2.5800000000000000E-002     0.0000000000000000     
  -2.5750000000000002E-002     0.0000000000000000     
  -2.5700000000000001E-002     0.0000000000000000     
  -2.5649999999999999E-002     0.0000000000000000     
  -2.5599999999999998E-002     0.0000000000000000     
  -2.5550000000000000E-002     0.0000000000000000     
  -2.5500000000000002E-002     0.0000000000000000     
  -2.5450000000000000E-002     0.0000000000000000     
  -2.5399999999999999E-002     0.0000000000000000     
  -2.5349999999999998E-002     0.0000000000000000     
  -2.5300000000000000E-002     0.0000000000000000     
  -2.5250000000000002E-002     0.0000000000000000     
  -2.5200000000000000E-002     0.0000000000000000     
  -2.5149999999999999E-002     0.0000000000000000     
  -2.5100000000000001E-002     0.0000000000000000     
  -2.5049999999999999E-002     0.0000000000000000     
  -2.5000000000000001E-002     0.0000000000000000     
  -2.4950000000000000E-002     0.0000000000000000     
  -2.4899999999999999E-002     0.0000000000000000     
  -2.4850000000000001E-002     0.0000000000000000     
  -2.4800000000000003E-002     0.0000000000000000     
  -2.4750000000000001E-002     0.0000000000000000     
  -2.4700000000000000E-002     0.0000000000000000     
  -2.4649999999999998E-002     0.0000000000000000     
  -2.4600000000000000E-002     0.0000000000000000     
  -2.4550000000000002E-002     0.0000000000000000     
  -2.4500000000000001E-002     0.0000000000000000     
  -2.4450000000000000E-002     0.0000000000000000     
  -2.4399999999999998E-002     0.0000000000000000     
  -2.4350000000000000E-002     0.0000000000000000     
  -2.4299999999999999E-002     0.0000000000000000     
  -2.4250000000000001E-002     0.0000000000000000     
  -2.4199999999999999E-002     0.0000000000000000     
  -2.4150000000000001E-002     0.0000000000000000     
  -2.4100000000000000E-002     0.0000000000000000     
  -2.4049999999999998E-002     0.0000000000000000     
  -2.4000000000000000E-002     0.0000000000000000     
  -2.3949999999999999E-002     0.0000000000000000     
  -2.3900000000000001E-002     0.0000000000000000     
  -2.3850000000000000E-002     0.0000000000000000     
  -2.3800000000000002E-002     0.0000000000000000     
  -2.3750000000000000E-002     0.0000000000000000     
  -2.3699999999999999E-002     0.0000000000000000     
  -2.3650000000000001E-002     0.0000000000000000     
  -2.3599999999999999E-002     0.0000000000000000     
  -2.3550000000000001E-002     0.0000000000000000     
  -2.3500000000000000E-002     0.0000000000000000     
  -2.3449999999999999E-002     0.0000000000000000     
  -2.3400000000000001E-002     0.0000000000000000     
  -2.3349999999999999E-002     0.0000000000000000     
  -2.3300000000000001E-002     0.0000000000000000     
  -2.3250000000000000E-002     0.0000000000000000     
  -2.3199999999999998E-002     0.0000000000000000     
  -2.3150000000000000E-002     0.0000000000000000     
  -2.3099999999999999E-002     0.0000000000000000     
  -2.3050000000000001E-002     0.0000000000000000     
  -2.3000000000000000E-002     0.0000000000000000     
  -2.2950000000000002E-002     0.0000000000000000     
  -2.2900000000000000E-002     0.0000000000000000     
  -2.2849999999999999E-002     0.0000000000000000     
  -2.2800000000000001E-002     0.0000000000000000     
  -2.2749999999999999E-002     0.0000000000000000     
  -2.2700000000000001E-002     0.0000000000000000     
  -2.2650000000000000E-002     0.0000000000000000     
  -2.2599999999999999E-002     0.0000000000000000     
  -2.2550000000000001E-002     0.0000000000000000     
  -2.2499999999999999E-002     0.0000000000000000     
  -2.2450000000000001E-002     0.0000000000000000     
  -2.2400000000000000E-002     0.0000000000000000     
  -2.2349999999999998E-002     0.0000000000000000     
  -2.2300000000000000E-002     0.0000000000000000     
  -2.2249999999999999E-002     4.1457282983673154E-040
  -2.2200000000000001E-002     9.4725515238588056E-040
  -2.2150000000000000E-002     5.6515290840056108E-040
  -2.2100000000000002E-002     0.0000000000000000     
  -2.2050000000000000E-002    -4.6182209627814081E-040
  -2.1999999999999999E-002     0.0000000000000000     
  -2.1950000000000001E-002     6.2727008802295752E-040
  -2.1899999999999999E-002     0.0000000000000000     
  -2.1850000000000001E-002    -3.0874561001550596E-039
  -2.1800000000000000E-002    -6.9846500152481627E-039
  -2.1749999999999999E-002    -9.7321185661698402E-039
  -2.1700000000000001E-002    -7.9678060504549420E-039
  -2.1649999999999999E-002    -1.8847009368150216E-039
  -2.1600000000000001E-002     7.4542223444956766E-039
  -2.1550000000000000E-002     1.9170283316800732E-038
  -2.1499999999999998E-002     3.2784816633215562E-038
  -2.1450000000000000E-002     4.7876510638081721E-038
  -2.1399999999999999E-002     5.3032455108207589E-038
  -2.1350000000000001E-002     3.5335677898476122E-038
  -2.1299999999999999E-002    -2.5837987534499911E-038
  -2.1250000000000002E-002    -1.3872023872166473E-037
  -2.1200000000000000E-002    -2.5797006627768839E-037
  -2.1149999999999999E-002    -3.2079175726021014E-037
  -2.1100000000000001E-002    -2.7198607822168513E-037
  -2.1049999999999999E-002    -7.2005100369899539E-038
  -2.1000000000000001E-002     2.4400631383374381E-037
  -2.0950000000000000E-002     5.9445855726043642E-037
  -2.0899999999999998E-002     8.6777595833342053E-037
  -2.0850000000000000E-002     9.5735739940539758E-037
  -2.0799999999999999E-002     7.4423694686505674E-037
  -2.0750000000000001E-002     1.9954263190564175E-037
  -2.0700000000000000E-002    -6.3160545787061141E-037
  -2.0649999999999998E-002    -1.5716118484173444E-036
  -2.0600000000000000E-002    -2.3414381276857628E-036
  -2.0549999999999999E-002    -2.6177229666944427E-036
  -2.0500000000000001E-002    -2.1480125958153327E-036
  -2.0449999999999999E-002    -8.3699544812044753E-037
  -2.0400000000000001E-002     1.1494317218608765E-036
  -2.0350000000000000E-002     3.3886531144217102E-036
  -2.0299999999999999E-002     5.2665502085952026E-036
  -2.0250000000000001E-002     6.1463831121031723E-036
  -2.0199999999999999E-002     5.5523525764763311E-036
  -2.0150000000000001E-002     3.3232726087416438E-036
  -2.0100000000000000E-002    -3.1004340200719857E-037
  -2.0049999999999998E-002    -4.7443732011309431E-036
  -2.0000000000000000E-002    -9.1096233601846363E-036
  -1.9949999999999999E-002    -1.2427723708662000E-035
  -1.9900000000000001E-002    -1.3783158119745813E-035
  -1.9850000000000000E-002    -1.2467178669144473E-035
  -1.9799999999999998E-002    -8.0778506805691595E-036
  -1.9750000000000000E-002    -5.8879087945218797E-037
  -1.9699999999999999E-002     9.5697392473773588E-036
  -1.9650000000000001E-002     2.1371487855389492E-035
  -1.9599999999999999E-002     3.2990026222058726E-035
  -1.9550000000000001E-002     4.1625419971079437E-035
  -1.9500000000000000E-002     4.3564285341723873E-035
  -1.9449999999999999E-002     3.4723456095589440E-035
  -1.9400000000000001E-002     1.1856284503411171E-035
  -1.9349999999999999E-002    -2.5650039662790899E-035
  -1.9300000000000001E-002    -7.3823549809095003E-035
  -1.9250000000000000E-002    -1.2279699605572773E-034
  -1.9199999999999998E-002    -1.5709760629176476E-034
  -1.9150000000000000E-002    -1.5830659447763837E-034
  -1.9099999999999999E-002    -1.1024541648522203E-034
  -1.9050000000000001E-002    -5.8876669695570815E-036
  -1.9000000000000000E-002     1.4585502358702115E-034
  -1.8949999999999998E-002     3.1609210285783344E-034
  -1.8900000000000000E-002     4.5734412861351417E-034
  -1.8849999999999999E-002     5.1211195627426085E-034
  -1.8800000000000001E-002     4.2840537642459388E-034
  -1.8749999999999999E-002     1.7937669525205198E-034
  -1.8700000000000001E-002    -2.1833033001895697E-034
  -1.8650000000000000E-002    -6.9434677409815527E-034
  -1.8599999999999998E-002    -1.1287339144142325E-033
  -1.8550000000000001E-002    -1.3738176773704754E-033
  -1.8499999999999999E-002    -1.2919605901168785E-033
  -1.8450000000000001E-002    -8.0165015275335892E-034
  -1.8400000000000000E-002     8.0573350564836927E-035
  -1.8349999999999998E-002     1.2167538037981497E-033
  -1.8300000000000000E-002     2.3547784086292015E-033
  -1.8249999999999999E-002     3.1715436759540865E-033
  -1.8200000000000001E-002     3.3474328678305796E-033
  -1.8149999999999999E-002     2.6571238197498700E-033
  -1.8100000000000002E-002     1.0540853748786647E-033
  -1.8050000000000000E-002    -1.2759817620103739E-033
  -1.7999999999999999E-002    -3.9126577674853916E-033
  -1.7950000000000001E-002    -6.2580707201910703E-033
  -1.7899999999999999E-002    -7.6481653039714630E-033
  -1.7850000000000001E-002    -7.4983496892184584E-033
  -1.7800000000000000E-002    -5.4545831647116455E-033
  -1.7749999999999998E-002    -1.5186819572331165E-033
  -1.7700000000000000E-002     3.8788583033126130E-033
  -1.7649999999999999E-002     9.8764460559874578E-033
  -1.7600000000000001E-002     1.5257773012525871E-032
  -1.7550000000000000E-002     1.8607908711922203E-032
  -1.7499999999999998E-002     1.8544536353560427E-032
  -1.7450000000000000E-002     1.4013115319621754E-032
  -1.7399999999999999E-002     4.6219699272076838E-033
  -1.7350000000000001E-002    -9.0293674694251170E-033
  -1.7299999999999999E-002    -2.5106202186653696E-032
  -1.7250000000000001E-002    -4.0486543348730372E-032
  -1.7200000000000000E-002    -5.1019529904906046E-032
  -1.7149999999999999E-002    -5.2185666939925051E-032
  -1.7100000000000001E-002    -4.0168701292080944E-032
  -1.7049999999999999E-002    -1.3214493472353664E-032
  -1.7000000000000001E-002     2.7010797137593540E-032
  -1.6950000000000000E-002     7.4493439173994406E-032
  -1.6899999999999998E-002     1.1886313251883368E-031
  -1.6850000000000000E-002     1.4670021890280453E-031
  -1.6799999999999999E-002     1.4429001647446343E-031
  -1.6750000000000001E-002     1.0153265680519000E-031
  -1.6700000000000000E-002     1.6226817836140363E-032
  -1.6649999999999998E-002    -1.0246707644124998E-031
  -1.6600000000000000E-002    -2.3274586497499781E-031
  -1.6549999999999999E-002    -3.4220774494651981E-031
  -1.6500000000000001E-002    -3.9370560657729558E-031
  -1.6449999999999999E-002    -3.5447297101273911E-031
  -1.6400000000000001E-002    -2.0682201199201857E-031
  -1.6350000000000000E-002     4.2263592205938981E-032
  -1.6299999999999999E-002     3.5575275246779578E-031
  -1.6250000000000001E-002     6.6813491627894400E-031
  -1.6199999999999999E-002     8.9536706306912478E-031
  -1.6150000000000001E-002     9.5260772911764019E-031
  -1.6100000000000000E-002     7.7681383519326272E-031
  -1.6049999999999998E-002     3.4924392688528345E-031
  -1.6000000000000000E-002    -2.8817994390860891E-031
  -1.5949999999999999E-002    -1.0283727514381355E-030
  -1.5900000000000001E-002    -1.7102660232755709E-030
  -1.5850000000000000E-002    -2.1462422225227288E-030
  -1.5799999999999998E-002    -2.1624548914927764E-030
  -1.5750000000000000E-002    -1.6448984515267737E-030
  -1.5699999999999999E-002    -5.8142125504004313E-031
  -1.5650000000000001E-002     9.1095678773580462E-031
  -1.5599999999999999E-002     2.5826813523186083E-030
  -1.5550000000000001E-002     4.0779927157614438E-030
  -1.5500000000000000E-002     4.9914794670249961E-030
  -1.5449999999999998E-002     4.9492640941312225E-030
  -1.5400000000000000E-002     3.7030761176745100E-030
  -1.5349999999999999E-002     1.2202515411811304E-030
  -1.5300000000000001E-002    -2.2506497236030168E-030
  -1.5250000000000000E-002    -6.1593764556961030E-030
  -1.5199999999999998E-002    -9.6960605610939199E-030
  -1.5150000000000000E-002    -1.1905240633045260E-029
  -1.5099999999999999E-002    -1.1868379139120052E-029
  -1.5050000000000001E-002    -8.9344397138360284E-030
  -1.4999999999999999E-002    -2.9593938639836614E-030
  -1.4949999999999998E-002     5.5008738871151425E-030
  -1.4900000000000000E-002     1.5108299691630570E-029
  -1.4849999999999999E-002     2.3829851797454286E-029
  -1.4800000000000001E-002     2.9229800079609698E-029
  -1.4749999999999999E-002     2.8960570862532948E-029
  -1.4700000000000001E-002     2.1389712193444103E-029
  -1.4650000000000000E-002     6.2417837962118316E-030
  -1.4599999999999998E-002    -1.4911445423564121E-029
  -1.4550000000000000E-002    -3.8492689827052574E-029
  -1.4499999999999999E-002    -5.9240306039576621E-029
  -1.4450000000000001E-002    -7.1071115848508428E-029
  -1.4400000000000000E-002    -6.8417677328609914E-029
  -1.4349999999999998E-002    -4.7822401689269744E-029
  -1.4300000000000000E-002    -9.4367694728560537E-030
  -1.4249999999999999E-002     4.2000946256286683E-029
  -1.4200000000000001E-002     9.7114498672328394E-029
  -1.4149999999999999E-002     1.4303130669356354E-028
  -1.4099999999999998E-002     1.6573578650843041E-028
  -1.4050000000000000E-002     1.5333714018567676E-028
  -1.3999999999999999E-002     9.9639052431130926E-029
  -1.3950000000000001E-002     7.1688858330013920E-030
  -1.3899999999999999E-002    -1.1123996644919406E-028
  -1.3850000000000001E-002    -2.3306310992756020E-028
  -1.3800000000000000E-002    -3.2926577949858696E-028
  -1.3749999999999998E-002    -3.6985799595408842E-028
  -1.3700000000000000E-002    -3.3100310790629868E-028
  -1.3649999999999999E-002    -2.0229715662200933E-028
  -1.3600000000000001E-002     7.5043832929749257E-030
  -1.3550000000000000E-002     2.6803316836430102E-028
  -1.3499999999999998E-002     5.2944099140653839E-028
  -1.3450000000000000E-002     7.2963499505845952E-028
  -1.3399999999999999E-002     8.0605849014287557E-028
  -1.3350000000000001E-002     7.1029572212129360E-028
  -1.3299999999999999E-002     4.2276625011004578E-028
  -1.3249999999999998E-002    -3.5842590987951482E-029
  -1.3200000000000000E-002    -5.9976311231371614E-028
  -1.3149999999999998E-002    -1.1625869235588634E-027
  -1.3100000000000001E-002    -1.5921206999622237E-027
  -1.3049999999999999E-002    -1.7547673308832567E-027
  -1.3000000000000001E-002    -1.5461860851558497E-027
  -1.2950000000000000E-002    -9.2277563543105426E-028
  -1.2899999999999998E-002     7.3035320327718753E-029
  -1.2850000000000000E-002     1.3010848397208972E-027
  -1.2799999999999999E-002     2.5315580578638259E-027