  -4.0000000000000001E-002     0.0000000000000000     
  -3.9949999999999999E-002     0.0000000000000000     
  -3.9899999999999998E-002     0.0000000000000000     
  -3.9850000000000003E-002     0.0000000000000000     
  -3.9800000000000002E-002     0.0000000000000000     
  -3.9750000000000001E-002     0.0000000000000000     
  -3.9699999999999999E-002     0.0000000000000000     
  -3.9649999999999998E-002     0.0000000000000000     
  -3.9600000000000003E-002     0.0000000000000000     
  -3.9550000000000002E-002     0.0000000000000000     
  -3.9500000000000000E-002     0.0000000000000000     
  -3.9449999999999999E-002     0.0000000000000000     
  -3.9399999999999998E-002     0.0000000000000000     
  -3.9350000000000003E-002     0.0000000000000000     
  -3.9300000000000002E-002     0.0000000000000000     
  -3.9250000000000000E-002     0.0000000000000000     
  -3.9199999999999999E-002     0.0000000000000000     
  -3.9150000000000004E-002     0.0000000000000000     
  -3.9100000000000003E-002     0.0000000000000000     
  -3.9050000000000001E-002     0.0000000000000000     
  -3.9000000000000000E-002     0.0000000000000000     
  -3.8949999999999999E-002     0.0000000000000000     
  -3.8900000000000004E-002     0.0000000000000000     
  -3.8850000000000003E-002     0.0000000000000000     
  -3.8800000000000001E-002     0.0000000000000000     
  -3.8750000000000000E-002     0.0000000000000000     
  -3.8699999999999998E-002     0.0000000000000000     
  -3.8650000000000004E-002     0.0000000000000000     
  -3.8600000000000002E-002     0.0000000000000000     
  -3.8550000000000001E-002     0.0000000000000000     
  -3.8500000000000000E-002     0.0000000000000000     
  -3.8449999999999998E-002     0.0000000000000000     
  -3.8400000000000004E-002     0.0000000000000000     
  -3.8350000000000002E-002     0.0000000000000000     
  -3.8300000000000001E-002     0.0000000000000000     
  -3.8249999999999999E-002     0.0000000000000000     
  -3.8199999999999998E-002     0.0000000000000000     
  -3.8150000000000003E-002     0.0000000000000000     
  -3.8100000000000002E-002     0.0000000000000000     
  -3.8050000000000000E-002     0.0000000000000000     
  -3.7999999999999999E-002     0.0000000000000000     
  -3.7949999999999998E-002     0.0000000000000000     
  -3.7900000000000003E-002     0.0000000000000000     
  -3.7850000000000002E-002     0.0000000000000000     
  -3.7800000000000000E-002     0.0000000000000000     
  -3.7749999999999999E-002     0.0000000000000000     
  -3.7699999999999997E-002     0.0000000000000000     
  -3.7650000000000003E-002     0.0000000000000000     
  -3.7600000000000001E-002     0.0000000000000000     
  -3.7550000000000000E-002     0.0000000000000000     
  -3.7499999999999999E-002     0.0000000000000000     
  -3.7449999999999997E-002     0.0000000000000000     
  -3.7400000000000003E-002     0.0000000000000000     
  -3.7350000000000001E-002     0.0000000000000000     
  -3.7300000000000000E-002     0.0000000000000000     
  -3.7249999999999998E-002     0.0000000000000000     
  -3.7200000000000004E-002     0.0000000000000000     
  -3.7150000000000002E-002     0.0000000000000000     
  -3.7100000000000001E-002     0.0000000000000000     
  -3.7050000000000000E-002     0.0000000000000000     
  -3.6999999999999998E-002     0.0000000000000000     
  -3.6950000000000004E-002     0.0000000000000000     
  -3.6900000000000002E-002     0.0000000000000000     
  -3.6850000000000001E-002     0.0000000000000000     
  -3.6799999999999999E-002     0.0000000000000000     
  -3.6749999999999998E-002     0.0000000000000000     
  -3.6700000000000003E-002     0.0000000000000000     
  -3.6650000000000002E-002     0.0000000000000000     
  -3.6600000000000001E-002     0.0000000000000000     
  -3.6549999999999999E-002     0.0000000000000000     
  -3.6499999999999998E-002     0.0000000000000000     
  -3.6450000000000003E-002     0.0000000000000000     
  -3.6400000000000002E-002     0.0000000000000000     
  -3.6350000000000000E-002     0.0000000000000000     
  -3.6299999999999999E-002     0.0000000000000000     
  -3.6249999999999998E-002     0.0000000000000000     
  -3.6200000000000003E-002     0.0000000000000000     
  -3.6150000000000002E-002     0.0000000000000000     
  -3.6100000000000000E-002     0.0000000000000000     
  -3.6049999999999999E-002     0.0000000000000000     
  -3.6000000000000004E-002     0.0000000000000000     
  -3.5950000000000003E-002     0.0000000000000000     
  -3.5900000000000001E-002     0.0000000000000000     
  -3.5850000000000000E-002     0.0000000000000000     
  -3.5799999999999998E-002     0.0000000000000000     
  -3.5750000000000004E-002     0.0000000000000000     
  -3.5700000000000003E-002     0.0000000000000000     
  -3.5650000000000001E-002     0.0000000000000000     
  -3.5600000000000000E-002     0.0000000000000000     
  -3.5549999999999998E-002     0.0000000000000000     
  -3.5500000000000004E-002     0.0000000000000000     
  -3.5450000000000002E-002     0.0000000000000000     
  -3.5400000000000001E-002     0.0000000000000000     
  -3.5349999999999999E-002     0.0000000000000000     
  -3.5299999999999998E-002     0.0000000000000000     
  -3.5250000000000004E-002     0.0000000000000000     
  -3.5200000000000002E-002     0.0000000000000000     
  -3.5150000000000001E-002     0.0000000000000000     
  -3.5099999999999999E-002     0.0000000000000000     
  -3.5049999999999998E-002     0.0000000000000000     
  -3.5000000000000003E-002     0.0000000000000000     
  -3.4950000000000002E-002     0.0000000000000000     
  -3.4900000000000000E-002     0.0000000000000000     
  -3.4849999999999999E-002     0.0000000000000000     
  -3.4799999999999998E-002     0.0000000000000000     
  -3.4750000000000003E-002     0.0000000000000000     
  -3.4700000000000002E-002     0.0000000000000000     
  -3.4650000000000000E-002     0.0000000000000000     
  -3.4599999999999999E-002     0.0000000000000000     
  -3.4549999999999997E-002     0.0000000000000000     
  -3.4500000000000003E-002     0.0000000000000000     
  -3.4450000000000001E-002     0.0000000000000000     
  -3.4400000000000000E-002     0.0000000000000000     
  -3.4349999999999999E-002     0.0000000000000000     
  -3.4299999999999997E-002     0.0000000000000000     
  -3.4250000000000003E-002     0.0000000000000000     
  -3.4200000000000001E-002     0.0000000000000000     
  -3.4150000000000000E-002     0.0000000000000000     
  -3.4099999999999998E-002     0.0000000000000000     
  -3.4049999999999997E-002     0.0000000000000000     
  -3.4000000000000002E-002     0.0000000000000000     
  -3.3950000000000001E-002     0.0000000000000000     
  -3.3900000000000000E-002     0.0000000000000000     
  -3.3849999999999998E-002     0.0000000000000000     
  -3.3799999999999997E-002     0.0000000000000000     
  -3.3750000000000002E-002     0.0000000000000000     
  -3.3700000000000001E-002     0.0000000000000000     
  -3.3649999999999999E-002     0.0000000000000000     
  -3.3599999999999998E-002     0.0000000000000000     
  -3.3550000000000003E-002     0.0000000000000000     
  -3.3500000000000002E-002     0.0000000000000000     
  -3.3450000000000001E-002     0.0000000000000000     
  -3.3399999999999999E-002     0.0000000000000000     
  -3.3349999999999998E-002     0.0000000000000000     
  -3.3300000000000003E-002     0.0000000000000000     
  -3.3250000000000002E-002     0.0000000000000000     
  -3.3200000000000000E-002     0.0000000000000000     
  -3.3149999999999999E-002     0.0000000000000000     
  -3.3099999999999997E-002     0.0000000000000000     
  -3.3050000000000003E-002     0.0000000000000000     
  -3.3000000000000002E-002     0.0000000000000000     
  -3.2950000000000000E-002     0.0000000000000000     
  -3.2899999999999999E-002     0.0000000000000000     
  -3.2850000000000004E-002     0.0000000000000000     
  -3.2800000000000003E-002     0.0000000000000000     
  -3.2750000000000001E-002     0.0000000000000000     
  -3.2700000000000000E-002     0.0000000000000000     
  -3.2649999999999998E-002     0.0000000000000000     
  -3.2600000000000004E-002     0.0000000000000000     
  -3.2550000000000003E-002     0.0000000000000000     
  -3.2500000000000001E-002     0.0000000000000000     
  -3.2450000000000000E-002     0.0000000000000000     
  -3.2399999999999998E-002     0.0000000000000000     
  -3.2350000000000004E-002     0.0000000000000000     
  -3.2300000000000002E-002     0.0000000000000000     
  -3.2250000000000001E-002     0.0000000000000000     
  -3.2199999999999999E-002     0.0000000000000000     
  -3.2149999999999998E-002     0.0000000000000000     
  -3.2100000000000004E-002     0.0000000000000000     
  -3.2050000000000002E-002     0.0000000000000000     
  -3.2000000000000001E-002     0.0000000000000000     
  -3.1949999999999999E-002     0.0000000000000000     
  -3.1899999999999998E-002     0.0000000000000000     
  -3.1850000000000003E-002     0.0000000000000000     
  -3.1800000000000002E-002     0.0000000000000000     
  -3.1750000000000000E-002     0.0000000000000000     
  -3.1699999999999999E-002     0.0000000000000000     
  -3.1649999999999998E-002     0.0000000000000000     
  -3.1600000000000003E-002     0.0000000000000000     
  -3.1550000000000002E-002     0.0000000000000000     
  -3.1500000000000000E-002     0.0000000000000000     
  -3.1449999999999999E-002     0.0000000000000000     
  -3.1399999999999997E-002     0.0000000000000000     
  -3.1350000000000003E-002     0.0000000000000000     
  -3.1300000000000001E-002     0.0000000000000000     
  -3.1250000000000000E-002     0.0000000000000000     
  -3.1199999999999999E-002     0.0000000000000000     
  -3.1150000000000001E-002     0.0000000000000000     
  -3.1100000000000003E-002     0.0000000000000000     
  -3.1050000000000001E-002     0.0000000000000000     
  -3.1000000000000000E-002     0.0000000000000000     
  -3.0949999999999998E-002     0.0000000000000000     
  -3.0900000000000000E-002     0.0000000000000000     
  -3.0850000000000002E-002     0.0000000000000000     
  -3.0800000000000001E-002     0.0000000000000000     
  -3.0750000000000000E-002     0.0000000000000000     
  -3.0699999999999998E-002     0.0000000000000000     
  -3.0650000000000000E-002     0.0000000000000000     
  -3.0600000000000002E-002     0.0000000000000000     
  -3.0550000000000001E-002     0.0000000000000000     
  -3.0499999999999999E-002     0.0000000000000000     
  -3.0449999999999998E-002     0.0000000000000000     
  -3.0400000000000000E-002     0.0000000000000000     
  -3.0350000000000002E-002     0.0000000000000000     
  -3.0300000000000001E-002     0.0000000000000000     
  -3.0249999999999999E-002     0.0000000000000000     
  -3.0200000000000001E-002     0.0000000000000000     
  -3.0150000000000000E-002     0.0000000000000000     
  -3.0100000000000002E-002     0.0000000000000000     
  -3.0050000000000000E-002     0.0000000000000000     
  -2.9999999999999999E-002     0.0000000000000000     
  -2.9950000000000001E-002     0.0000000000000000     
  -2.9899999999999999E-002     0.0000000000000000     
  -2.9850000000000002E-002     0.0000000000000000     
  -2.9800000000000000E-002     0.0000000000000000     
  -2.9749999999999999E-002     0.0000000000000000     
  -2.9700000000000001E-002     0.0000000000000000     
  -2.9650000000000003E-002     0.0000000000000000     
  -2.9600000000000001E-002     0.0000000000000000     
  -2.9550000000000000E-002     0.0000000000000000     
  -2.9499999999999998E-002     0.0000000000000000     
  -2.9450000000000000E-002     0.0000000000000000     
  -2.9400000000000003E-002     0.0000000000000000     
  -2.9350000000000001E-002     0.0000000000000000     
  -2.9300000000000000E-002     0.0000000000000000     
  -2.9249999999999998E-002     0.0000000000000000     
  -2.9200000000000000E-002     0.0000000000000000     
  -2.9150000000000002E-002     0.0000000000000000     
  -2.9100000000000001E-002     0.0000000000000000     
  -2.9049999999999999E-002     0.0000000000000000     
  -2.8999999999999998E-002     0.0000000000000000     
  -2.8950000000000000E-002     0.0000000000000000     
  -2.8900000000000002E-002     0.0000000000000000     
  -2.8850000000000001E-002     0.0000000000000000     
  -2.8799999999999999E-002     0.0000000000000000     
  -2.8749999999999998E-002     0.0000000000000000     
  -2.8700000000000000E-002     0.0000000000000000     
  -2.8650000000000002E-002     0.0000000000000000     
  -2.8600000000000000E-002     0.0000000000000000     
  -2.8549999999999999E-002     0.0000000000000000     
  -2.8500000000000001E-002     0.0000000000000000     
  -2.8450000000000000E-002     0.0000000000000000     
  -2.8400000000000002E-002     0.0000000000000000     
  -2.8350000000000000E-002     0.0000000000000000     
  -2.8299999999999999E-002     0.0000000000000000     
  -2.8250000000000001E-002     0.0000000000000000     
  -2.8200000000000003E-002     0.0000000000000000     
  -2.8150000000000001E-002     0.0000000000000000     
  -2.8100000000000000E-002     0.0000000000000000     
  -2.8049999999999999E-002     0.0000000000000000     
  -2.8000000000000001E-002     0.0000000000000000     
  -2.7950000000000003E-002     0.0000000000000000     
  -2.7900000000000001E-002     0.0000000000000000     
  -2.7850000000000000E-002     0.0000000000000000     
  -2.7799999999999998E-002     0.0000000000000000     
  -2.7750000000000000E-002     0.0000000000000000     
  -2.7700000000000002E-002     0.0000000000000000     
  -2.7650000000000001E-002     0.0000000000000000     
  -2.7600000000000000E-002     0.0000000000000000     
  -2.7549999999999998E-002     0.0000000000000000     
  -2.7500000000000000E-002     0.0000000000000000     
  -2.7450000000000002E-002     0.0000000000000000     
  -2.7400000000000001E-002     0.0000000000000000     
  -2.7349999999999999E-002     0.0000000000000000     
  -2.7299999999999998E-002     0.0000000000000000     
  -2.7250000000000000E-002     0.0000000000000000     
  -2.7200000000000002E-002     0.0000000000000000     
  -2.7150000000000001E-002     0.0000000000000000     
  -2.7099999999999999E-002     0.0000000000000000     
  -2.7049999999999998E-002     0.0000000000000000     
  -2.7000000000000000E-002     0.0000000000000000     
  -2.6950000000000002E-002     0.0000000000000000     
  -2.6900000000000000E-002     0.0000000000000000     
  -2.6849999999999999E-002     0.0000000000000000     
  -2.6800000000000001E-002     0.0000000000000000     
  -2.6749999999999999E-002     0.0000000000000000     
  -2.6700000000000002E-002     0.0000000000000000     
  -2.6650000000000000E-002     0.0000000000000000     
  -2.6599999999999999E-002     0.0000000000000000     
  -2.6550000000000001E-002     0.0000000000000000     
  -2.6500000000000003E-002     0.0000000000000000     
  -2.6450000000000001E-002     0.0000000000000000     
  -2.6400000000000000E-002     0.0000000000000000     
  -2.6349999999999998E-002     0.0000000000000000     
  -2.6300000000000000E-002     0.0000000000000000     
  -2.6250000000000002E-002     0.0000000000000000     
  -2.6200000000000001E-002     0.0000000000000000     
  -2.6150000000000000E-002     0.0000000000000000     
  -2.6099999999999998E-002     0.0000000000000000     
  -2.6050000000000000E-002     0.0000000000000000     
  -2.6000000000000002E-002     0.0000000000000000     
  -2.5950000000000001E-002     0.0000000000000000     
  -2.5899999999999999E-002     0.0000000000000000     
  -2.5849999999999998E-002     0.0000000000000000     
  -2.5800000000000000E-002     0.0000000000000000     
  -2.5750000000000002E-002     0.0000000000000000     
  -2.5700000000000001E-002     0.0000000000000000     
  -2.5649999999999999E-002     0.0000000000000000     
  -2.5599999999999998E-002     0.0000000000000000     
  -2.5550000000000000E-002     0.0000000000000000     
  -2.5500000000000002E-002     0.0000000000000000     
  -2.5450000000000000E-002     0.0000000000000000     
  -2.5399999999999999E-002     0.0000000000000000     
  -2.5349999999999998E-002     0.0000000000000000     
  -2.5300000000000000E-002     0.0000000000000000     
  -2.5250000000000002E-002     0.0000000000000000     
  -2.5200000000000000E-002     0.0000000000000000     
  -2.5149999999999999E-002     0.0000000000000000     
  -2.5100000000000001E-002     0.0000000000000000     
  -2.5049999999999999E-002     0.0000000000000000     
  -2.5000000000000001E-002     0.0000000000000000     
  -2.4950000000000000E-002     0.0000000000000000     
  -2.4899999999999999E-002     0.0000000000000000     
  -2.4850000000000001E-002     0.0000000000000000     
  -2.4800000000000003E-002     0.0000000000000000     
  -2.4750000000000001E-002     0.0000000000000000     
  -2.4700000000000000E-002     0.0000000000000000     
  -2.4649999999999998E-002     0.0000000000000000     
  -2.4600000000000000E-002     0.0000000000000000     
  -2.4550000000000002E-002     0.0000000000000000     
  -2.4500000000000001E-002     0.0000000000000000     
  -2.4450000000000000E-002     0.0000000000000000     
  -2.4399999999999998E-002     0.0000000000000000     
  -2.4350000000000000E-002     0.0000000000000000     
  -2.4299999999999999E-002     0.0000000000000000     
  -2.4250000000000001E-002     0.0000000000000000     
  -2.4199999999999999E-002     0.0000000000000000     
  -2.4150000000000001E-002     0.0000000000000000     
  -2.4100000000000000E-002     0.0000000000000000     
  -2.4049999999999998E-002     0.0000000000000000     
  -2.4000000000000000E-002     0.0000000000000000     
  -2.3949999999999999E-002     0.0000000000000000     
  -2.3900000000000001E-002     0.0000000000000000     
  -2.3850000000000000E-002     0.0000000000000000     
  -2.3800000000000002E-002     0.0000000000000000     
  -2.3750000000000000E-002     0.0000000000000000     
  -2.3699999999999999E-002     0.0000000000000000     
  -2.3650000000000001E-002     0.0000000000000000     
  -2.3599999999999999E-002     0.0000000000000000     
  -2.3550000000000001E-002     0.0000000000000000     
  -2.3500000000000000E-002     0.0000000000000000     
  -2.3449999999999999E-002     0.0000000000000000     
  -2.3400000000000001E-002     0.0000000000000000     
  -2.3349999999999999E-002     0.0000000000000000     
  -2.3300000000000001E-002     0.0000000000000000     
  -2.3250000000000000E-002     0.0000000000000000     
  -2.3199999999999998E-002     0.0000000000000000     
  -2.3150000000000000E-002     0.0000000000000000     
  -2.3099999999999999E-002     0.0000000000000000     
  -2.3050000000000001E-002     0.0000000000000000     
  -2.3000000000000000E-002     0.0000000000000000     
  -2.2950000000000002E-002     0.0000000000000000     
  -2.2900000000000000E-002     0.0000000000000000     
  -2.2849999999999999E-002     0.0000000000000000     
  -2.2800000000000001E-002     0.0000000000000000     
  -2.2749999999999999E-002     0.0000000000000000     
  -2.2700000000000001E-002     0.0000000000000000     
  -2.2650000000000000E-002     0.0000000000000000     
  -2.2599999999999999E-002     0.0000000000000000     
  -2.2550000000000001E-002     0.0000000000000000     
  -2.2499999999999999E-002     0.0000000000000000     
  -2.2450000000000001E-002     0.0000000000000000     
  -2.2400000000000000E-002     0.0000000000000000     
  -2.2349999999999998E-002     0.0000000000000000     
  -2.2300000000000000E-002     0.0000000000000000     
  -2.2249999999999999E-002     0.0000000000000000     
  -2.2200000000000001E-002     0.0000000000000000     
  -2.2150000000000000E-002     0.0000000000000000     
  -2.2100000000000002E-002     0.0000000000000000     
  -2.2050000000000000E-002     0.0000000000000000     
  -2.1999999999999999E-002     0.0000000000000000     
  -2.1950000000000001E-002     0.0000000000000000     
  -2.1899999999999999E-002     0.0000000000000000     
  -2.1850000000000001E-002     0.0000000000000000     
  -2.1800000000000000E-002     0.0000000000000000     
  -2.1749999999999999E-002     0.0000000000000000     
  -2.1700000000000001E-002     0.0000000000000000     
  -2.1649999999999999E-002     0.0000000000000000     
  -2.1600000000000001E-002     0.0000000000000000     
  -2.1550000000000000E-002     0.0000000000000000     
  -2.1499999999999998E-002     0.0000000000000000     
  -2.1450000000000000E-002     0.0000000000000000     
  -2.1399999999999999E-002     0.0000000000000000     
  -2.1350000000000001E-002     0.0000000000000000     
  -2.1299999999999999E-002     0.0000000000000000     
  -2.1250000000000002E-002     0.0000000000000000     
  -2.1200000000000000E-002     0.0000000000000000     
  -2.1149999999999999E-002     0.0000000000000000     
  -2.1100000000000001E-002     0.0000000000000000     
  -2.1049999999999999E-002     0.0000000000000000     
  -2.1000000000000001E-002     0.0000000000000000     
  -2.0950000000000000E-002     0.0000000000000000     
  -2.0899999999999998E-002     0.0000000000000000     
  -2.0850000000000000E-002     0.0000000000000000     
  -2.0799999999999999E-002     0.0000000000000000     
  -2.0750000000000001E-002     0.0000000000000000     
  -2.0700000000000000E-002     0.0000000000000000     
  -2.0649999999999998E-002     0.0000000000000000     
  -2.0600000000000000E-002     0.0000000000000000     
  -2.0549999999999999E-002     0.0000000000000000     
  -2.0500000000000001E-002     0.0000000000000000     
  -2.0449999999999999E-002     0.0000000000000000     
  -2.0400000000000001E-002     0.0000000000000000     
  -2.0350000000000000E-002     0.0000000000000000     
  -2.0299999999999999E-002     0.0000000000000000     
  -2.0250000000000001E-002     0.0000000000000000     
  -2.0199999999999999E-002     0.0000000000000000     
  -2.0150000000000001E-002     0.0000000000000000     
  -2.0100000000000000E-002     0.0000000000000000     
  -2.0049999999999998E-002     0.0000000000000000     
  -2.0000000000000000E-002     4.9573131932645740E-040
  -1.9949999999999999E-002     9.3896153426012820E-040
  -1.9900000000000001E-002     5.1000436241493591E-040
  -1.9850000000000000E-002     0.0000000000000000     
  -1.9799999999999998E-002    -1.1117601932832113E-039
  -1.9750000000000000E-002    -1.9183695607206695E-039
  -1.9699999999999999E-002    -1.1782397949613186E-039
  -1.9650000000000001E-002     0.0000000000000000     
  -1.9599999999999999E-002     0.0000000000000000     
  -1.9550000000000001E-002    -2.6078938589454517E-039
  -1.9500000000000000E-002    -5.1015662812760751E-039
  -1.9449999999999999E-002    -2.0579081503469930E-039
  -1.9400000000000001E-002     5.7335989032893503E-039
  -1.9349999999999999E-002     1.3413093419143100E-038
  -1.9300000000000001E-002     1.8877940241684098E-038
  -1.9250000000000000E-002     2.0161891714013264E-038
  -1.9199999999999998E-002     1.7500815272744793E-038
  -1.9150000000000000E-002     6.4306550292785997E-039
  -1.9099999999999999E-002    -1.1880074146153467E-038
  -1.9050000000000001E-002    -2.2189782456086633E-038
  -1.9000000000000000E-002    -2.0500192922290485E-038
  -1.8949999999999998E-002     1.5643630244062149E-040
  -1.8900000000000000E-002     1.5343442578036948E-038
  -1.8849999999999999E-002    -7.6423218937322053E-039
  -1.8800000000000001E-002    -7.1712522908790694E-038
  -1.8749999999999999E-002    -1.4843041530653657E-037
  -1.8700000000000001E-002    -1.8670191084862853E-037
  -1.8650000000000000E-002    -1.3011551269406851E-037
  -1.8599999999999998E-002     4.8504914984640307E-038
  -1.8550000000000001E-002     3.0886056176991945E-037
  -1.8499999999999999E-002     5.4837165330483351E-037
  -1.8450000000000001E-002     6.5457724403306518E-037
  -1.8400000000000000E-002     5.4623948423983540E-037
  -1.8349999999999998E-002     2.1411001676958258E-037
  -1.8300000000000000E-002    -2.8596482325769078E-037
  -1.8249999999999999E-002    -8.5045202973156804E-037
  -1.8200000000000001E-002    -1.3441888253170887E-036
  -1.8149999999999999E-002    -1.6219314272580617E-036
  -1.8100000000000002E-002    -1.5015135238866595E-036
  -1.8050000000000000E-002    -8.9271744081204269E-037
  -1.7999999999999999E-002     1.8840549970769979E-037
  -1.7950000000000001E-002     1.5612377673849283E-036
  -1.7899999999999999E-002     2.8863932094193720E-036
  -1.7850000000000001E-002     3.7460622763396353E-036
  -1.7800000000000000E-002     3.7763256941001776E-036
  -1.7749999999999998E-002     2.7965395732333444E-036
  -1.7700000000000000E-002     8.8039977403539939E-037
  -1.7649999999999999E-002    -1.6546477979256247E-036
  -1.7600000000000001E-002    -4.3260514083488287E-036
  -1.7550000000000000E-002    -6.5919839199886559E-036
  -1.7499999999999998E-002    -7.9456236026558536E-036
  -1.7450000000000000E-002    -7.9765150049899400E-036
  -1.7399999999999999E-002    -6.4033522855988220E-036
  -1.7350000000000001E-002    -3.0992603019407270E-036
  -1.7299999999999999E-002     1.8677655189515628E-036
  -1.7250000000000001E-002     8.1642105405370411E-036
  -1.7200000000000000E-002     1.5082083742675075E-035
  -1.7149999999999999E-002     2.1415381400220595E-035
  -1.7100000000000001E-002     2.5391822620285763E-035
  -1.7049999999999999E-002     2.4780521004190476E-035
  -1.7000000000000001E-002     1.7308747876032550E-035
  -1.6950000000000000E-002     1.4585915334178924E-036
  -1.6899999999999998E-002    -2.2453014032550988E-035
  -1.6850000000000000E-002    -5.1223245835540886E-035
  -1.6799999999999999E-002    -7.8240106565518763E-035
  -1.6750000000000001E-002    -9.4022211247606779E-035
  -1.6700000000000000E-002    -8.8163635508617392E-035
  -1.6649999999999998E-002    -5.2597885793335597E-035
  -1.6600000000000000E-002     1.4473837289029813E-035
  -1.6549999999999999E-002     1.0517628305725517E-034
  -1.6500000000000001E-002     2.0054084336912828E-034
  -1.6449999999999999E-002     2.7237328945182650E-034
  -1.6400000000000001E-002     2.8901063298682575E-034
  -1.6350000000000000E-002     2.2440784306518273E-034
  -1.6299999999999999E-002     6.8634955032419034E-035
  -1.6250000000000001E-002    -1.6327214254945722E-034
  -1.6199999999999999E-002    -4.2759736180171041E-034
  -1.6150000000000001E-002    -6.5621155181529908E-034
  -1.6100000000000000E-002    -7.6985762550742673E-034
  -1.6049999999999998E-002    -6.9882986804180682E-034
  -1.6000000000000000E-002    -4.0660601371971634E-034
  -1.5949999999999999E-002     9.0063011795222877E-035
  -1.5900000000000001E-002     7.1154000101178134E-034
  -1.5850000000000000E-002     1.3214598776860618E-033
  -1.5799999999999998E-002     1.7503694049152284E-033
  -1.5750000000000000E-002     1.8338299919724622E-033
  -1.5699999999999999E-002     1.4573629966624347E-033
  -1.5650000000000001E-002     5.9753269276616037E-034
  -1.5599999999999999E-002    -6.5203887916380071E-034
  -1.5550000000000001E-002    -2.0785228181208173E-033
  -1.5500000000000000E-002    -3.3755658524044735E-033
  -1.5449999999999998E-002    -4.1948079045572604E-033
  -1.5400000000000000E-002    -4.2156480832349268E-033
  -1.5349999999999999E-002    -3.2217586985050969E-033
  -1.5300000000000001E-002    -1.1711758761617124E-033
  -1.5250000000000000E-002     1.7529827443830697E-033
  -1.5199999999999998E-002     5.1228501851888284E-033
  -1.5150000000000000E-002     8.2873359804728651E-033
  -1.5099999999999999E-002     1.0443119351246762E-032
  -1.5050000000000001E-002     1.0759896663336844E-032
  -1.4999999999999999E-002     8.5573524719237896E-033
  -1.4949999999999998E-002     3.5182878340520143E-033
  -1.4900000000000000E-002    -4.0964228450102473E-033
  -1.4849999999999999E-002    -1.3286306860754137E-032
  -1.4800000000000001E-002    -2.2274203620583320E-032
  -1.4749999999999999E-002    -2.8664699950816243E-032
  -1.4700000000000001E-002    -2.9844218016410138E-032
  -1.4650000000000000E-002    -2.3613990345521271E-032
  -1.4599999999999998E-002    -8.9676891138256874E-033
  -1.4550000000000000E-002     1.3161596401343075E-032
  -1.4499999999999999E-002     3.9426653630061310E-032
  -1.4450000000000001E-002     6.4118855138807547E-032
  -1.4400000000000000E-002     7.9937326941520759E-032
  -1.4349999999999998E-002     7.9509537628336939E-032
  -1.4300000000000000E-002     5.7475513444097837E-032
  -1.4249999999999999E-002     1.2705447839984515E-032
  -1.4200000000000001E-002    -4.9967337466224404E-032
  -1.4149999999999999E-002    -1.1917291796765635E-031
  -1.4099999999999998E-002    -1.7812964146096461E-031
  -1.4050000000000000E-002    -2.0766420136905494E-031
  -1.3999999999999999E-002    -1.9082186292523729E-031
  -1.3950000000000001E-002    -1.1820901852622046E-031
  -1.3899999999999999E-002     7.2384929969572121E-033
  -1.3850000000000001E-002     1.6755474612722222E-031
  -1.3800000000000000E-002     3.3040812977523604E-031
  -1.3749999999999998E-002     4.5381987265750348E-031
  -1.3700000000000000E-002     4.9468294921438884E-031
  -1.3649999999999999E-002     4.1974467655223425E-031
  -1.3600000000000001E-002     2.1676068083895518E-031
  -1.3550000000000000E-002    -9.7023213183671637E-032
  -1.3499999999999998E-002    -4.7183320192864774E-031
  -1.3450000000000000E-002    -8.2975687300509780E-031
  -1.3399999999999999E-002    -1.0771258385985142E-030
  -1.3350000000000001E-002    -1.1236448121514092E-030
  -1.3299999999999999E-002    -9.0517855423147744E-031
  -1.3249999999999998E-002    -4.0564582905805783E-031
  -1.3200000000000000E-002     3.2725172118483993E-031
  -1.3149999999999998E-002     1.1774486020487312E-030
  -1.3100000000000001E-002     1.9706818481417609E-030
  -1.3049999999999999E-002     2.5006035238972005E-030
  -1.3000000000000001E-002     2.5688904704368304E-030
  -1.2950000000000000E-002     2.0339140009521002E-030
  -1.2899999999999998E-002     8.5928910180163064E-031
  -1.2850000000000000E-002    -8.4870807428355586E-031
  -1.2799999999999999E-002    -2.8265427242599445E-030