  -4.0000000000000001E-002     0.0000000000000000     
  -3.9949999999999999E-002     0.0000000000000000     
  -3.9899999999999998E-002     0.0000000000000000     
  -3.9850000000000003E-002     0.0000000000000000     
  -3.9800000000000002E-002     0.0000000000000000     
  -3.9750000000000001E-002     0.0000000000000000     
  -3.9699999999999999E-002     0.0000000000000000     
  -3.9649999999999998E-002     0.0000000000000000     
  -3.9600000000000003E-002     0.0000000000000000     
  -3.9550000000000002E-002     0.0000000000000000     
  -3.9500000000000000E-002     0.0000000000000000     
  -3.9449999999999999E-002     0.0000000000000000     
  -3.9399999999999998E-002     0.0000000000000000     
  -3.9350000000000003E-002     0.0000000000000000     
  -3.9300000000000002E-002     0.0000000000000000     
  -3.9250000000000000E-002     0.0000000000000000     
  -3.9199999999999999E-002     0.0000000000000000     
  -3.9150000000000004E-002     0.0000000000000000     
  -3.9100000000000003E-002     0.0000000000000000     
  -3.9050000000000001E-002     0.0000000000000000     
  -3.9000000000000000E-002     0.0000000000000000     
  -3.8949999999999999E-002     0.0000000000000000     
  -3.8900000000000004E-002     0.0000000000000000     
  -3.8850000000000003E-002     0.0000000000000000     
  -3.8800000000000001E-002     0.0000000000000000     
  -3.8750000000000000E-002     0.0000000000000000     
  -3.8699999999999998E-002     0.0000000000000000     
  -3.8650000000000004E-002     0.0000000000000000     
  -3.8600000000000002E-002     0.0000000000000000     
  -3.8550000000000001E-002     0.0000000000000000     
  -3.8500000000000000E-002     0.0000000000000000     
  -3.8449999999999998E-002     0.0000000000000000     
  -3.8400000000000004E-002     0.0000000000000000     
  -3.8350000000000002E-002     0.0000000000000000     
  -3.8300000000000001E-002     0.0000000000000000     
  -3.8249999999999999E-002     0.0000000000000000     
  -3.8199999999999998E-002     0.0000000000000000     
  -3.8150000000000003E-002     0.0000000000000000     
  -3.8100000000000002E-002     0.0000000000000000     
  -3.8050000000000000E-002     0.0000000000000000     
  -3.7999999999999999E-002     0.0000000000000000     
  -3.7949999999999998E-002     0.0000000000000000     
  -3.7900000000000003E-002     0.0000000000000000     
  -3.7850000000000002E-002     0.0000000000000000     
  -3.7800000000000000E-002     0.0000000000000000     
  -3.7749999999999999E-002     0.0000000000000000     
  -3.7699999999999997E-002     0.0000000000000000     
  -3.7650000000000003E-002     0.0000000000000000     
  -3.7600000000000001E-002     0.0000000000000000     
  -3.7550000000000000E-002     0.0000000000000000     
  -3.7499999999999999E-002     0.0000000000000000     
  -3.7449999999999997E-002     0.0000000000000000     
  -3.7400000000000003E-002     0.0000000000000000     
  -3.7350000000000001E-002     0.0000000000000000     
  -3.7300000000000000E-002     0.0000000000000000     
  -3.7249999999999998E-002     0.0000000000000000     
  -3.7200000000000004E-002     0.0000000000000000     
  -3.7150000000000002E-002     0.0000000000000000     
  -3.7100000000000001E-002     0.0000000000000000     
  -3.7050000000000000E-002     0.0000000000000000     
  -3.6999999999999998E-002     0.0000000000000000     
  -3.6950000000000004E-002     0.0000000000000000     
  -3.6900000000000002E-002     0.0000000000000000     
  -3.6850000000000001E-002     0.0000000000000000     
  -3.6799999999999999E-002     0.0000000000000000     
  -3.6749999999999998E-002     0.0000000000000000     
  -3.6700000000000003E-002     0.0000000000000000     
  -3.6650000000000002E-002     0.0000000000000000     
  -3.6600000000000001E-002     0.0000000000000000     
  -3.6549999999999999E-002     0.0000000000000000     
  -3.6499999999999998E-002     0.0000000000000000     
  -3.6450000000000003E-002     0.0000000000000000     
  -3.6400000000000002E-002     0.0000000000000000     
  -3.6350000000000000E-002     0.0000000000000000     
  -3.6299999999999999E-002     0.0000000000000000     
  -3.6249999999999998E-002     0.0000000000000000     
  -3.6200000000000003E-002     0.0000000000000000     
  -3.6150000000000002E-002     0.0000000000000000     
  -3.6100000000000000E-002     0.0000000000000000     
  -3.6049999999999999E-002     0.0000000000000000     
  -3.6000000000000004E-002     0.0000000000000000     
  -3.5950000000000003E-002     0.0000000000000000     
  -3.5900000000000001E-002     0.0000000000000000     
  -3.5850000000000000E-002     0.0000000000000000     
  -3.5799999999999998E-002     0.0000000000000000     
  -3.5750000000000004E-002     0.0000000000000000     
  -3.5700000000000003E-002     0.0000000000000000     
  -3.5650000000000001E-002     0.0000000000000000     
  -3.5600000000000000E-002     0.0000000000000000     
  -3.5549999999999998E-002     0.0000000000000000     
  -3.5500000000000004E-002     0.0000000000000000     
  -3.5450000000000002E-002     0.0000000000000000     
  -3.5400000000000001E-002     0.0000000000000000     
  -3.5349999999999999E-002     0.0000000000000000     
  -3.5299999999999998E-002     0.0000000000000000     
  -3.5250000000000004E-002     0.0000000000000000     
  -3.5200000000000002E-002     0.0000000000000000     
  -3.5150000000000001E-002     0.0000000000000000     
  -3.5099999999999999E-002     0.0000000000000000     
  -3.5049999999999998E-002     0.0000000000000000     
  -3.5000000000000003E-002     0.0000000000000000     
  -3.4950000000000002E-002     0.0000000000000000     
  -3.4900000000000000E-002     0.0000000000000000     
  -3.4849999999999999E-002     0.0000000000000000     
  -3.4799999999999998E-002     0.0000000000000000     
  -3.4750000000000003E-002     0.0000000000000000     
  -3.4700000000000002E-002     0.0000000000000000     
  -3.4650000000000000E-002     0.0000000000000000     
  -3.4599999999999999E-002     0.0000000000000000     
  -3.4549999999999997E-002     0.0000000000000000     
  -3.4500000000000003E-002     0.0000000000000000     
  -3.4450000000000001E-002     0.0000000000000000     
  -3.4400000000000000E-002     0.0000000000000000     
  -3.4349999999999999E-002     0.0000000000000000     
  -3.4299999999999997E-002     0.0000000000000000     
  -3.4250000000000003E-002     0.0000000000000000     
  -3.4200000000000001E-002     0.0000000000000000     
  -3.4150000000000000E-002     0.0000000000000000     
  -3.4099999999999998E-002     0.0000000000000000     
  -3.4049999999999997E-002     0.0000000000000000     
  -3.4000000000000002E-002     0.0000000000000000     
  -3.3950000000000001E-002     0.0000000000000000     
  -3.3900000000000000E-002     0.0000000000000000     
  -3.3849999999999998E-002     0.0000000000000000     
  -3.3799999999999997E-002     0.0000000000000000     
  -3.3750000000000002E-002     0.0000000000000000     
  -3.3700000000000001E-002     0.0000000000000000     
  -3.3649999999999999E-002     0.0000000000000000     
  -3.3599999999999998E-002     0.0000000000000000     
  -3.3550000000000003E-002     0.0000000000000000     
  -3.3500000000000002E-002     0.0000000000000000     
  -3.3450000000000001E-002     0.0000000000000000     
  -3.3399999999999999E-002     0.0000000000000000     
  -3.3349999999999998E-002     0.0000000000000000     
  -3.3300000000000003E-002     0.0000000000000000     
  -3.3250000000000002E-002     0.0000000000000000     
  -3.3200000000000000E-002     0.0000000000000000     
  -3.3149999999999999E-002     0.0000000000000000     
  -3.3099999999999997E-002     0.0000000000000000     
  -3.3050000000000003E-002     0.0000000000000000     
  -3.3000000000000002E-002     0.0000000000000000     
  -3.2950000000000000E-002     0.0000000000000000     
  -3.2899999999999999E-002     0.0000000000000000     
  -3.2850000000000004E-002     0.0000000000000000     
  -3.2800000000000003E-002     0.0000000000000000     
  -3.2750000000000001E-002     0.0000000000000000     
  -3.2700000000000000E-002     0.0000000000000000     
  -3.2649999999999998E-002     0.0000000000000000     
  -3.2600000000000004E-002     0.0000000000000000     
  -3.2550000000000003E-002     0.0000000000000000     
  -3.2500000000000001E-002     0.0000000000000000     
  -3.2450000000000000E-002     0.0000000000000000     
  -3.2399999999999998E-002     0.0000000000000000     
  -3.2350000000000004E-002     0.0000000000000000     
  -3.2300000000000002E-002     0.0000000000000000     
  -3.2250000000000001E-002     0.0000000000000000     
  -3.2199999999999999E-002     0.0000000000000000     
  -3.2149999999999998E-002     0.0000000000000000     
  -3.2100000000000004E-002     0.0000000000000000     
  -3.2050000000000002E-002     0.0000000000000000     
  -3.2000000000000001E-002     0.0000000000000000     
  -3.1949999999999999E-002     0.0000000000000000     
  -3.1899999999999998E-002     0.0000000000000000     
  -3.1850000000000003E-002     0.0000000000000000     
  -3.1800000000000002E-002     0.0000000000000000     
  -3.1750000000000000E-002     0.0000000000000000     
  -3.1699999999999999E-002     0.0000000000000000     
  -3.1649999999999998E-002     0.0000000000000000     
  -3.1600000000000003E-002     0.0000000000000000     
  -3.1550000000000002E-002     0.0000000000000000     
  -3.1500000000000000E-002     0.0000000000000000     
  -3.1449999999999999E-002     0.0000000000000000     
  -3.1399999999999997E-002     0.0000000000000000     
  -3.1350000000000003E-002     0.0000000000000000     
  -3.1300000000000001E-002     0.0000000000000000     
  -3.1250000000000000E-002     0.0000000000000000     
  -3.1199999999999999E-002     0.0000000000000000     
  -3.1150000000000001E-002     0.0000000000000000     
  -3.1100000000000003E-002     0.0000000000000000     
  -3.1050000000000001E-002     0.0000000000000000     
  -3.1000000000000000E-002     0.0000000000000000     
  -3.0949999999999998E-002     0.0000000000000000     
  -3.0900000000000000E-002     0.0000000000000000     
  -3.0850000000000002E-002     0.0000000000000000     
  -3.0800000000000001E-002     0.0000000000000000     
  -3.0750000000000000E-002     0.0000000000000000     
  -3.0699999999999998E-002     0.0000000000000000     
  -3.0650000000000000E-002     0.0000000000000000     
  -3.0600000000000002E-002     0.0000000000000000     
  -3.0550000000000001E-002     0.0000000000000000     
  -3.0499999999999999E-002     0.0000000000000000     
  -3.0449999999999998E-002     0.0000000000000000     
  -3.0400000000000000E-002     0.0000000000000000     
  -3.0350000000000002E-002     0.0000000000000000     
  -3.0300000000000001E-002     0.0000000000000000     
  -3.0249999999999999E-002     0.0000000000000000     
  -3.0200000000000001E-002     0.0000000000000000     
  -3.0150000000000000E-002     0.0000000000000000     
  -3.0100000000000002E-002     0.0000000000000000     
  -3.0050000000000000E-002     0.0000000000000000     
  -2.9999999999999999E-002     0.0000000000000000     
  -2.9950000000000001E-002     0.0000000000000000     
  -2.9899999999999999E-002     0.0000000000000000     
  -2.9850000000000002E-002     0.0000000000000000     
  -2.9800000000000000E-002     0.0000000000000000     
  -2.9749999999999999E-002     0.0000000000000000     
  -2.9700000000000001E-002     0.0000000000000000     
  -2.9650000000000003E-002     0.0000000000000000     
  -2.9600000000000001E-002     0.0000000000000000     
  -2.9550000000000000E-002     0.0000000000000000     
  -2.9499999999999998E-002     0.0000000000000000     
  -2.9450000000000000E-002     0.0000000000000000     
  -2.9400000000000003E-002     0.0000000000000000     
  -2.9350000000000001E-002     0.0000000000000000     
  -2.9300000000000000E-002     0.0000000000000000     
  -2.9249999999999998E-002     0.0000000000000000     
  -2.9200000000000000E-002     0.0000000000000000     
  -2.9150000000000002E-002     0.0000000000000000     
  -2.9100000000000001E-002     0.0000000000000000     
  -2.9049999999999999E-002     0.0000000000000000     
  -2.8999999999999998E-002     0.0000000000000000     
  -2.8950000000000000E-002     0.0000000000000000     
  -2.8900000000000002E-002     0.0000000000000000     
  -2.8850000000000001E-002     0.0000000000000000     
  -2.8799999999999999E-002     0.0000000000000000     
  -2.8749999999999998E-002     0.0000000000000000     
  -2.8700000000000000E-002     0.0000000000000000     
  -2.8650000000000002E-002     0.0000000000000000     
  -2.8600000000000000E-002     0.0000000000000000     
  -2.8549999999999999E-002     0.0000000000000000     
  -2.8500000000000001E-002     0.0000000000000000     
  -2.8450000000000000E-002     0.0000000000000000     
  -2.8400000000000002E-002     0.0000000000000000     
  -2.8350000000000000E-002     0.0000000000000000     
  -2.8299999999999999E-002     0.0000000000000000     
  -2.8250000000000001E-002     0.0000000000000000     
  -2.8200000000000003E-002     0.0000000000000000     
  -2.8150000000000001E-002     0.0000000000000000     
  -2.8100000000000000E-002     0.0000000000000000     
  -2.8049999999999999E-002     0.0000000000000000     
  -2.8000000000000001E-002     0.0000000000000000     
  -2.7950000000000003E-002     0.0000000000000000     
  -2.7900000000000001E-002     0.0000000000000000     
  -2.7850000000000000E-002     0.0000000000000000     
  -2.7799999999999998E-002     0.0000000000000000     
  -2.7750000000000000E-002     0.0000000000000000     
  -2.7700000000000002E-002     0.0000000000000000     
  -2.7650000000000001E-002     0.0000000000000000     
  -2.7600000000000000E-002     0.0000000000000000     
  -2.7549999999999998E-002     0.0000000000000000     
  -2.7500000000000000E-002     0.0000000000000000     
  -2.7450000000000002E-002     0.0000000000000000     
  -2.7400000000000001E-002     0.0000000000000000     
  -2.7349999999999999E-002     0.0000000000000000     
  -2.7299999999999998E-002     0.0000000000000000     
  -2.7250000000000000E-002     0.0000000000000000     
  -2.7200000000000002E-002     0.0000000000000000     
  -2.7150000000000001E-002     0.0000000000000000     
  -2.7099999999999999E-002     0.0000000000000000     
  -2.7049999999999998E-002     0.0000000000000000     
  -2.7000000000000000E-002     0.0000000000000000     
  -2.6950000000000002E-002     0.0000000000000000     
  -2.6900000000000000E-002     0.0000000000000000     
  -2.6849999999999999E-002     0.0000000000000000     
  -2.6800000000000001E-002     0.0000000000000000     
  -2.6749999999999999E-002     0.0000000000000000     
  -2.6700000000000002E-002     0.0000000000000000     
  -2.6650000000000000E-002     0.0000000000000000     
  -2.6599999999999999E-002     0.0000000000000000     
  -2.6550000000000001E-002     0.0000000000000000     
  -2.6500000000000003E-002     0.0000000000000000     
  -2.6450000000000001E-002     0.0000000000000000     
  -2.6400000000000000E-002     0.0000000000000000     
  -2.6349999999999998E-002     0.0000000000000000     
  -2.6300000000000000E-002     0.0000000000000000     
  -2.6250000000000002E-002     0.0000000000000000     
  -2.6200000000000001E-002     0.0000000000000000     
  -2.6150000000000000E-002     0.0000000000000000     
  -2.6099999999999998E-002     0.0000000000000000     
  -2.6050000000000000E-002     0.0000000000000000     
  -2.6000000000000002E-002     0.0000000000000000     
  -2.5950000000000001E-002     0.0000000000000000     
  -2.5899999999999999E-002     0.0000000000000000     
  -2.5849999999999998E-002     0.0000000000000000     
  -2.5800000000000000E-002     0.0000000000000000     
  -2.5750000000000002E-002     0.0000000000000000     
  -2.5700000000000001E-002     0.0000000000000000     
  -2.5649999999999999E-002     0.0000000000000000     
  -2.5599999999999998E-002     0.0000000000000000     
  -2.5550000000000000E-002     0.0000000000000000     
  -2.5500000000000002E-002     0.0000000000000000     
  -2.5450000000000000E-002     0.0000000000000000     
  -2.5399999999999999E-002     0.0000000000000000     
  -2.5349999999999998E-002     0.0000000000000000     
  -2.5300000000000000E-002     0.0000000000000000     
  -2.5250000000000002E-002     0.0000000000000000     
  -2.5200000000000000E-002     0.0000000000000000     
  -2.5149999999999999E-002     0.0000000000000000     
  -2.5100000000000001E-002     0.0000000000000000     
  -2.5049999999999999E-002     0.0000000000000000     
  -2.5000000000000001E-002     0.0000000000000000     
  -2.4950000000000000E-002     0.0000000000000000     
  -2.4899999999999999E-002     0.0000000000000000     
  -2.4850000000000001E-002     0.0000000000000000     
  -2.4800000000000003E-002     0.0000000000000000     
  -2.4750000000000001E-002     0.0000000000000000     
  -2.4700000000000000E-002     0.0000000000000000     
  -2.4649999999999998E-002     0.0000000000000000     
  -2.4600000000000000E-002     0.0000000000000000     
  -2.4550000000000002E-002     0.0000000000000000     
  -2.4500000000000001E-002     0.0000000000000000     
  -2.4450000000000000E-002     0.0000000000000000     
  -2.4399999999999998E-002     0.0000000000000000     
  -2.4350000000000000E-002     0.0000000000000000     
  -2.4299999999999999E-002     0.0000000000000000     
  -2.4250000000000001E-002     0.0000000000000000     
  -2.4199999999999999E-002     0.0000000000000000     
  -2.4150000000000001E-002     0.0000000000000000     
  -2.4100000000000000E-002     0.0000000000000000     
  -2.4049999999999998E-002     0.0000000000000000     
  -2.4000000000000000E-002     0.0000000000000000     
  -2.3949999999999999E-002     0.0000000000000000     
  -2.3900000000000001E-002     0.0000000000000000     
  -2.3850000000000000E-002     0.0000000000000000     
  -2.3800000000000002E-002     0.0000000000000000     
  -2.3750000000000000E-002     0.0000000000000000     
  -2.3699999999999999E-002     0.0000000000000000     
  -2.3650000000000001E-002     0.0000000000000000     
  -2.3599999999999999E-002     0.0000000000000000     
  -2.3550000000000001E-002     0.0000000000000000     
  -2.3500000000000000E-002     0.0000000000000000     
  -2.3449999999999999E-002     0.0000000000000000     
  -2.3400000000000001E-002     0.0000000000000000     
  -2.3349999999999999E-002     0.0000000000000000     
  -2.3300000000000001E-002     0.0000000000000000     
  -2.3250000000000000E-002     0.0000000000000000     
  -2.3199999999999998E-002     0.0000000000000000     
  -2.3150000000000000E-002     0.0000000000000000     
  -2.3099999999999999E-002     0.0000000000000000     
  -2.3050000000000001E-002     0.0000000000000000     
  -2.3000000000000000E-002     0.0000000000000000     
  -2.2950000000000002E-002     0.0000000000000000     
  -2.2900000000000000E-002     0.0000000000000000     
  -2.2849999999999999E-002     0.0000000000000000     
  -2.2800000000000001E-002     0.0000000000000000     
  -2.2749999999999999E-002     0.0000000000000000     
  -2.2700000000000001E-002     0.0000000000000000     
  -2.2650000000000000E-002     0.0000000000000000     
  -2.2599999999999999E-002     0.0000000000000000     
  -2.2550000000000001E-002     0.0000000000000000     
  -2.2499999999999999E-002     0.0000000000000000     
  -2.2450000000000001E-002     0.0000000000000000     
  -2.2400000000000000E-002     0.0000000000000000     
  -2.2349999999999998E-002     0.0000000000000000     
  -2.2300000000000000E-002     0.0000000000000000     
  -2.2249999999999999E-002     0.0000000000000000     
  -2.2200000000000001E-002     0.0000000000000000     
  -2.2150000000000000E-002     0.0000000000000000     
  -2.2100000000000002E-002     0.0000000000000000     
  -2.2050000000000000E-002     0.0000000000000000     
  -2.1999999999999999E-002     0.0000000000000000     
  -2.1950000000000001E-002     0.0000000000000000     
  -2.1899999999999999E-002     0.0000000000000000     
  -2.1850000000000001E-002     0.0000000000000000     
  -2.1800000000000000E-002     0.0000000000000000     
  -2.1749999999999999E-002     0.0000000000000000     
  -2.1700000000000001E-002     0.0000000000000000     
  -2.1649999999999999E-002     0.0000000000000000     
  -2.1600000000000001E-002     0.0000000000000000     
  -2.1550000000000000E-002     0.0000000000000000     
  -2.1499999999999998E-002     0.0000000000000000     
  -2.1450000000000000E-002     0.0000000000000000     
  -2.1399999999999999E-002     0.0000000000000000     
  -2.1350000000000001E-002     0.0000000000000000     
  -2.1299999999999999E-002     0.0000000000000000     
  -2.1250000000000002E-002     0.0000000000000000     
  -2.1200000000000000E-002     0.0000000000000000     
  -2.1149999999999999E-002     0.0000000000000000     
  -2.1100000000000001E-002     0.0000000000000000     
  -2.1049999999999999E-002     0.0000000000000000     
  -2.1000000000000001E-002     0.0000000000000000     
  -2.0950000000000000E-002     0.0000000000000000     
  -2.0899999999999998E-002     0.0000000000000000     
  -2.0850000000000000E-002     0.0000000000000000     
  -2.0799999999999999E-002     0.0000000000000000     
  -2.0750000000000001E-002    -2.6668949988308386E-040
  -2.0700000000000000E-002    -5.2067488292291762E-040
  -2.0649999999999998E-002    -2.6751152347053796E-040
  -2.0600000000000000E-002     5.7760693430675602E-040
  -2.0549999999999999E-002     1.4594930064960589E-039
  -2.0500000000000001E-002     1.9059698125499288E-039
  -2.0449999999999999E-002     1.5748930655637912E-039
  -2.0400000000000001E-002     1.2188852698911351E-039
  -2.0350000000000000E-002     6.0832879332619453E-040
  -2.0299999999999999E-002    -1.9629352019646571E-038
  -2.0250000000000001E-002    -4.4714200987645200E-038
  -2.0199999999999999E-002    -4.7940472640881337E-038
  -2.0150000000000001E-002    -4.9833464624802517E-038
  -2.0100000000000000E-002     9.5550431090507413E-039
  -2.0049999999999998E-002     6.9767083310658601E-038
  -2.0000000000000000E-002     1.2198157199451841E-037
  -1.9949999999999999E-002     1.2517440040275333E-037
  -1.9900000000000001E-002     1.1690324776852323E-037
  -1.9850000000000000E-002     9.5976618518586052E-038
  -1.9799999999999998E-002     7.1815828607490793E-038
  -1.9750000000000000E-002     3.3577255682280720E-038
  -1.9699999999999999E-002    -7.0812031930023112E-038
  -1.9650000000000001E-002    -2.1888292624347622E-037
  -1.9599999999999999E-002    -3.6880170259926711E-037
  -1.9550000000000001E-002    -4.6607746041614272E-037
  -1.9500000000000000E-002    -4.7172295871517782E-037
  -1.9449999999999999E-002    -3.6484749066450583E-037
  -1.9400000000000001E-002    -1.3032948260719108E-037
  -1.9349999999999999E-002     2.5082037748755868E-037
  -1.9300000000000001E-002     7.8490382699409735E-037
  -1.9250000000000000E-002     1.4150740297185052E-036
  -1.9199999999999998E-002     1.9724109554918023E-036
  -1.9150000000000000E-002     2.1716854548462119E-036
  -1.9099999999999999E-002     1.6935538308583670E-036
  -1.9050000000000001E-002     3.2998365943461262E-037
  -1.9000000000000000E-002    -1.8633081470930199E-036
  -1.8949999999999998E-002    -4.4692905281749782E-036
  -1.8900000000000000E-002    -6.7307620360937178E-036
  -1.8849999999999999E-002    -7.7021926075056503E-036
  -1.8800000000000001E-002    -6.5078718993405002E-036
  -1.8749999999999999E-002    -2.6635376722888327E-036
  -1.8700000000000001E-002     3.6195916172178748E-036
  -1.8650000000000000E-002     1.1238508827824167E-035
  -1.8599999999999998E-002     1.8216159977574298E-035
  -1.8550000000000001E-002     2.2026496851872585E-035
  -1.8499999999999999E-002     2.0247241618797653E-035
  -1.8450000000000001E-002     1.1426431908227225E-035
  -1.8400000000000000E-002    -4.0818111980082167E-036
  -1.8349999999999998E-002    -2.3639763110810368E-035
  -1.8300000000000000E-002    -4.2488809590444790E-035
  -1.8249999999999999E-002    -5.4664082526862155E-035
  -1.8200000000000001E-002    -5.4529705416753030E-035
  -1.8149999999999999E-002    -3.8570652140378918E-035
  -1.8100000000000002E-002    -6.9388483960995008E-036
  -1.8050000000000000E-002     3.5748324379056107E-035
  -1.7999999999999999E-002     8.0709499409641499E-035
  -1.7950000000000001E-002     1.1648959054810329E-034
  -1.7899999999999999E-002     1.3141004824670772E-034
  -1.7850000000000001E-002     1.1646807230857640E-034
  -1.7800000000000000E-002     6.8004167290689890E-035
  -1.7749999999999998E-002    -1.0513946377335932E-035
  -1.7700000000000000E-002    -1.0802893899396788E-034
  -1.7649999999999999E-002    -2.0686720833297412E-034
  -1.7600000000000001E-002    -2.8496974436405305E-034
  -1.7550000000000000E-002    -3.1906727904091766E-034
  -1.7499999999999998E-002    -2.8854258388554937E-034
  -1.7450000000000000E-002    -1.7986417532152532E-034
  -1.7399999999999999E-002     8.5014319653042475E-036
  -1.7350000000000001E-002     2.6108797052163119E-034
  -1.7299999999999999E-002     5.4140101066818978E-034
  -1.7250000000000001E-002     7.9079437170243405E-034
  -1.7200000000000000E-002     9.3281072866783998E-034
  -1.7149999999999999E-002     8.8535505208752680E-034
  -1.7100000000000001E-002     5.8156267304708112E-034
  -1.7049999999999999E-002    -2.7252487929539613E-036
  -1.7000000000000001E-002    -8.2086027369781673E-034
  -1.6950000000000000E-002    -1.7363046867613452E-033
  -1.6899999999999998E-002    -2.5239407064898971E-033
  -1.6850000000000000E-002    -2.9012673689526231E-033
  -1.6799999999999999E-002    -2.5925431396106256E-033
  -1.6750000000000001E-002    -1.4184430614449601E-033
  -1.6700000000000000E-002     6.0843588813027338E-034
  -1.6649999999999998E-002     3.2119512431798747E-033
  -1.6600000000000000E-002     5.8377804216009492E-033
  -1.6549999999999999E-002     7.7219120124326914E-033
  -1.6500000000000001E-002     8.0499180049104814E-033
  -1.6449999999999999E-002     6.1873618406976700E-033
  -1.6400000000000001E-002     1.9320305103897711E-033
  -1.6350000000000000E-002    -4.2839373175807552E-033
  -1.6299999999999999E-002    -1.1320001927246305E-032
  -1.6250000000000001E-002    -1.7442059624575525E-032
  -1.6199999999999999E-002    -2.0645951777837516E-032
  -1.6150000000000001E-002    -1.9151610662555302E-032
  -1.6100000000000000E-002    -1.1969261131897130E-032
  -1.6049999999999998E-002     6.0620300054565892E-034
  -1.6000000000000000E-002     1.6729614889348984E-032
  -1.5949999999999999E-002     3.3096492802347159E-032
  -1.5900000000000001E-002     4.5447491307502045E-032
  -1.5850000000000000E-002     4.9443965568561612E-032
  -1.5799999999999998E-002     4.1767117303077902E-032
  -1.5750000000000000E-002     2.1209636058946820E-032
  -1.5699999999999999E-002    -1.0510054098413601E-032
  -1.5650000000000001E-002    -4.8460334705367946E-032
  -1.5599999999999999E-002    -8.4906178761359919E-032
  -1.5550000000000001E-002    -1.1046195521238723E-031
  -1.5500000000000000E-002    -1.1588506155526335E-031
  -1.5449999999999998E-002    -9.4261922488674680E-032
  -1.5400000000000000E-002    -4.3215165800917512E-032
  -1.5349999999999999E-002     3.3321116493939988E-032
  -1.5300000000000001E-002     1.2423855985636378E-031
  -1.5250000000000000E-002     2.1174184173813066E-031
  -1.5199999999999998E-002     2.7349296671301138E-031
  -1.5150000000000000E-002     2.8647986773457116E-031
  -1.5099999999999999E-002     2.3232126804630021E-031
  -1.5050000000000001E-002     1.0326940288706251E-031
  -1.4999999999999999E-002    -9.2303121406625460E-032
  -1.4949999999999998E-002    -3.2651986494985887E-031
  -1.4900000000000000E-002    -5.5241152957276651E-031
  -1.4849999999999999E-002    -7.0947237081899541E-031
  -1.4800000000000001E-002    -7.3482239821634416E-031
  -1.4749999999999999E-002    -5.7902200690858593E-031
  -1.4700000000000001E-002    -2.2386706841490667E-031
  -1.4650000000000000E-002     3.0210682792700687E-031
  -1.4599999999999998E-002     9.1561226153764940E-031
  -1.4550000000000000E-002     1.4829935850085516E-030
  -1.4499999999999999E-002     1.8400203084566053E-030
  -1.4450000000000001E-002     1.8266558973581813E-030
  -1.4400000000000000E-002     1.3318646595823365E-030
  -1.4349999999999998E-002     3.3902715002430816E-031
  -1.4300000000000000E-002    -1.0406100551447335E-030
  -1.4249999999999999E-002    -2.5594461068001823E-030
  -1.4200000000000001E-002    -3.8597748980271812E-030
  -1.4149999999999999E-002    -4.5375806016942027E-030
  -1.4099999999999998E-002    -4.2370062103351158E-030
  -1.4050000000000000E-002    -2.7582401377796364E-030
  -1.3999999999999999E-002    -1.5331153716427490E-031
  -1.3950000000000001E-002     3.2190417239770010E-030
  -1.3899999999999999E-002     6.7045591471523670E-030
  -1.3850000000000001E-002     9.4444812733477176E-030
  -1.3800000000000000E-002     1.0542557471619243E-029
  -1.3749999999999998E-002     9.2836018420567182E-030
  -1.3700000000000000E-002     5.3603252524933937E-030
  -1.3649999999999999E-002    -9.4670112455882044E-031
  -1.3600000000000001E-002    -8.6917413654712411E-030
  -1.3550000000000000E-002    -1.6332105720761495E-029
  -1.3499999999999998E-002    -2.1958800595233596E-029
  -1.3450000000000000E-002    -2.3671384756348495E-029
  -1.3399999999999999E-002    -2.0040684104203730E-029
  -1.3350000000000001E-002    -1.0570154381294339E-029
  -1.3299999999999999E-002     3.9528546091137888E-030
  -1.3249999999999998E-002     2.1323960488899108E-029
  -1.3200000000000000E-002     3.8089987765287437E-029
  -1.3149999999999998E-002     5.0053013108345517E-029
  -1.3100000000000001E-002     5.3076937932029028E-029
  -1.3049999999999999E-002     4.4086352632481631E-029
  -1.3000000000000001E-002     2.2075196402065862E-029
  -1.2950000000000000E-002    -1.1107533576350280E-029
  -1.2899999999999998E-002    -5.0439260805264785E-029
  -1.2850000000000000E-002    -8.8075225252863610E-029
  -1.2799999999999999E-002    -1.1447142187333637E-028