  -4.0000000000000001E-002     0.0000000000000000     
  -3.9949999999999999E-002     0.0000000000000000     
  -3.9899999999999998E-002     0.0000000000000000     
  -3.9850000000000003E-002     0.0000000000000000     
  -3.9800000000000002E-002     0.0000000000000000     
  -3.9750000000000001E-002     0.0000000000000000     
  -3.9699999999999999E-002     0.0000000000000000     
  -3.9649999999999998E-002     0.0000000000000000     
  -3.9600000000000003E-002     0.0000000000000000     
  -3.9550000000000002E-002     0.0000000000000000     
  -3.9500000000000000E-002     0.0000000000000000     
  -3.9449999999999999E-002     0.0000000000000000     
  -3.9399999999999998E-002     0.0000000000000000     
  -3.9350000000000003E-002     0.0000000000000000     
  -3.9300000000000002E-002     0.0000000000000000     
  -3.9250000000000000E-002     0.0000000000000000     
  -3.9199999999999999E-002     0.0000000000000000     
  -3.9150000000000004E-002     0.0000000000000000     
  -3.9100000000000003E-002     0.0000000000000000     
  -3.9050000000000001E-002     0.0000000000000000     
  -3.9000000000000000E-002     0.0000000000000000     
  -3.8949999999999999E-002     0.0000000000000000     
  -3.8900000000000004E-002     0.0000000000000000     
  -3.8850000000000003E-002     0.0000000000000000     
  -3.8800000000000001E-002     0.0000000000000000     
  -3.8750000000000000E-002     0.0000000000000000     
  -3.8699999999999998E-002     0.0000000000000000     
  -3.8650000000000004E-002     0.0000000000000000     
  -3.8600000000000002E-002     0.0000000000000000     
  -3.8550000000000001E-002     0.0000000000000000     
  -3.8500000000000000E-002     0.0000000000000000     
  -3.8449999999999998E-002     0.0000000000000000     
  -3.8400000000000004E-002     0.0000000000000000     
  -3.8350000000000002E-002     0.0000000000000000     
  -3.8300000000000001E-002     0.0000000000000000     
  -3.8249999999999999E-002     0.0000000000000000     
  -3.8199999999999998E-002     0.0000000000000000     
  -3.8150000000000003E-002     0.0000000000000000     
  -3.8100000000000002E-002     0.0000000000000000     
  -3.8050000000000000E-002     0.0000000000000000     
  -3.7999999999999999E-002     0.0000000000000000     
  -3.7949999999999998E-002     0.0000000000000000     
  -3.7900000000000003E-002     0.0000000000000000     
  -3.7850000000000002E-002     0.0000000000000000     
  -3.7800000000000000E-002     0.0000000000000000     
  -3.7749999999999999E-002     0.0000000000000000     
  -3.7699999999999997E-002     0.0000000000000000     
  -3.7650000000000003E-002     0.0000000000000000     
  -3.7600000000000001E-002     0.0000000000000000     
  -3.7550000000000000E-002     0.0000000000000000     
  -3.7499999999999999E-002     0.0000000000000000     
  -3.7449999999999997E-002     0.0000000000000000     
  -3.7400000000000003E-002     0.0000000000000000     
  -3.7350000000000001E-002     0.0000000000000000     
  -3.7300000000000000E-002     0.0000000000000000     
  -3.7249999999999998E-002     0.0000000000000000     
  -3.7200000000000004E-002     0.0000000000000000     
  -3.7150000000000002E-002     0.0000000000000000     
  -3.7100000000000001E-002     0.0000000000000000     
  -3.7050000000000000E-002     0.0000000000000000     
  -3.6999999999999998E-002     0.0000000000000000     
  -3.6950000000000004E-002     0.0000000000000000     
  -3.6900000000000002E-002     0.0000000000000000     
  -3.6850000000000001E-002     0.0000000000000000     
  -3.6799999999999999E-002     0.0000000000000000     
  -3.6749999999999998E-002     0.0000000000000000     
  -3.6700000000000003E-002     0.0000000000000000     
  -3.6650000000000002E-002     0.0000000000000000     
  -3.6600000000000001E-002     0.0000000000000000     
  -3.6549999999999999E-002     0.0000000000000000     
  -3.6499999999999998E-002     0.0000000000000000     
  -3.6450000000000003E-002     0.0000000000000000     
  -3.6400000000000002E-002     0.0000000000000000     
  -3.6350000000000000E-002     0.0000000000000000     
  -3.6299999999999999E-002     0.0000000000000000     
  -3.6249999999999998E-002     0.0000000000000000     
  -3.6200000000000003E-002     0.0000000000000000     
  -3.6150000000000002E-002     0.0000000000000000     
  -3.6100000000000000E-002     0.0000000000000000     
  -3.6049999999999999E-002     0.0000000000000000     
  -3.6000000000000004E-002     0.0000000000000000     
  -3.5950000000000003E-002     0.0000000000000000     
  -3.5900000000000001E-002     0.0000000000000000     
  -3.5850000000000000E-002     0.0000000000000000     
  -3.5799999999999998E-002     0.0000000000000000     
  -3.5750000000000004E-002     0.0000000000000000     
  -3.5700000000000003E-002     0.0000000000000000     
  -3.5650000000000001E-002     0.0000000000000000     
  -3.5600000000000000E-002     0.0000000000000000     
  -3.5549999999999998E-002     0.0000000000000000     
  -3.5500000000000004E-002     0.0000000000000000     
  -3.5450000000000002E-002     0.0000000000000000     
  -3.5400000000000001E-002     0.0000000000000000     
  -3.5349999999999999E-002     0.0000000000000000     
  -3.5299999999999998E-002     0.0000000000000000     
  -3.5250000000000004E-002     0.0000000000000000     
  -3.5200000000000002E-002     0.0000000000000000     
  -3.5150000000000001E-002     0.0000000000000000     
  -3.5099999999999999E-002     0.0000000000000000     
  -3.5049999999999998E-002     0.0000000000000000     
  -3.5000000000000003E-002     0.0000000000000000     
  -3.4950000000000002E-002     0.0000000000000000     
  -3.4900000000000000E-002     0.0000000000000000     
  -3.4849999999999999E-002     0.0000000000000000     
  -3.4799999999999998E-002     0.0000000000000000     
  -3.4750000000000003E-002     0.0000000000000000     
  -3.4700000000000002E-002     0.0000000000000000     
  -3.4650000000000000E-002     0.0000000000000000     
  -3.4599999999999999E-002     0.0000000000000000     
  -3.4549999999999997E-002     0.0000000000000000     
  -3.4500000000000003E-002     0.0000000000000000     
  -3.4450000000000001E-002     0.0000000000000000     
  -3.4400000000000000E-002     0.0000000000000000     
  -3.4349999999999999E-002     0.0000000000000000     
  -3.4299999999999997E-002     0.0000000000000000     
  -3.4250000000000003E-002     0.0000000000000000     
  -3.4200000000000001E-002     0.0000000000000000     
  -3.4150000000000000E-002     0.0000000000000000     
  -3.4099999999999998E-002     0.0000000000000000     
  -3.4049999999999997E-002     0.0000000000000000     
  -3.4000000000000002E-002     0.0000000000000000     
  -3.3950000000000001E-002     0.0000000000000000     
  -3.3900000000000000E-002     0.0000000000000000     
  -3.3849999999999998E-002     0.0000000000000000     
  -3.3799999999999997E-002     0.0000000000000000     
  -3.3750000000000002E-002     0.0000000000000000     
  -3.3700000000000001E-002     0.0000000000000000     
  -3.3649999999999999E-002     0.0000000000000000     
  -3.3599999999999998E-002     0.0000000000000000     
  -3.3550000000000003E-002     0.0000000000000000     
  -3.3500000000000002E-002     0.0000000000000000     
  -3.3450000000000001E-002     0.0000000000000000     
  -3.3399999999999999E-002     0.0000000000000000     
  -3.3349999999999998E-002     0.0000000000000000     
  -3.3300000000000003E-002     0.0000000000000000     
  -3.3250000000000002E-002     0.0000000000000000     
  -3.3200000000000000E-002     0.0000000000000000     
  -3.3149999999999999E-002     0.0000000000000000     
  -3.3099999999999997E-002     0.0000000000000000     
  -3.3050000000000003E-002     0.0000000000000000     
  -3.3000000000000002E-002     0.0000000000000000     
  -3.2950000000000000E-002     0.0000000000000000     
  -3.2899999999999999E-002     0.0000000000000000     
  -3.2850000000000004E-002     0.0000000000000000     
  -3.2800000000000003E-002     0.0000000000000000     
  -3.2750000000000001E-002     0.0000000000000000     
  -3.2700000000000000E-002     0.0000000000000000     
  -3.2649999999999998E-002     0.0000000000000000     
  -3.2600000000000004E-002     0.0000000000000000     
  -3.2550000000000003E-002     0.0000000000000000     
  -3.2500000000000001E-002     0.0000000000000000     
  -3.2450000000000000E-002     0.0000000000000000     
  -3.2399999999999998E-002     0.0000000000000000     
  -3.2350000000000004E-002     0.0000000000000000     
  -3.2300000000000002E-002     0.0000000000000000     
  -3.2250000000000001E-002     0.0000000000000000     
  -3.2199999999999999E-002     0.0000000000000000     
  -3.2149999999999998E-002     0.0000000000000000     
  -3.2100000000000004E-002     0.0000000000000000     
  -3.2050000000000002E-002     0.0000000000000000     
  -3.2000000000000001E-002     0.0000000000000000     
  -3.1949999999999999E-002     0.0000000000000000     
  -3.1899999999999998E-002     0.0000000000000000     
  -3.1850000000000003E-002     0.0000000000000000     
  -3.1800000000000002E-002     0.0000000000000000     
  -3.1750000000000000E-002     0.0000000000000000     
  -3.1699999999999999E-002     0.0000000000000000     
  -3.1649999999999998E-002     0.0000000000000000     
  -3.1600000000000003E-002     0.0000000000000000     
  -3.1550000000000002E-002     0.0000000000000000     
  -3.1500000000000000E-002     0.0000000000000000     
  -3.1449999999999999E-002     0.0000000000000000     
  -3.1399999999999997E-002     0.0000000000000000     
  -3.1350000000000003E-002     0.0000000000000000     
  -3.1300000000000001E-002     0.0000000000000000     
  -3.1250000000000000E-002     0.0000000000000000     
  -3.1199999999999999E-002     0.0000000000000000     
  -3.1150000000000001E-002     0.0000000000000000     
  -3.1100000000000003E-002     0.0000000000000000     
  -3.1050000000000001E-002     0.0000000000000000     
  -3.1000000000000000E-002     0.0000000000000000     
  -3.0949999999999998E-002     0.0000000000000000     
  -3.0900000000000000E-002     0.0000000000000000     
  -3.0850000000000002E-002     0.0000000000000000     
  -3.0800000000000001E-002     0.0000000000000000     
  -3.0750000000000000E-002     0.0000000000000000     
  -3.0699999999999998E-002     0.0000000000000000     
  -3.0650000000000000E-002     0.0000000000000000     
  -3.0600000000000002E-002     0.0000000000000000     
  -3.0550000000000001E-002     0.0000000000000000     
  -3.0499999999999999E-002     0.0000000000000000     
  -3.0449999999999998E-002     0.0000000000000000     
  -3.0400000000000000E-002     0.0000000000000000     
  -3.0350000000000002E-002     0.0000000000000000     
  -3.0300000000000001E-002     0.0000000000000000     
  -3.0249999999999999E-002     0.0000000000000000     
  -3.0200000000000001E-002     0.0000000000000000     
  -3.0150000000000000E-002     0.0000000000000000     
  -3.0100000000000002E-002     0.0000000000000000     
  -3.0050000000000000E-002     0.0000000000000000     
  -2.9999999999999999E-002     0.0000000000000000     
  -2.9950000000000001E-002     0.0000000000000000     
  -2.9899999999999999E-002     0.0000000000000000     
  -2.9850000000000002E-002     0.0000000000000000     
  -2.9800000000000000E-002     0.0000000000000000     
  -2.9749999999999999E-002     0.0000000000000000     
  -2.9700000000000001E-002     0.0000000000000000     
  -2.9650000000000003E-002     0.0000000000000000     
  -2.9600000000000001E-002     0.0000000000000000     
  -2.9550000000000000E-002     0.0000000000000000     
  -2.9499999999999998E-002     0.0000000000000000     
  -2.9450000000000000E-002     0.0000000000000000     
  -2.9400000000000003E-002     0.0000000000000000     
  -2.9350000000000001E-002     0.0000000000000000     
  -2.9300000000000000E-002     0.0000000000000000     
  -2.9249999999999998E-002     0.0000000000000000     
  -2.9200000000000000E-002     0.0000000000000000     
  -2.9150000000000002E-002     0.0000000000000000     
  -2.9100000000000001E-002     0.0000000000000000     
  -2.9049999999999999E-002     0.0000000000000000     
  -2.8999999999999998E-002     0.0000000000000000     
  -2.8950000000000000E-002     0.0000000000000000     
  -2.8900000000000002E-002     0.0000000000000000     
  -2.8850000000000001E-002     0.0000000000000000     
  -2.8799999999999999E-002     0.0000000000000000     
  -2.8749999999999998E-002     0.0000000000000000     
  -2.8700000000000000E-002     0.0000000000000000     
  -2.8650000000000002E-002     0.0000000000000000     
  -2.8600000000000000E-002     0.0000000000000000     
  -2.8549999999999999E-002     0.0000000000000000     
  -2.8500000000000001E-002     0.0000000000000000     
  -2.8450000000000000E-002     0.0000000000000000     
  -2.8400000000000002E-002     0.0000000000000000     
  -2.8350000000000000E-002     0.0000000000000000     
  -2.8299999999999999E-002     0.0000000000000000     
  -2.8250000000000001E-002     0.0000000000000000     
  -2.8200000000000003E-002     0.0000000000000000     
  -2.8150000000000001E-002     0.0000000000000000     
  -2.8100000000000000E-002     0.0000000000000000     
  -2.8049999999999999E-002     0.0000000000000000     
  -2.8000000000000001E-002     0.0000000000000000     
  -2.7950000000000003E-002     0.0000000000000000     
  -2.7900000000000001E-002     0.0000000000000000     
  -2.7850000000000000E-002     0.0000000000000000     
  -2.7799999999999998E-002     0.0000000000000000     
  -2.7750000000000000E-002     0.0000000000000000     
  -2.7700000000000002E-002     0.0000000000000000     
  -2.7650000000000001E-002     0.0000000000000000     
  -2.7600000000000000E-002     0.0000000000000000     
  -2.7549999999999998E-002     0.0000000000000000     
  -2.7500000000000000E-002     0.0000000000000000     
  -2.7450000000000002E-002     0.0000000000000000     
  -2.7400000000000001E-002     0.0000000000000000     
  -2.7349999999999999E-002     0.0000000000000000     
  -2.7299999999999998E-002     0.0000000000000000     
  -2.7250000000000000E-002     0.0000000000000000     
  -2.7200000000000002E-002     0.0000000000000000     
  -2.7150000000000001E-002     0.0000000000000000     
  -2.7099999999999999E-002     0.0000000000000000     
  -2.7049999999999998E-002     0.0000000000000000     
  -2.7000000000000000E-002     0.0000000000000000     
  -2.6950000000000002E-002     0.0000000000000000     
  -2.6900000000000000E-002     0.0000000000000000     
  -2.6849999999999999E-002     0.0000000000000000     
  -2.6800000000000001E-002     0.0000000000000000     
  -2.6749999999999999E-002     0.0000000000000000     
  -2.6700000000000002E-002     0.0000000000000000     
  -2.6650000000000000E-002     0.0000000000000000     
  -2.6599999999999999E-002     0.0000000000000000     
  -2.6550000000000001E-002     0.0000000000000000     
  -2.6500000000000003E-002     0.0000000000000000     
  -2.6450000000000001E-002     0.0000000000000000     
  -2.6400000000000000E-002     0.0000000000000000     
  -2.6349999999999998E-002     0.0000000000000000     
  -2.6300000000000000E-002     0.0000000000000000     
  -2.6250000000000002E-002     0.0000000000000000     
  -2.6200000000000001E-002     0.0000000000000000     
  -2.6150000000000000E-002     0.0000000000000000     
  -2.6099999999999998E-002     0.0000000000000000     
  -2.6050000000000000E-002    -4.0577453291583762E-040
  -2.6000000000000002E-002    -8.9421320809857544E-040
  -2.5950000000000001E-002    -8.9421320809857544E-040
  -2.5899999999999999E-002     4.7172636228977306E-040
  -2.5849999999999998E-002     2.2714136021490544E-039
  -2.5800000000000000E-002     4.1058787402528645E-039
  -2.5750000000000002E-002     4.6419890621709538E-039
  -2.5700000000000001E-002     2.4072633163644662E-039
  -2.5649999999999999E-002    -3.8487805424862142E-039
  -2.5599999999999998E-002    -1.1796190947641211E-038
  -2.5550000000000000E-002    -1.7391573720514991E-038
  -2.5500000000000002E-002    -1.5323712017528727E-038
  -2.5450000000000000E-002    -3.6966198155487605E-039
  -2.5399999999999999E-002     1.2873431074675085E-038
  -2.5349999999999998E-002     2.9560883217648751E-038
  -2.5300000000000000E-002     4.0075139001070377E-038
  -2.5250000000000002E-002     1.6747188321835928E-038
  -2.5200000000000000E-002    -2.1460937882921414E-038
  -2.5149999999999999E-002    -3.4933490780376885E-038
  -2.5100000000000001E-002    -1.8575523061230399E-038
  -2.5049999999999999E-002     2.2000083721676797E-038
  -2.5000000000000001E-002     7.2822751957118731E-038
  -2.4950000000000000E-002     9.3923910218915898E-038
  -2.4899999999999999E-002     7.0588532310188095E-038
  -2.4850000000000001E-002    -1.9376929622133376E-038
  -2.4800000000000003E-002    -1.3957055961615951E-037
  -2.4750000000000001E-002    -2.4090071535718216E-037
  -2.4700000000000000E-002    -2.7561304201735330E-037
  -2.4649999999999998E-002    -2.1890757233164186E-037
  -2.4600000000000000E-002    -6.4465756009569790E-038
  -2.4550000000000002E-002     1.4340040542716156E-037
  -2.4500000000000001E-002     3.6941138182910192E-037
  -2.4450000000000000E-002     5.6265066743004389E-037
  -2.4399999999999998E-002     6.6174957849327953E-037
  -2.4350000000000000E-002     5.9882593586742216E-037
  -2.4299999999999999E-002     3.1760227839884251E-037
  -2.4250000000000001E-002    -1.9627582874372206E-037
  -2.4199999999999999E-002    -8.7672563483276847E-037
  -2.4150000000000001E-002    -1.5575749428942802E-036
  -2.4100000000000000E-002    -1.9901314714497083E-036
  -2.4049999999999998E-002    -1.9106425325789479E-036
  -2.4000000000000000E-002    -1.1400605379439959E-036
  -2.3949999999999999E-002     3.1215208237443277E-037
  -2.3900000000000001E-002     2.1858432074476621E-036
  -2.3850000000000000E-002     3.9964965649531296E-036
  -2.3800000000000002E-002     5.1463712973272769E-036
  -2.3750000000000000E-002     5.1036609471884637E-036
  -2.3699999999999999E-002     3.5893498373794876E-036
  -2.3650000000000001E-002     7.0310953155074297E-037
  -2.3599999999999999E-002    -3.0646648139865501E-036
  -2.3550000000000001E-002    -6.9452160382029144E-036
  -2.3500000000000000E-002    -1.0087955692077344E-035
  -2.3449999999999999E-002    -1.1761112141530521E-035
  -2.3400000000000001E-002    -1.1473137159365960E-035
  -2.3349999999999999E-002    -8.9682007733757134E-036
  -2.3300000000000001E-002    -4.1242399466234925E-036
  -2.3250000000000000E-002     3.1415377778040463E-036
  -2.3199999999999998E-002     1.2811685791019970E-035
  -2.3150000000000000E-002     2.4445407090321078E-035
  -2.3099999999999999E-002     3.6609583793028045E-035
  -2.3050000000000001E-002     4.6279517167249997E-035
  -2.3000000000000000E-002     4.8613547738981174E-035
  -2.2950000000000002E-002     3.7580271069771613E-035
  -2.2900000000000000E-002     7.7774037757596329E-036
  -2.2849999999999999E-002    -4.2633098113557798E-035
  -2.2800000000000001E-002    -1.0856262768629888E-034
  -2.2749999999999999E-002    -1.7553226129582287E-034
  -2.2700000000000001E-002    -2.1978871661516536E-034
  -2.2650000000000000E-002    -2.1244437957000012E-034
  -2.2599999999999999E-002    -1.2807797483963928E-034
  -2.2550000000000001E-002     4.3465667575689711E-035
  -2.2499999999999999E-002     2.8531453679853702E-034
  -2.2450000000000001E-002     5.4659901009326053E-034
  -2.2400000000000000E-002     7.4525289819851080E-034
  -2.2349999999999998E-002     7.8387529062817080E-034
  -2.2300000000000000E-002     5.7823400123399156E-034
  -2.2249999999999999E-002     9.2965215969337665E-035
  -2.2200000000000001E-002    -6.2584386296307545E-034
  -2.2150000000000000E-002    -1.4342641786866311E-033
  -2.2100000000000002E-002    -2.1022587247682764E-033
  -2.2050000000000000E-002    -2.3595085653018942E-033
  -2.1999999999999999E-002    -1.9711682625993847E-033
  -2.1950000000000001E-002    -8.2749078165010422E-034
  -2.1899999999999999E-002     9.7861214708442122E-034
  -2.1850000000000001E-002     3.1156940187535868E-033
  -2.1800000000000000E-002     5.0436606186410436E-033
  -2.1749999999999999E-002     6.1182618605270309E-033
  -2.1700000000000001E-002     5.7569116727604385E-033
  -2.1649999999999999E-002     3.6295791839819675E-033
  -2.1600000000000001E-002    -1.7772953696703986E-034
  -2.1550000000000000E-002    -5.0819919501930096E-033
  -2.1499999999999998E-002    -1.0045442691419451E-032
  -2.1450000000000000E-002    -1.3752399070323463E-032
  -2.1399999999999999E-002    -1.4894883530021455E-032
  -2.1350000000000001E-002    -1.2507654386342912E-032
  -2.1299999999999999E-002    -6.2740229531484620E-033
  -2.1250000000000002E-002     3.2739951559249505E-033
  -2.1200000000000000E-002     1.4714700575634154E-032
  -2.1149999999999999E-002     2.5872914336042598E-032
  -2.1100000000000001E-002     3.4115948718351470E-032
  -2.1049999999999999E-002     3.6769304082644540E-032
  -2.1000000000000001E-002     3.1606729410037061E-032
  -2.0950000000000000E-002     1.7376569368496850E-032
  -2.0899999999999998E-002    -5.6710227171053891E-033
  -2.0850000000000000E-002    -3.5309329080743509E-032
  -2.0799999999999999E-002    -6.7016645506658577E-032
  -2.0750000000000001E-002    -9.3988745381790021E-032
  -2.0700000000000000E-002    -1.0771346073461166E-031
  -2.0649999999999998E-002    -9.9326579496770642E-032
  -2.0600000000000000E-002    -6.1834835295027989E-032
  -2.0549999999999999E-002     6.9888643653349780E-033
  -2.0500000000000001E-002     1.0162215433970366E-031
  -2.0449999999999999E-002     2.0669935854302387E-031
  -2.0400000000000001E-002     2.9701132955502402E-031
  -2.0350000000000000E-002     3.4067910365235029E-031
  -2.0299999999999999E-002     3.0597824357255267E-031
  -2.0250000000000001E-002     1.7121417801309232E-031
  -2.0199999999999999E-002    -6.4303704841236775E-032
  -2.0150000000000001E-002    -3.7138079051147070E-031
  -2.0100000000000000E-002    -6.8796302639275783E-031
  -2.0049999999999998E-002    -9.2541440936055236E-031
  -2.0000000000000000E-002    -9.8557996366333419E-031
  -1.9949999999999999E-002    -7.8715875979541153E-031
  -1.9900000000000001E-002    -2.9631886316254962E-031
  -1.9850000000000000E-002     4.4664728405617799E-031
  -1.9799999999999998E-002     1.3143014567645907E-030
  -1.9750000000000000E-002     2.1011364370222110E-030
  -1.9699999999999999E-002     2.5589079066803078E-030
  -1.9650000000000001E-002     2.4554760518472840E-030
  -1.9599999999999999E-002     1.6464098375332070E-030
  -1.9550000000000001E-002     1.4176708929069484E-031
  -1.9500000000000000E-002    -1.8527837031759846E-030
  -1.9449999999999999E-002    -3.9390850188099600E-030
  -1.9400000000000001E-002    -5.5841353306915927E-030
  -1.9349999999999999E-002    -6.2293296012657285E-030
  -1.9300000000000001E-002    -5.4332088638067656E-030
  -1.9250000000000000E-002    -3.0165564052954813E-030
  -1.9199999999999998E-002     8.2816680379215597E-031
  -1.9150000000000000E-002     5.4987638536406653E-030
  -1.9099999999999999E-002     1.0040176932553281E-029
  -1.9050000000000001E-002     1.3299859798094158E-029
  -1.9000000000000000E-002     1.4161757691016664E-029
  -1.8949999999999998E-002     1.1817747795138040E-029
  -1.8900000000000000E-002     6.0214897968257732E-030
  -1.8849999999999999E-002    -2.7333466676286255E-030
  -1.8800000000000001E-002    -1.3159936738606605E-029
  -1.8749999999999999E-002    -2.3281524304682376E-029
  -1.8700000000000001E-002    -3.0698173156775617E-029
  -1.8650000000000000E-002    -3.2997712536165589E-029
  -1.8599999999999998E-002    -2.8265724442100034E-029
  -1.8550000000000001E-002    -1.5624900601150309E-029
  -1.8499999999999999E-002     4.2879211246242826E-030
  -1.8450000000000001E-002     2.9016822122464529E-029
  -1.8400000000000000E-002     5.4271902689610788E-029
  -1.8349999999999998E-002     7.4311682249657642E-029
  -1.8300000000000000E-002     8.2788319845366299E-029
  -1.8249999999999999E-002     7.4039435630490224E-029
  -1.8200000000000001E-002     4.4688764945884797E-029
  -1.8149999999999999E-002    -4.7273384523509664E-030
  -1.8100000000000002E-002    -6.8523968681790218E-029
  -1.8050000000000000E-002    -1.3550986788373991E-028
  -1.7999999999999999E-002    -1.8994988855634447E-028
  -1.7950000000000001E-002    -2.1408899235874061E-028
  -1.7899999999999999E-002    -1.9211968639695234E-028
  -1.7850000000000001E-002    -1.1500978731876021E-028
  -1.7800000000000000E-002     1.4859491887400794E-029
  -1.7749999999999998E-002     1.8061330382714588E-028
  -1.7700000000000000E-002     3.5074842212836285E-028
  -1.7649999999999999E-002     4.8294048977368297E-028
  -1.7600000000000001E-002     5.3197782637416582E-028
  -1.7550000000000000E-002     4.6088229862513912E-028
  -1.7499999999999998E-002     2.5309404084369784E-028
  -1.7450000000000000E-002    -7.7319931542724237E-029
  -1.7399999999999999E-002    -4.8077088305153290E-028
  -1.7350000000000001E-002    -8.7533592766983761E-028
  -1.7299999999999999E-002    -1.1593018578350630E-027
  -1.7250000000000001E-002    -1.2321190137849666E-027
  -1.7200000000000000E-002    -1.0203312739537642E-027
  -1.7149999999999999E-002    -5.0292035955584137E-028
  -1.7100000000000001E-002     2.7060074857270503E-028
  -1.7049999999999999E-002     1.1755819407145442E-027
  -1.7000000000000001E-002     2.0252292439154093E-027
  -1.6950000000000000E-002     2.6017169558534964E-027
  -1.6899999999999998E-002     2.7015625698195512E-027
  -1.6850000000000000E-002     2.1872274306053294E-027
  -1.6799999999999999E-002     1.0339709764876728E-027
  -1.6750000000000001E-002    -6.3984264577461358E-028
  -1.6700000000000000E-002    -2.5690121659616676E-027
  -1.6649999999999998E-002    -4.3701301272419209E-027
  -1.6600000000000000E-002    -5.6022845527290951E-027
  -1.6549999999999999E-002    -5.8526720933659392E-027
  -1.6500000000000001E-002    -4.8336771654182332E-027
  -1.6449999999999999E-002    -2.4733408896868080E-027
  -1.6400000000000001E-002     1.0206973952676995E-027
  -1.6350000000000000E-002     5.1422448373123226E-027
  -1.6299999999999999E-002     9.1260905075492987E-027
  -1.6250000000000001E-002     1.2051184052943124E-026
  -1.6199999999999999E-002     1.3001606948914444E-026
  -1.6150000000000001E-002     1.1266718668388683E-026
  -1.6100000000000000E-002     6.5490740008048600E-027
  -1.6049999999999998E-002    -8.6174840403945430E-028
  -1.6000000000000000E-002    -9.9965849349572859E-027
  -1.5949999999999999E-002    -1.9239383807433234E-026
  -1.5900000000000001E-002    -2.6515069978367780E-026
  -1.5850000000000000E-002    -2.9636322559879060E-026
  -1.5799999999999998E-002    -2.6776760962433767E-026
  -1.5750000000000000E-002    -1.6997124331267906E-026
  -1.5699999999999999E-002    -7.1428634570577937E-028
  -1.5650000000000001E-002     2.0017871720181911E-026
  -1.5599999999999999E-002     4.1540776481951448E-026
  -1.5550000000000001E-002     5.9021219451765362E-026
  -1.5500000000000000E-002     6.7288207449043855E-026
  -1.5449999999999998E-002     6.1984805795140744E-026
  -1.5400000000000000E-002     4.0836092254100976E-026
  -1.5349999999999999E-002     4.7486243913718779E-027
  -1.5300000000000001E-002    -4.1578360224433107E-026
  -1.5250000000000000E-002    -8.9811345121875553E-026
  -1.5199999999999998E-002    -1.2906969141683225E-025
  -1.5150000000000000E-002    -1.4790645677927132E-025
  -1.5099999999999999E-002    -1.3691395080222331E-025
  -1.5050000000000001E-002    -9.1464090253785407E-026
  -1.4999999999999999E-002    -1.3944849823242121E-026
  -1.4949999999999998E-002     8.5166903387510236E-026
  -1.4900000000000000E-002     1.8791754578473313E-025
  -1.4849999999999999E-002     2.7139805551345509E-025
  -1.4800000000000001E-002     3.1198683739551467E-025
  -1.4749999999999999E-002     2.9067474836670801E-025
  -1.4700000000000001E-002     1.9845155209845405E-025
  -1.4650000000000000E-002     4.0515568991059337E-026
  -1.4599999999999998E-002    -1.6189516614942042E-025
  -1.4550000000000000E-002    -3.7293648110918404E-025
  -1.4499999999999999E-002    -5.4716847450022140E-025
  -1.4450000000000001E-002    -6.3771299017836516E-025
  -1.4400000000000000E-002    -6.0635816978494432E-025
  -1.4349999999999998E-002    -4.3376912368973472E-025
  -1.4300000000000000E-002    -1.2761026447908205E-025
  -1.4249999999999999E-002     2.7356513214425383E-025
  -1.4200000000000001E-002     7.0230331644542628E-025
  -1.4149999999999999E-002     1.0708370667943529E-024
  -1.4099999999999998E-002     1.2857605338513862E-024
  -1.4050000000000000E-002     1.2669314098958176E-024
  -1.3999999999999999E-002     9.6750350324732390E-025
  -1.3950000000000001E-002     3.9113245717741865E-025
  -1.3899999999999999E-002    -3.9785265831914776E-025
  -1.3850000000000001E-002    -1.2749730024892601E-024
  -1.3800000000000000E-002    -2.0690821126374536E-024
  -1.3749999999999998E-002    -2.5888725828102760E-024
  -1.3700000000000000E-002    -2.6597479306038451E-024
  -1.3649999999999999E-002    -2.1655423350808598E-024
  -1.3600000000000001E-002    -1.0872071766765225E-024
  -1.3550000000000000E-002     4.7071413807062587E-025
  -1.3499999999999998E-002     2.2745745620839042E-024
  -1.3450000000000000E-002     3.9833528449669036E-024
  -1.3399999999999999E-002     5.1993584541449110E-024
  -1.3350000000000001E-002     5.5435110484344154E-024
  -1.3299999999999999E-002     4.7440980891485061E-024
  -1.3249999999999998E-002     2.7221082323634141E-024
  -1.3200000000000000E-002    -3.4712607117852310E-025
  -1.3149999999999998E-002    -4.0156289327191491E-024
  -1.3100000000000001E-002    -7.6021016499293713E-024
  -1.3049999999999999E-002    -1.0293093379490527E-023
  -1.3000000000000001E-002    -1.1296807044647589E-023
  -1.2950000000000000E-002    -1.0025996561590300E-023
  -1.2899999999999998E-002    -6.2743561867460069E-024
  -1.2850000000000000E-002    -3.4454638782165097E-025
  -1.2799999999999999E-002     6.9118198414685739E-024