  -4.0000000000000001E-002     0.0000000000000000     
  -3.9949999999999999E-002     0.0000000000000000     
  -3.9899999999999998E-002     0.0000000000000000     
  -3.9850000000000003E-002     0.0000000000000000     
  -3.9800000000000002E-002     0.0000000000000000     
  -3.9750000000000001E-002     0.0000000000000000     
  -3.9699999999999999E-002     0.0000000000000000     
  -3.9649999999999998E-002     0.0000000000000000     
  -3.9600000000000003E-002     0.0000000000000000     
  -3.9550000000000002E-002     0.0000000000000000     
  -3.9500000000000000E-002     0.0000000000000000     
  -3.9449999999999999E-002     0.0000000000000000     
  -3.9399999999999998E-002     0.0000000000000000     
  -3.9350000000000003E-002     0.0000000000000000     
  -3.9300000000000002E-002     0.0000000000000000     
  -3.9250000000000000E-002     0.0000000000000000     
  -3.9199999999999999E-002     0.0000000000000000     
  -3.9150000000000004E-002     0.0000000000000000     
  -3.9100000000000003E-002     0.0000000000000000     
  -3.9050000000000001E-002     0.0000000000000000     
  -3.9000000000000000E-002     0.0000000000000000     
  -3.8949999999999999E-002     0.0000000000000000     
  -3.8900000000000004E-002     0.0000000000000000     
  -3.8850000000000003E-002     0.0000000000000000     
  -3.8800000000000001E-002     0.0000000000000000     
  -3.8750000000000000E-002     0.0000000000000000     
  -3.8699999999999998E-002     0.0000000000000000     
  -3.8650000000000004E-002     0.0000000000000000     
  -3.8600000000000002E-002     0.0000000000000000     
  -3.8550000000000001E-002     0.0000000000000000     
  -3.8500000000000000E-002     0.0000000000000000     
  -3.8449999999999998E-002     0.0000000000000000     
  -3.8400000000000004E-002     0.0000000000000000     
  -3.8350000000000002E-002     0.0000000000000000     
  -3.8300000000000001E-002     0.0000000000000000     
  -3.8249999999999999E-002     0.0000000000000000     
  -3.8199999999999998E-002     0.0000000000000000     
  -3.8150000000000003E-002     0.0000000000000000     
  -3.8100000000000002E-002     0.0000000000000000     
  -3.8050000000000000E-002     0.0000000000000000     
  -3.7999999999999999E-002     0.0000000000000000     
  -3.7949999999999998E-002     0.0000000000000000     
  -3.7900000000000003E-002     0.0000000000000000     
  -3.7850000000000002E-002     0.0000000000000000     
  -3.7800000000000000E-002     0.0000000000000000     
  -3.7749999999999999E-002     0.0000000000000000     
  -3.7699999999999997E-002     0.0000000000000000     
  -3.7650000000000003E-002     0.0000000000000000     
  -3.7600000000000001E-002     0.0000000000000000     
  -3.7550000000000000E-002     0.0000000000000000     
  -3.7499999999999999E-002     0.0000000000000000     
  -3.7449999999999997E-002     0.0000000000000000     
  -3.7400000000000003E-002     0.0000000000000000     
  -3.7350000000000001E-002     0.0000000000000000     
  -3.7300000000000000E-002     0.0000000000000000     
  -3.7249999999999998E-002     0.0000000000000000     
  -3.7200000000000004E-002     0.0000000000000000     
  -3.7150000000000002E-002     0.0000000000000000     
  -3.7100000000000001E-002     0.0000000000000000     
  -3.7050000000000000E-002     0.0000000000000000     
  -3.6999999999999998E-002     0.0000000000000000     
  -3.6950000000000004E-002     0.0000000000000000     
  -3.6900000000000002E-002     0.0000000000000000     
  -3.6850000000000001E-002     0.0000000000000000     
  -3.6799999999999999E-002     0.0000000000000000     
  -3.6749999999999998E-002     0.0000000000000000     
  -3.6700000000000003E-002     0.0000000000000000     
  -3.6650000000000002E-002     0.0000000000000000     
  -3.6600000000000001E-002     0.0000000000000000     
  -3.6549999999999999E-002     0.0000000000000000     
  -3.6499999999999998E-002     0.0000000000000000     
  -3.6450000000000003E-002     0.0000000000000000     
  -3.6400000000000002E-002     0.0000000000000000     
  -3.6350000000000000E-002     0.0000000000000000     
  -3.6299999999999999E-002     0.0000000000000000     
  -3.6249999999999998E-002     0.0000000000000000     
  -3.6200000000000003E-002     0.0000000000000000     
  -3.6150000000000002E-002     0.0000000000000000     
  -3.6100000000000000E-002     0.0000000000000000     
  -3.6049999999999999E-002     0.0000000000000000     
  -3.6000000000000004E-002     0.0000000000000000     
  -3.5950000000000003E-002     0.0000000000000000     
  -3.5900000000000001E-002     0.0000000000000000     
  -3.5850000000000000E-002     0.0000000000000000     
  -3.5799999999999998E-002     0.0000000000000000     
  -3.5750000000000004E-002     0.0000000000000000     
  -3.5700000000000003E-002     0.0000000000000000     
  -3.5650000000000001E-002     0.0000000000000000     
  -3.5600000000000000E-002     0.0000000000000000     
  -3.5549999999999998E-002     0.0000000000000000     
  -3.5500000000000004E-002     0.0000000000000000     
  -3.5450000000000002E-002     0.0000000000000000     
  -3.5400000000000001E-002     0.0000000000000000     
  -3.5349999999999999E-002     0.0000000000000000     
  -3.5299999999999998E-002     0.0000000000000000     
  -3.5250000000000004E-002     0.0000000000000000     
  -3.5200000000000002E-002     0.0000000000000000     
  -3.5150000000000001E-002     0.0000000000000000     
  -3.5099999999999999E-002     0.0000000000000000     
  -3.5049999999999998E-002     0.0000000000000000     
  -3.5000000000000003E-002     0.0000000000000000     
  -3.4950000000000002E-002     0.0000000000000000     
  -3.4900000000000000E-002     0.0000000000000000     
  -3.4849999999999999E-002     0.0000000000000000     
  -3.4799999999999998E-002     0.0000000000000000     
  -3.4750000000000003E-002     0.0000000000000000     
  -3.4700000000000002E-002     0.0000000000000000     
  -3.4650000000000000E-002     0.0000000000000000     
  -3.4599999999999999E-002     0.0000000000000000     
  -3.4549999999999997E-002     0.0000000000000000     
  -3.4500000000000003E-002     0.0000000000000000     
  -3.4450000000000001E-002     0.0000000000000000     
  -3.4400000000000000E-002     0.0000000000000000     
  -3.4349999999999999E-002     0.0000000000000000     
  -3.4299999999999997E-002     0.0000000000000000     
  -3.4250000000000003E-002     0.0000000000000000     
  -3.4200000000000001E-002     0.0000000000000000     
  -3.4150000000000000E-002     0.0000000000000000     
  -3.4099999999999998E-002     0.0000000000000000     
  -3.4049999999999997E-002     0.0000000000000000     
  -3.4000000000000002E-002     0.0000000000000000     
  -3.3950000000000001E-002     0.0000000000000000     
  -3.3900000000000000E-002     0.0000000000000000     
  -3.3849999999999998E-002     0.0000000000000000     
  -3.3799999999999997E-002     0.0000000000000000     
  -3.3750000000000002E-002     0.0000000000000000     
  -3.3700000000000001E-002     0.0000000000000000     
  -3.3649999999999999E-002     0.0000000000000000     
  -3.3599999999999998E-002     0.0000000000000000     
  -3.3550000000000003E-002     0.0000000000000000     
  -3.3500000000000002E-002     0.0000000000000000     
  -3.3450000000000001E-002     0.0000000000000000     
  -3.3399999999999999E-002     0.0000000000000000     
  -3.3349999999999998E-002     0.0000000000000000     
  -3.3300000000000003E-002     0.0000000000000000     
  -3.3250000000000002E-002     0.0000000000000000     
  -3.3200000000000000E-002     0.0000000000000000     
  -3.3149999999999999E-002     0.0000000000000000     
  -3.3099999999999997E-002     0.0000000000000000     
  -3.3050000000000003E-002     0.0000000000000000     
  -3.3000000000000002E-002     0.0000000000000000     
  -3.2950000000000000E-002     0.0000000000000000     
  -3.2899999999999999E-002     0.0000000000000000     
  -3.2850000000000004E-002     0.0000000000000000     
  -3.2800000000000003E-002     0.0000000000000000     
  -3.2750000000000001E-002     0.0000000000000000     
  -3.2700000000000000E-002     0.0000000000000000     
  -3.2649999999999998E-002     0.0000000000000000     
  -3.2600000000000004E-002     0.0000000000000000     
  -3.2550000000000003E-002     0.0000000000000000     
  -3.2500000000000001E-002     0.0000000000000000     
  -3.2450000000000000E-002     0.0000000000000000     
  -3.2399999999999998E-002     0.0000000000000000     
  -3.2350000000000004E-002     0.0000000000000000     
  -3.2300000000000002E-002     0.0000000000000000     
  -3.2250000000000001E-002     0.0000000000000000     
  -3.2199999999999999E-002     0.0000000000000000     
  -3.2149999999999998E-002     0.0000000000000000     
  -3.2100000000000004E-002     0.0000000000000000     
  -3.2050000000000002E-002     0.0000000000000000     
  -3.2000000000000001E-002     0.0000000000000000     
  -3.1949999999999999E-002     0.0000000000000000     
  -3.1899999999999998E-002     0.0000000000000000     
  -3.1850000000000003E-002     0.0000000000000000     
  -3.1800000000000002E-002     0.0000000000000000     
  -3.1750000000000000E-002     0.0000000000000000     
  -3.1699999999999999E-002     0.0000000000000000     
  -3.1649999999999998E-002     0.0000000000000000     
  -3.1600000000000003E-002     0.0000000000000000     
  -3.1550000000000002E-002     0.0000000000000000     
  -3.1500000000000000E-002     0.0000000000000000     
  -3.1449999999999999E-002     0.0000000000000000     
  -3.1399999999999997E-002     0.0000000000000000     
  -3.1350000000000003E-002     0.0000000000000000     
  -3.1300000000000001E-002     0.0000000000000000     
  -3.1250000000000000E-002     0.0000000000000000     
  -3.1199999999999999E-002     0.0000000000000000     
  -3.1150000000000001E-002     0.0000000000000000     
  -3.1100000000000003E-002     0.0000000000000000     
  -3.1050000000000001E-002     0.0000000000000000     
  -3.1000000000000000E-002     0.0000000000000000     
  -3.0949999999999998E-002     0.0000000000000000     
  -3.0900000000000000E-002     0.0000000000000000     
  -3.0850000000000002E-002     0.0000000000000000     
  -3.0800000000000001E-002     0.0000000000000000     
  -3.0750000000000000E-002     0.0000000000000000     
  -3.0699999999999998E-002     0.0000000000000000     
  -3.0650000000000000E-002     0.0000000000000000     
  -3.0600000000000002E-002     0.0000000000000000     
  -3.0550000000000001E-002     0.0000000000000000     
  -3.0499999999999999E-002     0.0000000000000000     
  -3.0449999999999998E-002     0.0000000000000000     
  -3.0400000000000000E-002     0.0000000000000000     
  -3.0350000000000002E-002     0.0000000000000000     
  -3.0300000000000001E-002     0.0000000000000000     
  -3.0249999999999999E-002     0.0000000000000000     
  -3.0200000000000001E-002     0.0000000000000000     
  -3.0150000000000000E-002     0.0000000000000000     
  -3.0100000000000002E-002     0.0000000000000000     
  -3.0050000000000000E-002     0.0000000000000000     
  -2.9999999999999999E-002     0.0000000000000000     
  -2.9950000000000001E-002     0.0000000000000000     
  -2.9899999999999999E-002     0.0000000000000000     
  -2.9850000000000002E-002     0.0000000000000000     
  -2.9800000000000000E-002     0.0000000000000000     
  -2.9749999999999999E-002     0.0000000000000000     
  -2.9700000000000001E-002     0.0000000000000000     
  -2.9650000000000003E-002     0.0000000000000000     
  -2.9600000000000001E-002     0.0000000000000000     
  -2.9550000000000000E-002     0.0000000000000000     
  -2.9499999999999998E-002     0.0000000000000000     
  -2.9450000000000000E-002     0.0000000000000000     
  -2.9400000000000003E-002     0.0000000000000000     
  -2.9350000000000001E-002    -9.6095819817649649E-040
  -2.9300000000000000E-002    -2.6024874330521935E-039
  -2.9249999999999998E-002    -4.1899524743099525E-039
  -2.9200000000000000E-002    -3.0888214933150304E-039
  -2.9150000000000002E-002     1.6074027941628906E-039
  -2.9100000000000001E-002     1.1559113200439709E-038
  -2.9049999999999999E-002     2.3219056044730491E-038
  -2.8999999999999998E-002     2.9624441110643080E-038
  -2.8950000000000000E-002     2.3060525963313503E-038
  -2.8900000000000002E-002     1.0061250261880433E-039
  -2.8850000000000001E-002    -3.5133415558785409E-038
  -2.8799999999999999E-002    -9.3916332147855004E-038
  -2.8749999999999998E-002    -1.4030873540233908E-037
  -2.8700000000000000E-002    -1.5496008410418208E-037
  -2.8650000000000002E-002    -1.0336801253735080E-037
  -2.8600000000000000E-002     1.4804706389954112E-038
  -2.8549999999999999E-002     1.8931650703083852E-037
  -2.8500000000000001E-002     3.8536664909936422E-037
  -2.8450000000000000E-002     5.2983692746907484E-037
  -2.8400000000000002E-002     5.2484689203801345E-037
  -2.8350000000000000E-002     3.1310134358775148E-037
  -2.8299999999999999E-002    -1.2351237468734028E-037
  -2.8250000000000001E-002    -7.0713791866359393E-037
  -2.8200000000000003E-002    -1.2741831724287722E-036
  -2.8150000000000001E-002    -1.6208690905831519E-036
  -2.8100000000000000E-002    -1.5167950590621123E-036
  -2.8049999999999999E-002    -8.3524483967456380E-037
  -2.8000000000000001E-002     3.7278031754011723E-037
  -2.7950000000000003E-002     1.8460926572295007E-036
  -2.7900000000000001E-002     3.1639930448129871E-036
  -2.7850000000000000E-002     3.8744191429409624E-036
  -2.7799999999999998E-002     3.6597558902690874E-036
  -2.7750000000000000E-002     2.4706870815205018E-036
  -2.7700000000000002E-002     5.4387739267625785E-037
  -2.7650000000000001E-002    -1.7100536895746814E-036
  -2.7600000000000000E-002    -3.9225353397757752E-036
  -2.7549999999999998E-002    -5.9711158290884130E-036
  -2.7500000000000000E-002    -8.0172362357118087E-036
  -2.7450000000000002E-002    -1.0268849389667108E-035
  -2.7400000000000001E-002    -1.2480118920429473E-035
  -2.7349999999999999E-002    -1.3394108321547244E-035
  -2.7299999999999998E-002    -1.0498799561613734E-035
  -2.7250000000000000E-002    -5.2706828360113672E-037
  -2.7200000000000002E-002     1.9048886995663766E-035
  -2.7150000000000001E-002     4.7692969435598386E-035
  -2.7099999999999999E-002     7.9417618841563332E-035
  -2.7049999999999998E-002     1.0163201651893812E-034
  -2.7000000000000000E-002     9.6693168522647504E-035
  -2.6950000000000002E-002     4.7126441409006594E-035
  -2.6900000000000000E-002    -5.5796289358741988E-035
  -2.6849999999999999E-002    -2.0227878837750823E-034
  -2.6800000000000001E-002    -3.5698925430394042E-034
  -2.6749999999999999E-002    -4.5967693633670460E-034
  -2.6700000000000002E-002    -4.3735321410209686E-034
  -2.6650000000000000E-002    -2.2876799146406328E-034
  -2.6599999999999999E-002     1.8323570749575238E-034
  -2.6550000000000001E-002     7.4158775198461475E-034
  -2.6500000000000003E-002     1.3011050527331928E-033
  -2.6450000000000001E-002     1.6445081998559140E-033
  -2.6400000000000000E-002     1.5355539614356089E-033
  -2.6349999999999998E-002     8.0411587432158566E-034
  -2.6300000000000000E-002    -5.5749020560328450E-034
  -2.6250000000000002E-002    -2.3210467311042792E-033
  -2.6200000000000001E-002    -4.0106731978171520E-033
  -2.6150000000000000E-002    -4.9822166057096890E-033
  -2.6099999999999998E-002    -4.5981939636110159E-033
  -2.6050000000000000E-002    -2.4664322031621689E-033
  -2.6000000000000002E-002     1.3261007694858144E-033
  -2.5950000000000001E-002     6.0749737756042195E-033
  -2.5899999999999999E-002     1.0499863966533887E-032
  -2.5849999999999998E-002     1.3008615630710065E-032
  -2.5800000000000000E-002     1.2154545228605542E-032
  -2.5750000000000002E-002     7.1756025762871535E-033
  -2.5700000000000001E-002    -1.5584570416400991E-033
  -2.5649999999999999E-002    -1.2376274680724906E-032
  -2.5599999999999998E-002    -2.2539884226338376E-032
  -2.5550000000000000E-002    -2.8889297368802145E-032
  -2.5500000000000002E-002    -2.8748368008448238E-032
  -2.5450000000000000E-002    -2.0816507845120448E-032
  -2.5399999999999999E-002    -5.7295556018337442E-033
  -2.5349999999999998E-002     1.3944269041806957E-032
  -2.5300000000000000E-002     3.4310019272186722E-032
  -2.5250000000000002E-002     5.1142307367099701E-032
  -2.5200000000000000E-002     6.0870380326354701E-032
  -2.5149999999999999E-002     6.1125645476991685E-032
  -2.5100000000000001E-002     5.0625508007843667E-032
  -2.5049999999999999E-002     2.8552989068246719E-032
  -2.5000000000000001E-002    -5.9918041100226223E-033
  -2.4950000000000000E-002    -5.3675644334125782E-032
  -2.4899999999999999E-002    -1.1315974103183618E-031
  -2.4850000000000001E-002    -1.7798240309117211E-031
  -2.4800000000000003E-002    -2.3326194962101604E-031
  -2.4750000000000001E-002    -2.5437669517892449E-031
  -2.4700000000000000E-002    -2.1012538224017017E-031
  -2.4649999999999998E-002    -7.2042582298441599E-032
  -2.4600000000000000E-002     1.7065767568207742E-031
  -2.4550000000000002E-002     4.9421501741627201E-031
  -2.4500000000000001E-002     8.2834025308272071E-031
  -2.4450000000000000E-002     1.0574358106369323E-030
  -2.4399999999999998E-002     1.0417856319098323E-030
  -2.4350000000000000E-002     6.6012596570973509E-031
  -2.4299999999999999E-002    -1.3350407309836132E-031
  -2.4250000000000001E-002    -1.2551059433091671E-030
  -2.4199999999999999E-002    -2.4613162952372849E-030
  -2.4150000000000001E-002    -3.3681733102376940E-030
  -2.4100000000000000E-002    -3.5314398433401847E-030
  -2.4049999999999998E-002    -2.5831338942064915E-030
  -2.4000000000000000E-002    -3.9499512545394208E-031
  -2.3949999999999999E-002     2.7818708804830064E-030
  -2.3900000000000001E-002     6.2616588235810439E-030
  -2.3850000000000000E-002     9.0034352525904130E-030
  -2.3800000000000002E-002     9.8438212644693974E-030
  -2.3750000000000000E-002     7.8511400850266669E-030
  -2.3699999999999999E-002     2.7152999772525673E-030
  -2.3650000000000001E-002    -4.9516030385209289E-030
  -2.3599999999999999E-002    -1.3534582381276743E-029
  -2.3550000000000001E-002    -2.0645826270438443E-029
  -2.3500000000000000E-002    -2.3673358894931046E-029
  -2.3449999999999999E-002    -2.0548638048436267E-029
  -2.3400000000000001E-002    -1.0533923033840425E-029
  -2.3349999999999999E-002     5.2233409867414232E-030
  -2.3300000000000001E-002     2.3600491195724925E-029
  -2.3250000000000000E-002     3.9999668990195677E-029
  -2.3199999999999998E-002     4.9394406636509707E-029
  -2.3150000000000000E-002     4.7693932805489079E-029
  -2.3099999999999999E-002     3.3057318180656970E-029
  -2.3050000000000001E-002     6.7538072263126386E-030
  -2.3000000000000000E-002    -2.6739023328683999E-029
  -2.2950000000000002E-002    -6.0497747888306172E-029
  -2.2900000000000000E-002    -8.6612760513181989E-029
  -2.2849999999999999E-002    -9.7958605219668000E-029
  -2.2800000000000001E-002    -8.9791954838778402E-029
  -2.2749999999999999E-002    -6.0771777638657492E-029
  -2.2700000000000001E-002    -1.3225482762740423E-029
  -2.2650000000000000E-002     4.7222414324606315E-029
  -2.2599999999999999E-002     1.1232349484885705E-028
  -2.2550000000000001E-002     1.7181872901502890E-028
  -2.2499999999999999E-002     2.1384893411947062E-028
  -2.2450000000000001E-002     2.2541156787440801E-028
  -2.2400000000000000E-002     1.9349390548885485E-028
  -2.2349999999999998E-002     1.0762950862274541E-028
  -2.2300000000000000E-002    -3.5729654680849873E-029
  -2.2249999999999999E-002    -2.2750766100491559E-028
  -2.2200000000000001E-002    -4.4064355187470235E-028
  -2.2150000000000000E-002    -6.2781490597163438E-028
  -2.2100000000000002E-002    -7.2532489431469939E-028
  -2.2050000000000000E-002    -6.6532526604608771E-028
  -2.1999999999999999E-002    -3.9620872654355909E-028
  -2.1950000000000001E-002     9.2409643038243609E-029
  -2.1899999999999999E-002     7.4723383598713966E-028
  -2.1850000000000001E-002     1.4407240421728468E-027
  -2.1800000000000000E-002     1.9813853093082042E-027
  -2.1749999999999999E-002     2.1498934946173589E-027
  -2.1700000000000001E-002     1.7587032733154717E-027
  -2.1649999999999999E-002     7.2359653393610344E-028
  -2.1600000000000001E-002    -8.7267848542471799E-028
  -2.1550000000000000E-002    -2.7486485061053956E-027
  -2.1499999999999998E-002    -4.4453539878484260E-027
  -2.1450000000000000E-002    -5.4106879944625838E-027
  -2.1399999999999999E-002    -5.1391504737789109E-027
  -2.1350000000000001E-002    -3.3389174672125916E-027
  -2.1299999999999999E-002    -8.1283417949848778E-029
  -2.1250000000000002E-002     4.1191322141987304E-027
  -2.1200000000000000E-002     8.3366229418332518E-027
  -2.1149999999999999E-002     1.1397876111815103E-026
  -2.1100000000000001E-002     1.2159194074933315E-026
  -2.1049999999999999E-002     9.8408276140838980E-027
  -2.1000000000000001E-002     4.3317952915211138E-027
  -2.0950000000000000E-002    -3.6308028674627032E-027
  -2.0899999999999998E-002    -1.2485653597644745E-026
  -2.0850000000000000E-002    -2.0106427718241669E-026
  -2.0799999999999999E-002    -2.4265184878161758E-026
  -2.0750000000000001E-002    -2.3204467721303917E-026
  -2.0700000000000000E-002    -1.6176795643706914E-026
  -2.0649999999999998E-002    -3.7999093960404263E-027
  -2.0600000000000000E-002     1.1891335840292950E-026
  -2.0549999999999999E-002     2.7744842621684997E-026
  -2.0500000000000001E-002     4.0100261966083177E-026
  -2.0449999999999999E-002     4.5579023774075649E-026
  -2.0400000000000001E-002     4.1873934315478151E-026
  -2.0350000000000000E-002     2.8352569559568031E-026
  -2.0299999999999999E-002     6.3364018552787893E-027
  -2.0250000000000001E-002    -2.0998631991894570E-026
  -2.0199999999999999E-002    -4.9062863383786917E-026
  -2.0150000000000001E-002    -7.2529554409667437E-026
  -2.0100000000000000E-002    -8.6119833589794512E-026
  -2.0049999999999998E-002    -8.5393482543349697E-026
  -2.0000000000000000E-002    -6.7496942737691704E-026
  -1.9949999999999999E-002    -3.1863931917346043E-026
  -1.9900000000000001E-002     1.9138058482483268E-026
  -1.9850000000000000E-002     7.9690086783270041E-026
  -1.9799999999999998E-002     1.4032737824403324E-025
  -1.9750000000000000E-002     1.8837923445472916E-025
  -1.9699999999999999E-002     2.0938921785331429E-025
  -1.9650000000000001E-002     1.8973601912700253E-025
  -1.9599999999999999E-002     1.2035515261012149E-025
  -1.9550000000000001E-002     9.8127683384144102E-028
  -1.9500000000000000E-002    -1.5618192648274362E-025
  -1.9449999999999999E-002    -3.2480946230101877E-025
  -1.9400000000000001E-002    -4.6624547872844366E-025
  -1.9349999999999999E-002    -5.3561771486623199E-025
  -1.9300000000000001E-002    -4.9208569009536219E-025
  -1.9250000000000000E-002    -3.1161028617940520E-025
  -1.9199999999999998E-002     7.6261765317182516E-028
  -1.9150000000000000E-002     4.0299298468038235E-025
  -1.9099999999999999E-002     8.1630725872692077E-025
  -1.9050000000000001E-002     1.1360842823448668E-024
  -1.9000000000000000E-002     1.2533011239445311E-024
  -1.8949999999999998E-002     1.0832569231997061E-024
  -1.8900000000000000E-002     5.9521047435606031E-025
  -1.8849999999999999E-002    -1.6536592010550780E-025
  -1.8800000000000001E-002    -1.0701235427543579E-024
  -1.8749999999999999E-002    -1.9223891380110361E-024
  -1.8700000000000001E-002    -2.4937148796305420E-024
  -1.8650000000000000E-002    -2.5770901520030090E-024
  -1.8599999999999998E-002    -2.0456349104157167E-024
  -1.8550000000000001E-002    -9.0185384866445034E-025
  -1.8499999999999999E-002     6.9764447646027408E-025
  -1.8450000000000001E-002     2.4529823722218570E-024
  -1.8400000000000000E-002     3.9705640556897851E-024
  -1.8349999999999998E-002     4.8445727292933911E-024
  -1.8300000000000000E-002     4.7541639091468395E-024
  -1.8249999999999999E-002     3.5538113846152710E-024
  -1.8200000000000001E-002     1.3333510551442731E-024
  -1.8149999999999999E-002    -1.5705427530935375E-024
  -1.8100000000000002E-002    -4.6192039840448781E-024
  -1.8050000000000000E-002    -7.1676377442879150E-024
  -1.7999999999999999E-002    -8.5928895578860278E-024
  -1.7950000000000001E-002    -8.4285173891141340E-024
  -1.7899999999999999E-002    -6.4764882373706808E-024
  -1.7850000000000001E-002    -2.8726592037762828E-024
  -1.7800000000000000E-002     1.9077291232301202E-024
  -1.7749999999999998E-002     7.1056819020746089E-024
  -1.7700000000000000E-002     1.1785146351038706E-023
  -1.7649999999999999E-002     1.4973680288400469E-023
  -1.7600000000000001E-002     1.5817998415213096E-023
  -1.7550000000000000E-002     1.3737104197894628E-023
  -1.7499999999999998E-002     8.5584856116462333E-024
  -1.7450000000000000E-002     6.2341824106184263E-025
  -1.7399999999999999E-002    -9.1557481935707692E-024
  -1.7350000000000001E-002    -1.9309448724934380E-023
  -1.7299999999999999E-002    -2.7923236955147494E-023
  -1.7250000000000001E-002    -3.2872547479987437E-023
  -1.7200000000000000E-002    -3.2186622853336658E-023
  -1.7149999999999999E-002    -2.4515421049621754E-023
  -1.7100000000000001E-002    -9.6287975009321818E-024
  -1.7049999999999999E-002     1.1167799352202529E-023
  -1.7000000000000001E-002     3.4845338466299919E-023
  -1.6950000000000000E-002     5.6829497510882624E-023
  -1.6899999999999998E-002     7.1631264038251379E-023
  -1.6850000000000000E-002     7.3916513089278755E-023
  -1.6799999999999999E-002     5.9869388602885855E-023
  -1.6750000000000001E-002     2.8572470887015663E-023
  -1.6700000000000000E-002    -1.6964663382296516E-023
  -1.6649999999999998E-002    -6.9507522819578775E-023
  -1.6600000000000000E-002    -1.1831081942590290E-022
  -1.6549999999999999E-002    -1.5092141432493595E-022
  -1.6500000000000001E-002    -1.5586635384969183E-022
  -1.6449999999999999E-002    -1.2573164894819360E-022
  -1.6400000000000001E-002    -5.9914402601676192E-023
  -1.6350000000000000E-002     3.3740223300889223E-023
  -1.6299999999999999E-002     1.3907827277907749E-022
  -1.6250000000000001E-002     2.3387883225386273E-022
  -1.6199999999999999E-002     2.9403777563785875E-022
  -1.6150000000000001E-002     2.9899964016558738E-022
  -1.6100000000000000E-002     2.3730170435509758E-022
  -1.6049999999999998E-002     1.1087633373075025E-022
  -1.6000000000000000E-002    -6.3141124787934352E-023
  -1.5949999999999999E-002    -2.5391673232965856E-022
  -1.5900000000000001E-002    -4.2184966861917883E-022
  -1.5850000000000000E-002    -5.2622965921537260E-022
  -1.5799999999999998E-002    -5.3417990248949445E-022
  -1.5750000000000000E-002    -4.2898666455429082E-022
  -1.5699999999999999E-002    -2.1586787886383094E-022
  -1.5650000000000001E-002     7.6354860963335419E-023
  -1.5599999999999999E-002     3.9842375239971294E-022
  -1.5550000000000001E-002     6.8839058163605206E-022
  -1.5500000000000000E-002     8.8269382563545813E-022
  -1.5449999999999998E-002     9.2858458207260314E-022
  -1.5400000000000000E-002     7.9557845007493906E-022
  -1.5349999999999999E-002     4.8375194609549539E-022
  -1.5300000000000001E-002     2.7224560637103502E-023
  -1.5250000000000000E-002    -5.0802959940282442E-022
  -1.5199999999999998E-002    -1.0320258399053464E-021
  -1.5150000000000000E-002    -1.4434574392983586E-021
  -1.5099999999999999E-002    -1.6457725723465935E-021
  -1.5050000000000001E-002    -1.5647165050985472E-021
  -1.4999999999999999E-002    -1.1650603811660584E-021
  -1.4949999999999998E-002    -4.6395740556052648E-022
  -1.4900000000000000E-002     4.6180009402439179E-022
  -1.4849999999999999E-002     1.4772779906505633E-021
  -1.4800000000000001E-002     2.4017728153488991E-021
  -1.4749999999999999E-002     3.0329531688401093E-021
  -1.4700000000000001E-002     3.1816196726609691E-021
  -1.4650000000000000E-002     2.7131977195117863E-021
  -1.4599999999999998E-002     1.5891285850218914E-021
  -1.4550000000000000E-002    -1.0105341368439624E-022
  -1.4499999999999999E-002    -2.1270937789146175E-021
  -1.4450000000000001E-002    -4.1334737402116564E-021
  -1.4400000000000000E-002    -5.6873252638786382E-021
  -1.4349999999999998E-002    -6.3563580307916895E-021
  -1.4300000000000000E-002    -5.8061311810239819E-021
  -1.4249999999999999E-002    -3.8982171665538262E-021
  -1.4200000000000001E-002    -7.6577343885573090E-022
  -1.4149999999999999E-002     3.1571521613088123E-021
  -1.4099999999999998E-002     7.1702815276980953E-021
  -1.4050000000000000E-002     1.0411554805983295E-020
  -1.3999999999999999E-002     1.2021056368192139E-020
  -1.3950000000000001E-002     1.1337228786224302E-020
  -1.3899999999999999E-002     8.0848839741045495E-021
  -1.3850000000000001E-002     2.5087082700720481E-021
  -1.3800000000000000E-002    -4.5891488735871473E-021
  -1.3749999999999998E-002    -1.1932852251342975E-020
  -1.3700000000000000E-002    -1.7978580135483065E-020
  -1.3649999999999999E-002    -2.1213804488937701E-020
  -1.3600000000000001E-002    -2.0495527720372768E-020
  -1.3550000000000000E-002    -1.5356009602649135E-020
  -1.3499999999999998E-002    -6.2025809959290059E-021
  -1.3450000000000000E-002     5.6469144840394783E-021
  -1.3399999999999999E-002     1.8121144349041317E-020
  -1.3350000000000001E-002     2.8733082086704287E-020
  -1.3299999999999999E-002     3.5045843164821801E-020
  -1.3249999999999998E-002     3.5181214598401168E-020
  -1.3200000000000000E-002     2.8268955548906326E-020
  -1.3149999999999998E-002     1.4739297768669107E-020
  -1.3100000000000001E-002    -3.6138931084704441E-021
  -1.3049999999999999E-002    -2.3830705530856717E-020
  -1.3000000000000001E-002    -4.2226095900797939E-020
  -1.2950000000000000E-002    -5.5009735168629928E-020
  -1.2899999999999998E-002    -5.8984571614212282E-020
  -1.2850000000000000E-002    -5.2205236549822417E-020
  -1.2799999999999999E-002    -3.4478729329229267E-020