  -4.0000000000000001E-002     0.0000000000000000     
  -3.9949999999999999E-002     0.0000000000000000     
  -3.9899999999999998E-002     0.0000000000000000     
  -3.9850000000000003E-002     0.0000000000000000     
  -3.9800000000000002E-002     0.0000000000000000     
  -3.9750000000000001E-002     0.0000000000000000     
  -3.9699999999999999E-002     0.0000000000000000     
  -3.9649999999999998E-002     0.0000000000000000     
  -3.9600000000000003E-002     0.0000000000000000     
  -3.9550000000000002E-002     0.0000000000000000     
  -3.9500000000000000E-002     0.0000000000000000     
  -3.9449999999999999E-002     0.0000000000000000     
  -3.9399999999999998E-002     0.0000000000000000     
  -3.9350000000000003E-002     0.0000000000000000     
  -3.9300000000000002E-002     0.0000000000000000     
  -3.9250000000000000E-002     0.0000000000000000     
  -3.9199999999999999E-002     0.0000000000000000     
  -3.9150000000000004E-002     0.0000000000000000     
  -3.9100000000000003E-002     0.0000000000000000     
  -3.9050000000000001E-002     0.0000000000000000     
  -3.9000000000000000E-002     0.0000000000000000     
  -3.8949999999999999E-002     0.0000000000000000     
  -3.8900000000000004E-002     0.0000000000000000     
  -3.8850000000000003E-002     0.0000000000000000     
  -3.8800000000000001E-002     0.0000000000000000     
  -3.8750000000000000E-002     0.0000000000000000     
  -3.8699999999999998E-002     0.0000000000000000     
  -3.8650000000000004E-002     0.0000000000000000     
  -3.8600000000000002E-002     0.0000000000000000     
  -3.8550000000000001E-002     0.0000000000000000     
  -3.8500000000000000E-002     0.0000000000000000     
  -3.8449999999999998E-002     0.0000000000000000     
  -3.8400000000000004E-002     0.0000000000000000     
  -3.8350000000000002E-002     0.0000000000000000     
  -3.8300000000000001E-002     2.4448822342525080E-040
  -3.8249999999999999E-002     1.0966368888939842E-039
  -3.8199999999999998E-002     2.0935684076919000E-039
  -3.8150000000000003E-002     2.3091456706251507E-039
  -3.8100000000000002E-002    -3.4893925903752867E-039
  -3.8050000000000000E-002    -2.3442782714520847E-038
  -3.7999999999999999E-002    -6.7008230043805209E-038
  -3.7949999999999998E-002    -1.4194028246801296E-037
  -3.7900000000000003E-002    -2.3378118644022200E-037
  -3.7850000000000002E-002    -2.4413475882810405E-037
  -3.7800000000000000E-002     1.0712666735172002E-037
  -3.7749999999999999E-002     1.3558198068214400E-036
  -3.7699999999999997E-002     4.2072136258125014E-036
  -3.7650000000000003E-002     9.0003291907225886E-036
  -3.7600000000000001E-002     1.4418535849587367E-035
  -3.7550000000000000E-002     1.5322074742929094E-035
  -3.7499999999999999E-002     4.0142236978951339E-037
  -3.7449999999999997E-002    -4.8122171769719669E-035
  -3.7400000000000003E-002    -1.4847282602939579E-034
  -3.7350000000000001E-002    -3.0146811596166429E-034
  -3.7300000000000000E-002    -4.5750534054655469E-034
  -3.7249999999999998E-002    -4.7405598329757566E-034
  -3.7200000000000004E-002    -8.7319127702742249E-035
  -3.7150000000000002E-002     1.0542237891593236E-033
  -3.7100000000000001E-002     3.2287411678601576E-033
  -3.7050000000000000E-002     6.2989357677307068E-033
  -3.6999999999999998E-002     9.2074775461825246E-033
  -3.6950000000000004E-002     9.4805548266730876E-033
  -3.6900000000000002E-002     3.1242784388275024E-033
  -3.6850000000000001E-002    -1.4509764740687483E-032
  -3.6799999999999999E-002    -4.6307665136305504E-032
  -3.6749999999999998E-002    -8.9231892395439315E-032
  -3.6700000000000003E-002    -1.2916663357198556E-031
  -3.6650000000000002E-002    -1.3697926076941119E-031
  -3.6600000000000001E-002    -6.9578473389711314E-032
  -3.6549999999999999E-002     1.1941223181244896E-031
  -3.6499999999999998E-002     4.5581831340080707E-031
  -3.6450000000000003E-002     9.0848298161324717E-031
  -3.6400000000000002E-002     1.3484120907384408E-030
  -3.6350000000000000E-002     1.5217257993271974E-030
  -3.6299999999999999E-002     1.0640030586852450E-030
  -3.6249999999999998E-002    -4.1320716534653770E-031
  -3.6200000000000003E-002    -3.1428999704436605E-030
  -3.6150000000000002E-002    -6.9388461164426595E-030
  -3.6100000000000000E-002    -1.0907402249035027E-029
  -3.6049999999999999E-002    -1.3260361160544961E-029
  -3.6000000000000004E-002    -1.1412984881263182E-029
  -3.5950000000000003E-002    -2.5656496392465130E-030
  -3.5900000000000001E-002     1.5110685574932146E-029
  -3.5850000000000000E-002     4.0775960930221527E-029
  -3.5799999999999998E-002     6.9145795633099616E-029
  -3.5750000000000004E-002     8.9480367735444100E-029
  -3.5700000000000003E-002     8.6463501644824876E-029
  -3.5650000000000001E-002     4.3999990186184387E-029
  -3.5600000000000000E-002    -4.7783348424660345E-029
  -3.5549999999999998E-002    -1.8352874331312628E-028
  -3.5500000000000004E-002    -3.3477204283066641E-028
  -3.5450000000000002E-002    -4.4798318322061974E-028
  -3.5400000000000001E-002    -4.5346107276169987E-028
  -3.5349999999999999E-002    -2.8753123979593811E-028
  -3.5299999999999998E-002     7.5060103837591381E-029
  -3.5250000000000004E-002     5.8912862359352494E-028
  -3.5200000000000002E-002     1.1242568917666922E-027
  -3.5150000000000001E-002     1.4846410925772260E-027
  -3.5099999999999999E-002     1.4718363100105111E-027
  -3.5049999999999998E-002     9.7905131557426392E-028
  -3.5000000000000003E-002     8.0852288222075130E-029
  -3.4950000000000002E-002    -9.3596605245994339E-028
  -3.4900000000000000E-002    -1.6507024355754598E-027
  -3.4849999999999999E-002    -1.7094765630017014E-027
  -3.4799999999999998E-002    -1.0934723335624836E-027
  -3.4750000000000003E-002    -3.2384279855110883E-028
  -3.4700000000000002E-002    -4.3079272043889066E-028
  -3.4650000000000000E-002    -2.5539654628339334E-027
  -3.4599999999999999E-002    -7.1873898021672133E-027
  -3.4549999999999997E-002    -1.3310089024333573E-026
  -3.4500000000000003E-002    -1.7864004381875247E-026
  -3.4450000000000001E-002    -1.6117611251541061E-026
  -3.4400000000000000E-002    -3.2584809754668353E-027
  -3.4349999999999999E-002     2.2947372805681383E-026
  -3.4299999999999997E-002     5.9283733779662209E-026
  -3.4250000000000003E-002     9.5434650031049592E-026
  -3.4200000000000001E-002     1.1507119616294264E-025
  -3.4150000000000000E-002     1.0046991797713570E-025
  -3.4099999999999998E-002     3.9958123841087358E-026
  -3.4049999999999997E-002    -6.4325447462949333E-026
  -3.4000000000000002E-002    -1.9209876179424873E-025
  -3.3950000000000001E-002    -3.0747842873101574E-025
  -3.3900000000000000E-002    -3.6949738092463598E-025
  -3.3849999999999998E-002    -3.4777242673183473E-025
  -3.3799999999999997E-002    -2.3658714117359538E-025
  -3.3750000000000002E-002    -5.9110119213503867E-026
  -3.3700000000000001E-002     1.4370945794892456E-025
  -3.3649999999999999E-002     3.3754532988714150E-025
  -3.3599999999999998E-002     5.2066838858509554E-025
  -3.3550000000000003E-002     7.3285824082643555E-025
  -3.3500000000000002E-002     1.0303376030081257E-024
  -3.3450000000000001E-002     1.4236403105760993E-024
  -3.3399999999999999E-002     1.7990987258842919E-024
  -3.3349999999999998E-002     1.8690020519871139E-024
  -3.3300000000000003E-002     1.2058211959531452E-024
  -3.3250000000000002E-002    -6.0171164020632385E-025
  -3.3200000000000000E-002    -3.6831975542910552E-024
  -3.3149999999999999E-002    -7.5957929542176103E-024
  -3.3099999999999997E-002    -1.1155146240137653E-023
  -3.3050000000000003E-002    -1.2550901592254945E-023
  -3.3000000000000002E-002    -9.8460056491896929E-024
  -3.2950000000000000E-002    -1.8120746054814689E-024
  -3.2899999999999999E-002     1.1139121462409494E-023
  -3.2850000000000004E-002     2.6326721196784737E-023
  -3.2800000000000003E-002     3.8904069539877744E-023
  -3.2750000000000001E-002     4.2958721326483081E-023
  -3.2700000000000000E-002     3.3516253236873806E-023
  -3.2649999999999998E-002     8.9060797764790920E-024
  -3.2600000000000004E-002    -2.7409830501874766E-023
  -3.2550000000000003E-002    -6.6507966921139414E-023
  -3.2500000000000001E-002    -9.5778085456550391E-023
  -3.2450000000000000E-002    -1.0266187384633604E-022
  -3.2399999999999998E-002    -7.9318935853806110E-023
  -3.2350000000000004E-002    -2.6514061032789520E-023
  -3.2300000000000002E-002     4.5044519730102503E-023
  -3.2250000000000001E-002     1.1695452107974602E-022
  -3.2199999999999999E-002     1.6861577633750958E-022
  -3.2149999999999998E-002     1.8411459373123274E-022
  -3.2100000000000004E-002     1.5769411132935899E-022
  -3.2050000000000002E-002     9.5249554531010771E-023
  -3.2000000000000001E-002     1.0873449794654119E-023
  -3.1949999999999999E-002    -8.0091380844714400E-023
  -3.1899999999999998E-002    -1.6784113972406429E-022
  -3.1850000000000003E-002    -2.5041138532988889E-022
  -3.1800000000000002E-002    -3.2881287969240732E-022
  -3.1750000000000000E-002    -3.9612137891128991E-022
  -3.1699999999999999E-002    -4.2612521200109283E-022
  -3.1649999999999998E-002    -3.6999283722159098E-022
  -3.1600000000000003E-002    -1.6842311634500410E-022
  -3.1550000000000002E-002     2.1904340268613990E-022
  -3.1500000000000000E-002     7.7511368734034598E-022
  -3.1449999999999999E-002     1.3928582323427573E-021
  -3.1399999999999997E-002     1.8715143790762718E-021
  -3.1350000000000003E-002     1.9556676259716373E-021
  -3.1300000000000001E-002     1.4187199032899064E-021
  -3.1250000000000000E-002     1.7076432176953238E-022
  -3.1199999999999999E-002    -1.6478123069362995E-021
  -3.1150000000000001E-002    -3.6329202192518668E-021
  -3.1100000000000003E-002    -5.1780836213904177E-021
  -3.1050000000000001E-002    -5.6347270169544099E-021
  -3.1000000000000000E-002    -4.5347589380488753E-021
  -3.0949999999999998E-002    -1.8029096871847689E-021
  -3.0900000000000000E-002     2.1272271875161895E-021
  -3.0850000000000002E-002     6.3591354371915991E-021
  -3.0800000000000001E-002     9.7538018723324693E-021
  -3.0750000000000000E-002     1.1267726587291155E-020
  -3.0699999999999998E-002     1.0293560448042532E-020
  -3.0650000000000000E-002     6.8704509234742276E-021
  -3.0600000000000002E-002     1.6695536360094107E-021
  -3.0550000000000001E-002    -4.2518444908733567E-021
  -3.0499999999999999E-002    -9.8283323106155690E-021
  -3.0449999999999998E-002    -1.4321495340145230E-020
  -3.0400000000000000E-002    -1.7435438881991569E-020
  -3.0350000000000002E-002    -1.9126706678954844E-020
  -3.0300000000000001E-002    -1.9182063327876749E-020
  -3.0249999999999999E-002    -1.6801261596352297E-020
  -3.0200000000000001E-002    -1.0504558316365407E-020
  -3.0150000000000000E-002     1.3827070170787152E-021
  -3.0100000000000002E-002     1.9648934124440176E-020
  -3.0050000000000000E-002     4.2833003832634144E-020
  -2.9999999999999999E-002     6.6196428734115210E-020
  -2.9950000000000001E-002     8.1757177427380035E-020
  -2.9899999999999999E-002     7.9906041836217281E-020
  -2.9850000000000002E-002     5.2593454801430975E-020
  -2.9800000000000000E-002    -2.6509250452307656E-021
  -2.9749999999999999E-002    -7.9258255262346076E-020
  -2.9700000000000001E-002    -1.6038289428557877E-019
  -2.9650000000000003E-002    -2.2120015485917120E-019
  -2.9600000000000001E-002    -2.3504329688145045E-019
  -2.9550000000000000E-002    -1.8224553858329686E-019
  -2.9499999999999998E-002    -5.9157809871560751E-020
  -2.9450000000000000E-002     1.1596202462700185E-019
  -2.9400000000000003E-002     3.0318338920064288E-019
  -2.9350000000000001E-002     4.4871584021069436E-019
  -2.9300000000000000E-002     4.9930368760468541E-019
  -2.9249999999999998E-002     4.1958620424885108E-019
  -2.9200000000000000E-002     2.0698708469898960E-019
  -2.9150000000000002E-002    -1.0147010713702841E-019
  -2.9100000000000001E-002    -4.3416452688117025E-019
  -2.9049999999999999E-002    -7.0189275443204029E-019
  -2.8999999999999998E-002    -8.2289545865816919E-019
  -2.8950000000000000E-002    -7.4851915967125531E-019
  -2.8900000000000002E-002    -4.8096790988547040E-019
  -2.8850000000000001E-002    -7.6380990495969315E-020
  -2.8799999999999999E-002     3.6906428596422100E-019
  -2.8749999999999998E-002     7.4652726852730048E-019
  -2.8700000000000000E-002     9.6674915034783280E-019
  -2.8650000000000002E-002     9.8617901585193614E-019
  -2.8600000000000000E-002     8.1753346656200806E-019
  -2.8549999999999999E-002     5.2063882326059100E-019
  -2.8500000000000001E-002     1.7676615756108384E-019
  -2.8450000000000000E-002    -1.4360987349256245E-019
  -2.8400000000000002E-002    -4.0638125883418973E-019
  -2.8350000000000000E-002    -6.2128296503400128E-019
  -2.8299999999999999E-002    -8.2665254847994736E-019
  -2.8250000000000001E-002    -1.0564258021887504E-018
  -2.8200000000000003E-002    -1.3030515185386363E-018
  -2.8150000000000001E-002    -1.4941117961737595E-018
  -2.8100000000000000E-002    -1.4975625450177383E-018
  -2.8049999999999999E-002    -1.1608084333605564E-018
  -2.8000000000000001E-002    -3.7523427786048252E-019
  -2.7950000000000003E-002     8.5471436677059945E-019
  -2.7900000000000001E-002     2.3651313219768434E-018
  -2.7850000000000000E-002     3.8328603577396646E-018
  -2.7799999999999998E-002     4.8332597947732562E-018
  -2.7750000000000000E-002     4.9474666091763073E-018
  -2.7700000000000002E-002     3.8923642340173979E-018
  -2.7650000000000001E-002     1.6349344719360913E-018
  -2.7600000000000000E-002    -1.5470153061096934E-018
  -2.7549999999999998E-002    -5.0826689123199651E-018
  -2.7500000000000000E-002    -8.2077527394442568E-018
  -2.7450000000000002E-002    -1.0125327723547959E-017
  -2.7400000000000001E-002    -1.0189928115499686E-017
  -2.7349999999999999E-002    -8.0711367255868784E-018
  -2.7299999999999998E-002    -3.8594206045355759E-018
  -2.7250000000000000E-002     1.9072097315122755E-018
  -2.7200000000000002E-002     8.2989823554115016E-018
  -2.7150000000000001E-002     1.4121696502473859E-017
  -2.7099999999999999E-002     1.8097959009679364E-017
  -2.7049999999999998E-002     1.9083793037196196E-017
  -2.7000000000000000E-002     1.6301949604398713E-017
  -2.6950000000000002E-002     9.5677520723252095E-018
  -2.6900000000000000E-002    -5.2972227921161935E-019
  -2.6849999999999999E-002    -1.2545151647365520E-017
  -2.6800000000000001E-002    -2.4256626054762167E-017
  -2.6749999999999999E-002    -3.2959752361896924E-017
  -2.6700000000000002E-002    -3.5986611474771500E-017
  -2.6650000000000000E-002    -3.1389412673680311E-017
  -2.6599999999999999E-002    -1.8645451335446798E-017
  -2.6550000000000001E-002     8.2553281954188649E-019
  -2.6500000000000003E-002     2.3554470073463601E-017
  -2.6450000000000001E-002     4.4485843107399298E-017
  -2.6400000000000000E-002     5.8027631897767226E-017
  -2.6349999999999998E-002     5.9512465530766711E-017
  -2.6300000000000000E-002     4.6709182762095804E-017
  -2.6250000000000002E-002     2.0916018210633790E-017
  -2.6200000000000001E-002    -1.2803846725866959E-017
  -2.6150000000000000E-002    -4.6493848534509617E-017
  -2.6099999999999998E-002    -7.1214349953589176E-017
  -2.6050000000000000E-002    -7.9562978147386799E-017
  -2.6000000000000002E-002    -6.8092171515156948E-017
  -2.5950000000000001E-002    -3.8821402474155735E-017
  -2.5899999999999999E-002     7.8930088958492058E-019
  -2.5849999999999998E-002     3.9619048854583249E-017
  -2.5800000000000000E-002     6.6073779783878161E-017
  -2.5750000000000002E-002     7.1805797917132533E-017
  -2.5700000000000001E-002     5.4781016477985031E-017
  -2.5649999999999999E-002     2.0566643319293453E-017
  -2.5599999999999998E-002    -1.8833114160685409E-017
  -2.5550000000000000E-002    -4.8510979321920700E-017
  -2.5500000000000002E-002    -5.5647359166617865E-017
  -2.5450000000000000E-002    -3.4415888667638608E-017
  -2.5399999999999999E-002     1.0914843245756293E-017
  -2.5349999999999998E-002     6.6012407845042260E-017
  -2.5300000000000000E-002     1.1006901191409941E-016
  -2.5250000000000002E-002     1.2220599274350046E-016
  -2.5200000000000000E-002     8.8892901050978254E-017
  -2.5149999999999999E-002     9.9964471722574950E-018
  -2.5100000000000001E-002    -9.8773915583561344E-017
  -2.5049999999999999E-002    -2.0833632394982933E-016
  -2.5000000000000001E-002    -2.8347741864146802E-016
  -2.4950000000000000E-002    -2.9313797990973009E-016
  -2.4899999999999999E-002    -2.2083440748375230E-016
  -2.4850000000000001E-002    -7.1940285716243192E-017
  -2.4800000000000003E-002     1.2480715374095598E-016
  -2.4750000000000001E-002     3.2267069684719122E-016
  -2.4700000000000000E-002     4.6823453203206397E-016
  -2.4649999999999998E-002     5.1587991034296756E-016
  -2.4600000000000000E-002     4.4143043635687830E-016
  -2.4550000000000002E-002     2.5093196456073460E-016
  -2.4500000000000001E-002    -1.8324901238985899E-017
  -2.4450000000000000E-002    -3.0537780127041143E-016
  -2.4399999999999998E-002    -5.4018976408042233E-016
  -2.4350000000000000E-002    -6.6163861339693652E-016
  -2.4299999999999999E-002    -6.3415055003451598E-016
  -2.4250000000000001E-002    -4.5838753723912448E-016
  -2.4199999999999999E-002    -1.7283541858281602E-016
  -2.4150000000000001E-002     1.5456510403326492E-016
  -2.4100000000000000E-002     4.4297835096512897E-016
  -2.4049999999999998E-002     6.1944984943852220E-016
  -2.4000000000000000E-002     6.3866193382509705E-016
  -2.3949999999999999E-002     4.9642275369742556E-016
  -2.3900000000000001E-002     2.3294798278356703E-016
  -2.3850000000000000E-002    -7.5679328922004022E-017
  -2.3800000000000002E-002    -3.3661350913531765E-016
  -2.3750000000000000E-002    -4.6584220344042366E-016
  -2.3699999999999999E-002    -4.1410008450860212E-016
  -2.3650000000000001E-002    -1.8603018394348091E-016
  -2.3599999999999999E-002     1.5370075090105820E-016
  -2.3550000000000001E-002     4.9115375611591417E-016
  -2.3500000000000000E-002     6.9062293863290369E-016
  -2.3449999999999999E-002     6.3407972231491893E-016
  -2.3400000000000001E-002     2.6336341338354648E-016
  -2.3349999999999999E-002    -3.8686115220099206E-016
  -2.3300000000000001E-002    -1.1773046530516299E-015
  -2.3250000000000000E-002    -1.8818256739918997E-015
  -2.3199999999999998E-002    -2.2362350341954300E-015
  -2.3150000000000000E-002    -2.0106269763095381E-015
  -2.3099999999999999E-002    -1.0888533731299174E-015
  -2.3050000000000001E-002     4.6720325332441801E-016
  -2.3000000000000000E-002     2.3913501473637606E-015
  -2.2950000000000002E-002     4.2411922959923967E-015
  -2.2900000000000000E-002     5.4841788946748332E-015
  -2.2849999999999999E-002     5.6285285837046614E-015
  -2.2800000000000001E-002     4.3698876629793787E-015
  -2.2749999999999999E-002     1.7142996891934563E-015
  -2.2700000000000001E-002    -1.9623445707732330E-015
  -2.2650000000000000E-002    -5.9466581800519589E-015
  -2.2599999999999999E-002    -9.3182177606375359E-015
  -2.2550000000000001E-002    -1.1157061192705295E-014
  -2.2499999999999999E-002    -1.0781881759315231E-014
  -2.2450000000000001E-002    -7.9571809737948054E-015
  -2.2400000000000000E-002    -3.0085741388797031E-015
  -2.2349999999999998E-002     3.1961014007649329E-015
  -2.2300000000000000E-002     9.4089631522953391E-015
  -2.2249999999999999E-002     1.4277382327179689E-014
  -2.2200000000000001E-002     1.6667657019291289E-014
  -2.2150000000000000E-002     1.5953443780615712E-014
  -2.2100000000000002E-002     1.2188933299350833E-014
  -2.2050000000000000E-002     6.1137918491544065E-015
  -2.1999999999999999E-002    -1.0189390743492948E-015
  -2.1950000000000001E-002    -7.7513664041765943E-015
  -2.1899999999999999E-002    -1.2784858333627673E-014
  -2.1850000000000001E-002    -1.5300041463488959E-014
  -2.1800000000000000E-002    -1.5142812270561037E-014
  -2.1749999999999999E-002    -1.2822619044803448E-014
  -2.1700000000000001E-002    -9.3228271089691629E-015
  -2.1649999999999999E-002    -5.7782233977725467E-015
  -2.1600000000000001E-002    -3.1150751434411409E-015
  -2.1550000000000000E-002    -1.7622172931902483E-015
  -2.1499999999999998E-002    -1.5224430266881850E-015
  -2.1450000000000000E-002    -1.6468913839090511E-015
  -2.1399999999999999E-002    -1.0940656325101302E-015
  -2.1350000000000001E-002     1.1017450767778230E-015
  -2.1299999999999999E-002     5.4640017029432386E-015
  -2.1250000000000002E-002     1.1824249824142531E-014
  -2.1200000000000000E-002     1.9272991604096076E-014
  -2.1149999999999999E-002     2.6337323874658074E-014
  -2.1100000000000001E-002     3.1344082906253359E-014
  -2.1049999999999999E-002     3.2868831818925043E-014
  -2.1000000000000001E-002     3.0139805635349269E-014
  -2.0950000000000000E-002     2.3271762615114792E-014
  -2.0899999999999998E-002     1.3247901654707535E-014
  -2.0850000000000000E-002     1.6375113586614165E-015
  -2.0799999999999999E-002    -9.8841073669582802E-015
  -2.0750000000000001E-002    -2.0081118344325001E-014
  -2.0700000000000000E-002    -2.8601490336428397E-014
  -2.0649999999999998E-002    -3.6162591141364822E-014
  -2.0600000000000000E-002    -4.4375215721495105E-014
  -2.0549999999999999E-002    -5.5192565121182744E-014
  -2.0500000000000001E-002    -7.0076746996489608E-014
  -2.0449999999999999E-002    -8.9072339903270962E-014
  -2.0400000000000001E-002    -1.1003929652470083E-013
  -2.0350000000000000E-002    -1.2830520092789015E-013
  -2.0299999999999999E-002    -1.3694010804507975E-013
  -2.0250000000000001E-002    -1.2773840695617451E-013
  -2.0199999999999999E-002    -9.2833410136611068E-014
  -2.0150000000000001E-002    -2.6699166944627828E-014
  -2.0100000000000000E-002     7.1844665425072498E-014
  -2.0049999999999998E-002     1.9808070102792489E-013
  -2.0000000000000000E-002     3.4072516632455391E-013
  -1.9949999999999999E-002     4.8244224259492971E-013
  -1.9900000000000001E-002     6.0162266288089116E-013
  -1.9850000000000000E-002     6.7524215273716154E-013
  -1.9799999999999998E-002     6.8236151235277518E-013
  -1.9750000000000000E-002     6.0765405965215373E-013
  -1.9699999999999999E-002     4.4429681746076108E-013
  -1.9650000000000001E-002     1.9566242261586129E-013
  -1.9599999999999999E-002    -1.2450914446440087E-013
  -1.9550000000000001E-002    -4.9345981424074757E-013
  -1.9500000000000000E-002    -8.8195438227492423E-013
  -1.9449999999999999E-002    -1.2574411004629442E-012
  -1.9400000000000001E-002    -1.5871662561499031E-012
  -1.9349999999999999E-002    -1.8406707430978766E-012
  -1.9300000000000001E-002    -1.9913475774699971E-012
  -1.9250000000000000E-002    -2.0170859368377918E-012
  -1.9199999999999998E-002    -1.9003611036268732E-012
  -1.9150000000000000E-002    -1.6283422451289931E-012
  -1.9099999999999999E-002    -1.1936204545443645E-012
  -1.9050000000000001E-002    -5.9595679751490265E-013
  -1.9000000000000000E-002     1.5490827411021337E-013
  -1.8949999999999998E-002     1.0357917468457666E-012
  -1.8900000000000000E-002     2.0067402936813936E-012
  -1.8849999999999999E-002     3.0088460159931467E-012
  -1.8800000000000001E-002     3.9641757016802915E-012
  -1.8749999999999999E-002     4.7784896523661978E-012
  -1.8700000000000001E-002     5.3469429566189514E-012
  -1.8650000000000000E-002     5.5624146525737476E-012
  -1.8599999999999998E-002     5.3256300412771715E-012
  -1.8550000000000001E-002     4.5559747427816338E-012
  -1.8499999999999999E-002     3.2018757823010391E-012
  -1.8450000000000001E-002     1.2498450149510084E-012
  -1.8400000000000000E-002    -1.2683348618739702E-012
  -1.8349999999999998E-002    -4.2704033767999317E-012
  -1.8300000000000000E-002    -7.6202234944658758E-012
  -1.8249999999999999E-002    -1.1125958559066972E-011
  -1.8200000000000001E-002    -1.4539677914397008E-011
  -1.8149999999999999E-002    -1.7558609293242410E-011
  -1.8100000000000002E-002    -1.9828507383575976E-011
  -1.8050000000000000E-002    -2.0949949348852882E-011
  -1.7999999999999999E-002    -2.0488234530418052E-011
  -1.7950000000000001E-002    -1.7987451093659660E-011
  -1.7899999999999999E-002    -1.2988518741570220E-011
  -1.7850000000000001E-002    -5.0505241045947299E-012
  -1.7800000000000000E-002     6.2262584424982385E-012
  -1.7749999999999998E-002     2.1177706983764331E-011
  -1.7700000000000000E-002     4.0055887092273883E-011
  -1.7649999999999999E-002     6.3014060368492693E-011
  -1.7600000000000001E-002     9.0098377676457465E-011
  -1.7550000000000000E-002     1.2124719355324993E-010
  -1.7499999999999998E-002     1.5629809159679229E-010
  -1.7450000000000000E-002     1.9500165413657738E-010
  -1.7399999999999999E-002     2.3704037979520071E-010
  -1.7350000000000001E-002     2.8205041899716188E-010
  -1.7299999999999999E-002     3.2964385727365896E-010
  -1.7250000000000001E-002     3.7942945472818840E-010
  -1.7200000000000000E-002     4.3102994050325881E-010
  -1.7149999999999999E-002     4.8409508422202995E-010
  -1.7100000000000001E-002     5.3831047636598386E-010
  -1.7049999999999999E-002     5.9340215348522697E-010
  -1.7000000000000001E-002     6.4913893104445375E-010
  -1.6950000000000000E-002     7.0533288768831591E-010
  -1.6899999999999998E-002     7.6184014931329034E-010
  -1.6850000000000000E-002     8.1856206768418466E-010
  -1.6799999999999999E-002     8.7544747156679135E-010
  -1.6750000000000001E-002     9.3249484735252640E-010
  -1.6700000000000000E-002     9.8975335112964836E-010
  -1.6649999999999998E-002     1.0473213910740566E-009
  -1.6600000000000000E-002     1.1053414384392182E-009
  -1.6549999999999999E-002     1.1639903616107024E-009
  -1.6500000000000001E-002     1.2234654831694801E-009
  -1.6449999999999999E-002     1.2839686635589077E-009
  -1.6400000000000001E-002     1.3456891035378877E-009
  -1.6350000000000000E-002     1.4087895987699385E-009
  -1.6299999999999999E-002     1.4733966589709020E-009
  -1.6250000000000001E-002     1.5395971894536373E-009
  -1.6199999999999999E-002     1.6074429587841640E-009
  -1.6150000000000001E-002     1.6769597055603051E-009
  -1.6100000000000000E-002     1.7481609893512319E-009
  -1.6049999999999998E-002     1.8210627406519611E-009
  -1.6000000000000000E-002     1.8956963379725847E-009
  -1.5949999999999999E-002     1.9721179298874580E-009
  -1.5900000000000001E-002     2.0504131199218620E-009
  -1.5850000000000000E-002     2.1306963855150312E-009
  -1.5799999999999998E-002     2.2131055826138144E-009
  -1.5750000000000000E-002     2.2977938842281024E-009
  -1.5699999999999999E-002     2.3849193420702375E-009
  -1.5650000000000001E-002     2.4746334136429864E-009
  -1.5599999999999999E-002     2.5670696032949546E-009
  -1.5550000000000001E-002     2.6623323711198254E-009
  -1.5500000000000000E-002     2.7604874984253354E-009
  -1.5449999999999998E-002     2.8615550494546728E-009
  -1.5400000000000000E-002     2.9655072257925585E-009
  -1.5349999999999999E-002     3.0722698740126273E-009
  -1.5300000000000001E-002     3.1817319360893753E-009
  -1.5250000000000000E-002     3.2937610017550559E-009
  -1.5199999999999998E-002     3.4082257167033563E-009
  -1.5150000000000000E-002     3.5250228071991125E-009
  -1.5099999999999999E-002     3.6441045796721999E-009
  -1.5050000000000001E-002     3.7655040677949648E-009
  -1.4999999999999999E-002     3.8893540429467671E-009
  -1.4949999999999998E-002     4.0158943095904582E-009
  -1.4900000000000000E-002     4.1454690521525703E-009
  -1.4849999999999999E-002     4.2785091676380182E-009
  -1.4800000000000001E-002     4.4155061620390780E-009
  -1.4749999999999999E-002     4.5569747676794356E-009
  -1.4700000000000001E-002     4.7034130606041785E-009
  -1.4650000000000000E-002     4.8552588489484087E-009
  -1.4599999999999998E-002     5.0128535597066837E-009
  -1.4550000000000000E-002     5.1764092483236292E-009
  -1.4499999999999999E-002     5.3459913217921999E-009
  -1.4450000000000001E-002     5.5215138046112625E-009
  -1.4400000000000000E-002     5.7027507304147841E-009
  -1.4349999999999998E-002     5.8893667369903541E-009
  -1.4300000000000000E-002     6.0809616009770369E-009
  -1.4249999999999999E-002     6.2771266151167980E-009
  -1.4200000000000001E-002     6.4775084493138882E-009
  -1.4149999999999999E-002     6.6818675642152459E-009
  -1.4099999999999998E-002     6.8901249284775729E-009
  -1.4050000000000000E-002     7.1023928100804572E-009
  -1.3999999999999999E-002     7.3189752329541953E-009
  -1.3950000000000001E-002     7.5403466475161012E-009
  -1.3899999999999999E-002     7.7671114378645847E-009
  -1.3850000000000001E-002     7.9999455710434091E-009
  -1.3800000000000000E-002     8.2395392973205007E-009
  -1.3749999999999998E-002     8.4865412761390946E-009
  -1.3700000000000000E-002     8.7415208742539150E-009
  -1.3649999999999999E-002     9.0049449107025732E-009
  -1.3600000000000001E-002     9.2771720537223859E-009
  -1.3550000000000000E-002     9.5584618925409074E-009
  -1.3499999999999998E-002     9.8489872002030202E-009
  -1.3450000000000000E-002     1.0148854282273995E-008
  -1.3399999999999999E-002     1.0458114727411636E-008
  -1.3350000000000001E-002     1.0776776211709624E-008
  -1.3299999999999999E-002     1.1104807011584285E-008
  -1.3249999999999998E-002     1.1442145506126234E-008
  -1.3200000000000000E-002     1.1788705022313193E-008
  -1.3149999999999998E-002     1.2144393218788943E-008
  -1.3100000000000001E-002     1.2509129557654909E-008
  -1.3049999999999999E-002     1.2882872593018496E-008
  -1.3000000000000001E-002     1.3265645641867357E-008
  -1.2950000000000000E-002     1.3657560261882832E-008
  -1.2899999999999998E-002     1.4058835032021707E-008
  -1.2850000000000000E-002     1.4469798466744375E-008
  -1.2799999999999999E-002     1.4890893808798224E-008