  -4.0000000000000001E-002     0.0000000000000000     
  -3.9949999999999999E-002     0.0000000000000000     
  -3.9899999999999998E-002     0.0000000000000000     
  -3.9850000000000003E-002     0.0000000000000000     
  -3.9800000000000002E-002     0.0000000000000000     
  -3.9750000000000001E-002     0.0000000000000000     
  -3.9699999999999999E-002     0.0000000000000000     
  -3.9649999999999998E-002     0.0000000000000000     
  -3.9600000000000003E-002     0.0000000000000000     
  -3.9550000000000002E-002     0.0000000000000000     
  -3.9500000000000000E-002     0.0000000000000000     
  -3.9449999999999999E-002     0.0000000000000000     
  -3.9399999999999998E-002     0.0000000000000000     
  -3.9350000000000003E-002     0.0000000000000000     
  -3.9300000000000002E-002     0.0000000000000000     
  -3.9250000000000000E-002     0.0000000000000000     
  -3.9199999999999999E-002     0.0000000000000000     
  -3.9150000000000004E-002     0.0000000000000000     
  -3.9100000000000003E-002     0.0000000000000000     
  -3.9050000000000001E-002     0.0000000000000000     
  -3.9000000000000000E-002     0.0000000000000000     
  -3.8949999999999999E-002     0.0000000000000000     
  -3.8900000000000004E-002     0.0000000000000000     
  -3.8850000000000003E-002     0.0000000000000000     
  -3.8800000000000001E-002     0.0000000000000000     
  -3.8750000000000000E-002     0.0000000000000000     
  -3.8699999999999998E-002     0.0000000000000000     
  -3.8650000000000004E-002     0.0000000000000000     
  -3.8600000000000002E-002     0.0000000000000000     
  -3.8550000000000001E-002     0.0000000000000000     
  -3.8500000000000000E-002     0.0000000000000000     
  -3.8449999999999998E-002     0.0000000000000000     
  -3.8400000000000004E-002     0.0000000000000000     
  -3.8350000000000002E-002     0.0000000000000000     
  -3.8300000000000001E-002     0.0000000000000000     
  -3.8249999999999999E-002     0.0000000000000000     
  -3.8199999999999998E-002     0.0000000000000000     
  -3.8150000000000003E-002     0.0000000000000000     
  -3.8100000000000002E-002     0.0000000000000000     
  -3.8050000000000000E-002     0.0000000000000000     
  -3.7999999999999999E-002     0.0000000000000000     
  -3.7949999999999998E-002     0.0000000000000000     
  -3.7900000000000003E-002     0.0000000000000000     
  -3.7850000000000002E-002     0.0000000000000000     
  -3.7800000000000000E-002     0.0000000000000000     
  -3.7749999999999999E-002     0.0000000000000000     
  -3.7699999999999997E-002     0.0000000000000000     
  -3.7650000000000003E-002     0.0000000000000000     
  -3.7600000000000001E-002     0.0000000000000000     
  -3.7550000000000000E-002     0.0000000000000000     
  -3.7499999999999999E-002     0.0000000000000000     
  -3.7449999999999997E-002     0.0000000000000000     
  -3.7400000000000003E-002     0.0000000000000000     
  -3.7350000000000001E-002     0.0000000000000000     
  -3.7300000000000000E-002     0.0000000000000000     
  -3.7249999999999998E-002     0.0000000000000000     
  -3.7200000000000004E-002     0.0000000000000000     
  -3.7150000000000002E-002     0.0000000000000000     
  -3.7100000000000001E-002     0.0000000000000000     
  -3.7050000000000000E-002     0.0000000000000000     
  -3.6999999999999998E-002     0.0000000000000000     
  -3.6950000000000004E-002     0.0000000000000000     
  -3.6900000000000002E-002     0.0000000000000000     
  -3.6850000000000001E-002     0.0000000000000000     
  -3.6799999999999999E-002     0.0000000000000000     
  -3.6749999999999998E-002     0.0000000000000000     
  -3.6700000000000003E-002     0.0000000000000000     
  -3.6650000000000002E-002     0.0000000000000000     
  -3.6600000000000001E-002     0.0000000000000000     
  -3.6549999999999999E-002     0.0000000000000000     
  -3.6499999999999998E-002     0.0000000000000000     
  -3.6450000000000003E-002     0.0000000000000000     
  -3.6400000000000002E-002     0.0000000000000000     
  -3.6350000000000000E-002     0.0000000000000000     
  -3.6299999999999999E-002     0.0000000000000000     
  -3.6249999999999998E-002     0.0000000000000000     
  -3.6200000000000003E-002     0.0000000000000000     
  -3.6150000000000002E-002     0.0000000000000000     
  -3.6100000000000000E-002     0.0000000000000000     
  -3.6049999999999999E-002     0.0000000000000000     
  -3.6000000000000004E-002     0.0000000000000000     
  -3.5950000000000003E-002     0.0000000000000000     
  -3.5900000000000001E-002     0.0000000000000000     
  -3.5850000000000000E-002     0.0000000000000000     
  -3.5799999999999998E-002     0.0000000000000000     
  -3.5750000000000004E-002     0.0000000000000000     
  -3.5700000000000003E-002     0.0000000000000000     
  -3.5650000000000001E-002     0.0000000000000000     
  -3.5600000000000000E-002     0.0000000000000000     
  -3.5549999999999998E-002     0.0000000000000000     
  -3.5500000000000004E-002     0.0000000000000000     
  -3.5450000000000002E-002     0.0000000000000000     
  -3.5400000000000001E-002     0.0000000000000000     
  -3.5349999999999999E-002     0.0000000000000000     
  -3.5299999999999998E-002     0.0000000000000000     
  -3.5250000000000004E-002     0.0000000000000000     
  -3.5200000000000002E-002     0.0000000000000000     
  -3.5150000000000001E-002     0.0000000000000000     
  -3.5099999999999999E-002     0.0000000000000000     
  -3.5049999999999998E-002     0.0000000000000000     
  -3.5000000000000003E-002     0.0000000000000000     
  -3.4950000000000002E-002     0.0000000000000000     
  -3.4900000000000000E-002     0.0000000000000000     
  -3.4849999999999999E-002     0.0000000000000000     
  -3.4799999999999998E-002     0.0000000000000000     
  -3.4750000000000003E-002     0.0000000000000000     
  -3.4700000000000002E-002     0.0000000000000000     
  -3.4650000000000000E-002     0.0000000000000000     
  -3.4599999999999999E-002     0.0000000000000000     
  -3.4549999999999997E-002     0.0000000000000000     
  -3.4500000000000003E-002     0.0000000000000000     
  -3.4450000000000001E-002     0.0000000000000000     
  -3.4400000000000000E-002     0.0000000000000000     
  -3.4349999999999999E-002     0.0000000000000000     
  -3.4299999999999997E-002     0.0000000000000000     
  -3.4250000000000003E-002     0.0000000000000000     
  -3.4200000000000001E-002     0.0000000000000000     
  -3.4150000000000000E-002     0.0000000000000000     
  -3.4099999999999998E-002     0.0000000000000000     
  -3.4049999999999997E-002     0.0000000000000000     
  -3.4000000000000002E-002     0.0000000000000000     
  -3.3950000000000001E-002     0.0000000000000000     
  -3.3900000000000000E-002     0.0000000000000000     
  -3.3849999999999998E-002     0.0000000000000000     
  -3.3799999999999997E-002     0.0000000000000000     
  -3.3750000000000002E-002     0.0000000000000000     
  -3.3700000000000001E-002     0.0000000000000000     
  -3.3649999999999999E-002     0.0000000000000000     
  -3.3599999999999998E-002     0.0000000000000000     
  -3.3550000000000003E-002     0.0000000000000000     
  -3.3500000000000002E-002     0.0000000000000000     
  -3.3450000000000001E-002     0.0000000000000000     
  -3.3399999999999999E-002     0.0000000000000000     
  -3.3349999999999998E-002     0.0000000000000000     
  -3.3300000000000003E-002     0.0000000000000000     
  -3.3250000000000002E-002     0.0000000000000000     
  -3.3200000000000000E-002     0.0000000000000000     
  -3.3149999999999999E-002     0.0000000000000000     
  -3.3099999999999997E-002     0.0000000000000000     
  -3.3050000000000003E-002     0.0000000000000000     
  -3.3000000000000002E-002     0.0000000000000000     
  -3.2950000000000000E-002     0.0000000000000000     
  -3.2899999999999999E-002     0.0000000000000000     
  -3.2850000000000004E-002     0.0000000000000000     
  -3.2800000000000003E-002     0.0000000000000000     
  -3.2750000000000001E-002     0.0000000000000000     
  -3.2700000000000000E-002     0.0000000000000000     
  -3.2649999999999998E-002     0.0000000000000000     
  -3.2600000000000004E-002     0.0000000000000000     
  -3.2550000000000003E-002     0.0000000000000000     
  -3.2500000000000001E-002     0.0000000000000000     
  -3.2450000000000000E-002     0.0000000000000000     
  -3.2399999999999998E-002     0.0000000000000000     
  -3.2350000000000004E-002     0.0000000000000000     
  -3.2300000000000002E-002     0.0000000000000000     
  -3.2250000000000001E-002     0.0000000000000000     
  -3.2199999999999999E-002     0.0000000000000000     
  -3.2149999999999998E-002     0.0000000000000000     
  -3.2100000000000004E-002     0.0000000000000000     
  -3.2050000000000002E-002     0.0000000000000000     
  -3.2000000000000001E-002     0.0000000000000000     
  -3.1949999999999999E-002    -3.2690526580276793E-040
  -3.1899999999999998E-002    -6.3301744081905338E-040
  -3.1850000000000003E-002    -3.6337969054936471E-040
  -3.1800000000000002E-002     7.3913916593289115E-040
  -3.1750000000000000E-002     2.5031716175150941E-039
  -3.1699999999999999E-002     4.2054328160403798E-039
  -3.1649999999999998E-002     4.4465832301541583E-039
  -3.1600000000000003E-002     1.2207680523450623E-039
  -3.1550000000000002E-002    -6.0782115673571959E-039
  -3.1500000000000000E-002    -1.5912441557943396E-038
  -3.1449999999999999E-002    -1.3878688560891038E-038
  -3.1399999999999997E-002    -9.5103677723238519E-040
  -3.1350000000000003E-002     9.3753052890668482E-039
  -3.1300000000000001E-002     2.3549913728303549E-038
  -3.1250000000000000E-002     3.9714318754862473E-039
  -3.1199999999999999E-002    -4.1041099335028591E-038
  -3.1150000000000001E-002    -8.7578962461032645E-038
  -3.1100000000000003E-002    -9.3454290100745786E-038
  -3.1050000000000001E-002    -3.1570896072239532E-038
  -3.1000000000000000E-002     9.9773378070031661E-038
  -3.0949999999999998E-002     2.6517246340399713E-037
  -3.0900000000000000E-002     3.8956040112039141E-037
  -3.0850000000000002E-002     4.2375417278769164E-037
  -3.0800000000000001E-002     2.9369945734851492E-037
  -3.0750000000000000E-002    -2.9338217725592345E-038
  -3.0699999999999998E-002    -5.2395471216810922E-037
  -3.0650000000000000E-002    -1.0941669467774871E-036
  -3.0600000000000002E-002    -1.5855823287209827E-036
  -3.0550000000000001E-002    -1.7833452227445732E-036
  -3.0499999999999999E-002    -1.4520138944360860E-036
  -3.0449999999999998E-002    -4.0447890129761203E-037
  -3.0400000000000000E-002     1.3993914156099380E-036
  -3.0350000000000002E-002     3.7509262062020282E-036
  -3.0300000000000001E-002     6.1264028149229252E-036
  -3.0249999999999999E-002     7.7056095782371114E-036
  -3.0200000000000001E-002     7.5094453831943761E-036
  -3.0150000000000000E-002     4.6624441126870331E-036
  -3.0100000000000002E-002    -1.2625005807046880E-036
  -3.0050000000000000E-002    -9.8938516404872290E-036
  -2.9999999999999999E-002    -1.9811927654490525E-035
  -2.9950000000000001E-002    -2.8510552098012267E-035
  -2.9899999999999999E-002    -3.2657850872491819E-035
  -2.9850000000000002E-002    -2.8702852742178958E-035
  -2.9800000000000000E-002    -1.3805409597130338E-035
  -2.9749999999999999E-002     1.3008262719473381E-035
  -2.9700000000000001E-002     4.9661870837043936E-035
  -2.9650000000000003E-002     9.0112181076706470E-035
  -2.9600000000000001E-002     1.2408127550416149E-034
  -2.9550000000000000E-002     1.3785950829341605E-034
  -2.9499999999999998E-002     1.1654488379511371E-034
  -2.9450000000000000E-002     4.7879415119224606E-035
  -2.9400000000000003E-002    -7.2550629401153707E-035
  -2.9350000000000001E-002    -2.3556125048155478E-034
  -2.9300000000000000E-002    -4.1356001020545165E-034
  -2.9249999999999998E-002    -5.5879359936362601E-034
  -2.9200000000000000E-002    -6.0706475542945800E-034
  -2.9150000000000002E-002    -4.8898648207909120E-034
  -2.9100000000000001E-002    -1.4956521709905716E-034
  -2.9049999999999999E-002     4.2543990299998186E-034
  -2.8999999999999998E-002     1.1812247458704621E-033
  -2.8950000000000000E-002     1.9722160970254513E-033
  -2.8900000000000002E-002     2.5583630209307129E-033
  -2.8850000000000001E-002     2.6315928982339705E-033
  -2.8799999999999999E-002     1.8812845979416556E-033
  -2.8749999999999998E-002     9.8989306791498414E-035
  -2.8700000000000000E-002    -2.6914965460243217E-033
  -2.8650000000000002E-002    -6.1103263041245045E-033
  -2.8600000000000000E-002    -9.3523188838420236E-033
  -2.8549999999999999E-002    -1.1228854622459206E-032
  -2.8500000000000001E-002    -1.0369446418144253E-032
  -2.8450000000000000E-002    -5.5999163593955217E-033
  -2.8400000000000002E-002     3.5419371530662655E-033
  -2.8350000000000000E-002     1.6265154841242128E-032
  -2.8299999999999999E-002     3.0141089361412727E-032
  -2.8250000000000001E-002     4.1096748081063218E-032
  -2.8200000000000003E-002     4.3983484720093637E-032
  -2.8150000000000001E-002     3.3808738422901720E-032
  -2.8100000000000000E-002     7.5217724710422446E-033
  -2.8049999999999999E-002    -3.4007377271013065E-032
  -2.8000000000000001E-002    -8.4415318796909629E-032
  -2.7950000000000003E-002    -1.3141059008418212E-031
  -2.7900000000000001E-002    -1.5813917634332792E-031
  -2.7850000000000000E-002    -1.4668102260034110E-031
  -2.7799999999999998E-002    -8.3424925022970916E-032
  -2.7750000000000000E-002     3.4662263280922437E-032
  -2.7700000000000002E-002     1.9454611532554295E-031
  -2.7650000000000001E-002     3.6448717456848631E-031
  -2.7600000000000000E-002     4.9620777163786261E-031
  -2.7549999999999998E-002     5.3303652677138300E-031
  -2.7500000000000000E-002     4.2379925931287421E-031
  -2.7450000000000002E-002     1.4042143348579144E-031
  -2.7400000000000001E-002    -3.0458874940945714E-031
  -2.7349999999999999E-002    -8.4588503490783617E-031
  -2.7299999999999998E-002    -1.3636353781523054E-030
  -2.7250000000000000E-002    -1.6967759366117751E-030
  -2.7200000000000002E-002    -1.6729136933881271E-030
  -2.7150000000000001E-002    -1.1528186357729940E-030
  -2.7099999999999999E-002    -8.2884957824870699E-032
  -2.7049999999999998E-002     1.4555687682787536E-030
  -2.7000000000000000E-002     3.2147132219335629E-030
  -2.6950000000000002E-002     4.7820068051333693E-030
  -2.6900000000000000E-002     5.6286266937439247E-030
  -2.6849999999999999E-002     5.2108203929497010E-030
  -2.6800000000000001E-002     3.1185851141879696E-030
  -2.6749999999999999E-002    -7.4984194569844690E-031
  -2.6700000000000002E-002    -6.0265840089492928E-030
  -2.6650000000000000E-002    -1.1778978271730355E-029
  -2.6599999999999999E-002    -1.6538827640228790E-029
  -2.6550000000000001E-002    -1.8503436364012884E-029
  -2.6500000000000003E-002    -1.5924771655591255E-029
  -2.6450000000000001E-002    -7.6520404602063020E-030
  -2.6400000000000000E-002     6.2710036461942522E-030
  -2.6349999999999998E-002     2.4114052455226995E-029
  -2.6300000000000000E-002     4.2270710028450511E-029
  -2.6250000000000002E-002     5.5558411991517272E-029
  -2.6200000000000001E-002     5.8119800577114275E-029
  -2.6150000000000000E-002     4.4895475893356021E-029
  -2.6099999999999998E-002     1.3447601411979883E-029
  -2.6050000000000000E-002    -3.4282034141152343E-029
  -2.6000000000000002E-002    -9.0837687652359025E-029
  -2.5950000000000001E-002    -1.4331841876014263E-028
  -2.5899999999999999E-002    -1.7508070812947029E-028
  -2.5849999999999998E-002    -1.6917272942310213E-028
  -2.5800000000000000E-002    -1.1311861791359144E-028
  -2.5750000000000002E-002    -4.1411683798682627E-030
  -2.5700000000000001E-002     1.4653221221432829E-028
  -2.5649999999999999E-002     3.1183074554807491E-028
  -2.5599999999999998E-002     4.5083844128307190E-028
  -2.5550000000000000E-002     5.1537165472022501E-028
  -2.5500000000000002E-002     4.6084785241314139E-028
  -2.5450000000000000E-002     2.5987682748429855E-028
  -2.5399999999999999E-002    -8.4247905382444526E-029
  -2.5349999999999998E-002    -5.2787018499000582E-028
  -2.5300000000000000E-002    -9.8499869363235585E-028
  -2.5250000000000002E-002    -1.3361404701909408E-027
  -2.5200000000000000E-002    -1.4491736453945666E-027
  -2.5149999999999999E-002    -1.2106973829343752E-027
  -2.5100000000000001E-002    -5.6299532399146645E-028
  -2.5049999999999999E-002     4.6138294834249617E-028
  -2.5000000000000001E-002     1.7174768351995931E-027
  -2.4950000000000000E-002     2.9483822962253640E-027
  -2.4899999999999999E-002     3.8159312827732082E-027
  -2.4850000000000001E-002     3.9636999890203537E-027
  -2.4800000000000003E-002     3.1064486792279555E-027
  -2.4750000000000001E-002     1.1309149794044327E-027
  -2.4700000000000000E-002    -1.8154456672442242E-027
  -2.4649999999999998E-002    -5.2759462688670290E-027
  -2.4600000000000000E-002    -8.5032486968822296E-027
  -2.4550000000000002E-002    -1.0562642964076768E-026
  -2.4500000000000001E-002    -1.0520337633402781E-026
  -2.4450000000000000E-002    -7.6938154647447097E-027
  -2.4399999999999998E-002    -1.9166146772812470E-027
  -2.4350000000000000E-002     6.2496119130882925E-027
  -2.4299999999999999E-002     1.5430220667359613E-026
  -2.4250000000000001E-002     2.3543251021818939E-026
  -2.4199999999999999E-002     2.8127127083246767E-026
  -2.4150000000000001E-002     2.6871302115692326E-026
  -2.4100000000000000E-002     1.8270378262421378E-026
  -2.4049999999999998E-002     2.2652430759177773E-027
  -2.4000000000000000E-002    -1.9301987212087040E-026
  -2.3949999999999999E-002    -4.2593413174383416E-026
  -2.3900000000000001E-002    -6.2170666198701787E-026
  -2.3850000000000000E-002    -7.1918358263673336E-026
  -2.3800000000000002E-002    -6.6408135794021142E-026
  -2.3750000000000000E-002    -4.2478818668090987E-026
  -2.3699999999999999E-002    -6.9180293245979633E-028
  -2.3650000000000001E-002     5.3739423249527455E-026
  -2.3599999999999999E-002     1.1092322016441948E-025
  -2.3550000000000001E-002     1.5742145669964893E-025
  -2.3500000000000000E-002     1.7857565648945930E-025
  -2.3449999999999999E-002     1.6178290056415460E-025
  -2.3400000000000001E-002     1.0017956620382855E-025
  -2.3349999999999999E-002    -4.0511611358949097E-027
  -2.3300000000000001E-002    -1.3765393067366445E-025
  -2.3250000000000000E-002    -2.7640137479298543E-025
  -2.3199999999999998E-002    -3.8788497969521837E-025
  -2.3150000000000000E-002    -4.3707433218162835E-025
  -2.3099999999999999E-002    -3.9408171266842933E-025
  -2.3050000000000001E-002    -2.4288250327759960E-025
  -2.3000000000000000E-002     1.0843374478490775E-026
  -2.2950000000000002E-002     3.3489514062663218E-025
  -2.2900000000000000E-002     6.7079516154452281E-025
  -2.2849999999999999E-002     9.4048945744039807E-025
  -2.2800000000000001E-002     1.0597332602821215E-024
  -2.2749999999999999E-002     9.5682198972883215E-025
  -2.2700000000000001E-002     5.9362285806770721E-025
  -2.2650000000000000E-002    -1.5594707575885576E-026
  -2.2599999999999999E-002    -7.9279306975663924E-025
  -2.2550000000000001E-002    -1.5972046844005708E-024
  -2.2499999999999999E-002    -2.2420494056108970E-024
  -2.2450000000000001E-002    -2.5272372479755975E-024
  -2.2400000000000000E-002    -2.2844592694328079E-024
  -2.2349999999999998E-002    -1.4269692749502599E-024
  -2.2300000000000000E-002     6.9541694748450845E-027
  -2.2249999999999999E-002     1.8293346724202617E-024
  -2.2200000000000001E-002     3.7077825501382474E-024
  -2.2150000000000000E-002     5.2074643590035364E-024
  -2.2100000000000002E-002     5.8691534819675340E-024
  -2.2050000000000000E-002     5.3136722183650823E-024
  -2.1999999999999999E-002     3.3540132986905503E-024
  -2.1950000000000001E-002     8.9794762061470002E-026
  -2.1899999999999999E-002    -4.0433720221213555E-024
  -2.1850000000000001E-002    -8.2927785702357531E-024
  -2.1800000000000000E-002    -1.1688078876648985E-023
  -2.1749999999999999E-002    -1.3217078665613380E-023
  -2.1700000000000001E-002    -1.2054290114809142E-023
  -2.1649999999999999E-002    -7.8005363220898495E-024
  -2.1600000000000001E-002    -6.7955893697229094E-025
  -2.1550000000000000E-002     8.3645861999196715E-024
  -2.1499999999999998E-002     1.7715065816337549E-023
  -2.1450000000000000E-002     2.5296803625203454E-023
  -2.1399999999999999E-002     2.8946324066994047E-023
  -2.1350000000000001E-002     2.6886798879166676E-023
  -2.1299999999999999E-002     1.8223181960932036E-023
  -2.1250000000000002E-002     3.3493120733688553E-024
  -2.1200000000000000E-002    -1.5844554821464266E-023
  -2.1149999999999999E-002    -3.6054476331726358E-023
  -2.1100000000000001E-002    -5.2981125582806332E-023
  -2.1049999999999999E-002    -6.2064165510823146E-023
  -2.1000000000000001E-002    -5.9439152865500077E-023
  -2.0950000000000000E-002    -4.2954669707360705E-023
  -2.0899999999999998E-002    -1.3039106988604866E-023
  -2.0850000000000000E-002     2.6806222215480443E-023
  -2.0799999999999999E-002     7.0078208880265356E-023
  -2.0750000000000001E-002     1.0801759535762949E-022
  -2.0700000000000000E-002     1.3101767977739347E-022
  -2.0649999999999998E-002     1.3053871184142094E-022
  -2.0600000000000000E-002     1.0122612114261503E-022
  -2.0549999999999999E-002     4.2817905753708688E-023
  -2.0500000000000001E-002    -3.8622656094691402E-023
  -2.0449999999999999E-002    -1.3057357450740494E-022
  -2.0400000000000001E-002    -2.1530425198981178E-022
  -2.0350000000000000E-002    -2.7255773182469582E-022
  -2.0299999999999999E-002    -2.8341221354213899E-022
  -2.0250000000000001E-002    -2.3474860891659972E-022
  -2.0199999999999999E-002    -1.2348216058089593E-022
  -2.0150000000000001E-002     4.0433466951501675E-023
  -2.0100000000000000E-002     2.3318312007964809E-022
  -2.0049999999999998E-002     4.1914324419876258E-022
  -2.0000000000000000E-002     5.5602672575624267E-022
  -1.9949999999999999E-002     6.0269175778528511E-022
  -1.9900000000000001E-002     5.2848872045345356E-022
  -1.9850000000000000E-002     3.2240778831555333E-022
  -1.9799999999999998E-002    -6.5010284899293101E-026
  -1.9750000000000000E-002    -3.9443754572610150E-022
  -1.9699999999999999E-002    -7.9058488905119424E-022
  -1.9650000000000001E-002    -1.1025576768820544E-021
  -1.9599999999999999E-002    -1.2440460071635412E-021
  -1.9550000000000001E-002    -1.1472744928046611E-021
  -1.9500000000000000E-002    -7.8185224553848135E-022
  -1.9449999999999999E-002    -1.6937622212863902E-022
  -1.9400000000000001E-002     6.1033814734411563E-022
  -1.9349999999999999E-002     1.4245053036862191E-021
  -1.9300000000000001E-002     2.1052758232269022E-021
  -1.9250000000000000E-002     2.4789139459608079E-021
  -1.9199999999999998E-002     2.4021047565236134E-021
  -1.9150000000000000E-002     1.7988848539544412E-021
  -1.9099999999999999E-002     6.9032465065170919E-022
  -1.9050000000000001E-002    -7.9081423646212353E-022
  -1.9000000000000000E-002    -2.4064266091305258E-021
  -1.8949999999999998E-002    -3.8429899387515173E-021
  -1.8900000000000000E-002    -4.7630997846446376E-021
  -1.8849999999999999E-002    -4.8717345377468252E-021
  -1.8800000000000001E-002    -3.9860654923772486E-021
  -1.8749999999999999E-002    -2.0949217984842898E-021
  -1.8700000000000001E-002     6.0627699063356890E-022
  -1.8650000000000000E-002     3.7167557075501840E-021
  -1.8599999999999998E-002     6.6740749968015597E-021
  -1.8550000000000001E-002     8.8390615564170481E-021
  -1.8499999999999999E-002     9.6122190990705584E-021
  -1.8450000000000001E-002     8.5638060800065264E-021
  -1.8400000000000000E-002     5.5538049641065936E-021
  -1.8349999999999998E-002     8.1574482837040040E-022
  -1.8300000000000000E-002    -5.0192523145950302E-021
  -1.8249999999999999E-002    -1.0974314787083658E-020
  -1.8200000000000001E-002    -1.5858550620928422E-020
  -1.8149999999999999E-002    -1.8467477880626918E-020
  -1.8100000000000002E-002    -1.7825072611757685E-020
  -1.8050000000000000E-002    -1.3426662763229496E-020
  -1.7999999999999999E-002    -5.4336902897619894E-021
  -1.7950000000000001E-002     5.2287123903957444E-021
  -1.7899999999999999E-002     1.6910494835576830E-020
  -1.7850000000000001E-002     2.7431084203100921E-020
  -1.7800000000000000E-002     3.4420748000681307E-020
  -1.7749999999999998E-002     3.5768215939778451E-020
  -1.7700000000000000E-002     3.0103668893307912E-020
  -1.7649999999999999E-002     1.7224403288064218E-020
  -1.7600000000000001E-002    -1.6362559533654350E-021
  -1.7550000000000000E-002    -2.3783643068892217E-020
  -1.7499999999999998E-002    -4.5333256140850888E-020
  -1.7450000000000000E-002    -6.1780634632533083E-020
  -1.7399999999999999E-002    -6.8808895493041882E-020
  -1.7350000000000001E-002    -6.3211523860823060E-020
  -1.7299999999999999E-002    -4.3760058714567891E-020
  -1.7250000000000001E-002    -1.1825818438980427E-020
  -1.7200000000000000E-002     2.8419694033107007E-020
  -1.7149999999999999E-002     7.0344911839866480E-020
  -1.7100000000000001E-002     1.0576683942304257E-019
  -1.7049999999999999E-002     1.2634236346911651E-019
  -1.7000000000000001E-002     1.2524054234532152E-019
  -1.6950000000000000E-002     9.8800714064820309E-020
  -1.6899999999999998E-002     4.7833051705571451E-020
  -1.6850000000000000E-002    -2.1766116746349656E-020
  -1.6799999999999999E-002    -9.9325928744880759E-020
  -1.6750000000000001E-002    -1.7073163060714546E-019
  -1.6700000000000000E-002    -2.2067343296999492E-019
  -1.6649999999999998E-002    -2.3551042877659674E-019
  -1.6600000000000000E-002    -2.0627380511171220E-019
  -1.6549999999999999E-002    -1.3123073309948391E-019
  -1.6500000000000001E-002    -1.7427804429283119E-020
  -1.6449999999999999E-002     1.1925464672338772E-019
  -1.6400000000000001E-002     2.5578355836071515E-019
  -1.6350000000000000E-002     3.6533185680021137E-019
  -1.6299999999999999E-002     4.2191956275381795E-019
  -1.6250000000000001E-002     4.0563329963261244E-019
  -1.6199999999999999E-002     3.0749783290274948E-019
  -1.6150000000000001E-002     1.3300196167938709E-019
  -1.6100000000000000E-002    -9.6615609059276037E-020
  -1.6049999999999998E-002    -3.4592135438858506E-019
  -1.6000000000000000E-002    -5.6983389562674540E-019
  -1.5949999999999999E-002    -7.2076549739526212E-019
  -1.5900000000000001E-002    -7.5740373239849445E-019
  -1.5850000000000000E-002    -6.5371266080353093E-019
  -1.5799999999999998E-002    -4.0646369680279671E-019
  -1.5750000000000000E-002    -3.9612291299004827E-020
  -1.5699999999999999E-002     3.9583937923196690E-019
  -1.5650000000000001E-002     8.2721207834435766E-019
  -1.5599999999999999E-002     1.1705890017487811E-018
  -1.5550000000000001E-002     1.3451590279859253E-018
  -1.5500000000000000E-002     1.2893486366874262E-018
  -1.5449999999999998E-002     9.7592042502212916E-019
  -1.5400000000000000E-002     4.2293691878093513E-019
  -1.5349999999999999E-002    -3.0223935154868890E-019
  -1.5300000000000001E-002    -1.0878604995940893E-018
  -1.5250000000000000E-002    -1.7921622133074484E-018
  -1.5199999999999998E-002    -2.2659627611309493E-018
  -1.5150000000000000E-002    -2.3804359945810504E-018
  -1.5099999999999999E-002    -2.0554720180267738E-018
  -1.5050000000000001E-002    -1.2831462554696899E-018
  -1.4999999999999999E-002    -1.4088520174294332E-019
  -1.4949999999999998E-002     1.2099348346106438E-018
  -1.4900000000000000E-002     2.5420284828875239E-018
  -1.4849999999999999E-002     3.5959800163192184E-018
  -1.4800000000000001E-002     4.1255985106261157E-018
  -1.4749999999999999E-002     3.9477388902337741E-018
  -1.4700000000000001E-002     2.9874977372906000E-018
  -1.4650000000000000E-002     1.3092176748517421E-018
  -1.4599999999999998E-002    -8.7490482979237870E-019
  -1.4550000000000000E-002    -3.2236144975981329E-018
  -1.4499999999999999E-002    -5.3131597360108457E-018
  -1.4450000000000001E-002    -6.7065974161454769E-018
  -1.4400000000000000E-002    -7.0356762104169796E-018
  -1.4349999999999998E-002    -6.0812492536443485E-018
  -1.4300000000000000E-002    -3.8365391287023352E-018
  -1.4249999999999999E-002    -5.3871764553282749E-019
  -1.4200000000000001E-002     3.3415879488356886E-018
  -1.4149999999999999E-002     7.1565980010935110E-018
  -1.4099999999999998E-002     1.0179014961286995E-017
  -1.4050000000000000E-002     1.1728057443289153E-017
  -1.3999999999999999E-002     1.1303954435989829E-017
  -1.3950000000000001E-002     8.7067359480731240E-018
  -1.3899999999999999E-002     4.1150028735308783E-018
  -1.3850000000000001E-002    -1.8953585230044060E-018
  -1.3800000000000000E-002    -8.4039699302089289E-018
  -1.3749999999999998E-002    -1.4269962299036460E-017
  -1.3700000000000000E-002    -1.8313708424099262E-017
  -1.3649999999999999E-002    -1.9530372437410285E-017
  -1.3600000000000001E-002    -1.7300126360291316E-017
  -1.3550000000000000E-002    -1.1555810393033626E-017
  -1.3499999999999998E-002    -2.8713803865751195E-018
  -1.3450000000000000E-002     7.5559385613244063E-018
  -1.3399999999999999E-002     1.8041013975726313E-017
  -1.3350000000000001E-002     2.6654900491198397E-017
  -1.3299999999999999E-002     3.1547657161168420E-017
  -1.3249999999999998E-002     3.1301193948620254E-017
  -1.3200000000000000E-002     2.5251174991225532E-017
  -1.3149999999999998E-002     1.3714052308249345E-017
  -1.3100000000000001E-002    -1.9360432991378249E-018
  -1.3049999999999999E-002    -1.9375834751493134E-017
  -1.3000000000000001E-002    -3.5632604913114698E-017
  -1.2950000000000000E-002    -4.7545930366065723E-017
  -1.2899999999999998E-002    -5.2327997466740609E-017
  -1.2850000000000000E-002    -4.8131576898431220E-017
  -1.2799999999999999E-002    -3.4520481161965302E-017