  -4.0000000000000001E-002     0.0000000000000000     
  -3.9949999999999999E-002     0.0000000000000000     
  -3.9899999999999998E-002     0.0000000000000000     
  -3.9850000000000003E-002     0.0000000000000000     
  -3.9800000000000002E-002     0.0000000000000000     
  -3.9750000000000001E-002     0.0000000000000000     
  -3.9699999999999999E-002     0.0000000000000000     
  -3.9649999999999998E-002     0.0000000000000000     
  -3.9600000000000003E-002     0.0000000000000000     
  -3.9550000000000002E-002     0.0000000000000000     
  -3.9500000000000000E-002     0.0000000000000000     
  -3.9449999999999999E-002     0.0000000000000000     
  -3.9399999999999998E-002     0.0000000000000000     
  -3.9350000000000003E-002     0.0000000000000000     
  -3.9300000000000002E-002     0.0000000000000000     
  -3.9250000000000000E-002     0.0000000000000000     
  -3.9199999999999999E-002     0.0000000000000000     
  -3.9150000000000004E-002     0.0000000000000000     
  -3.9100000000000003E-002     0.0000000000000000     
  -3.9050000000000001E-002     0.0000000000000000     
  -3.9000000000000000E-002     0.0000000000000000     
  -3.8949999999999999E-002     0.0000000000000000     
  -3.8900000000000004E-002     0.0000000000000000     
  -3.8850000000000003E-002     0.0000000000000000     
  -3.8800000000000001E-002     0.0000000000000000     
  -3.8750000000000000E-002     0.0000000000000000     
  -3.8699999999999998E-002     0.0000000000000000     
  -3.8650000000000004E-002     0.0000000000000000     
  -3.8600000000000002E-002     0.0000000000000000     
  -3.8550000000000001E-002     0.0000000000000000     
  -3.8500000000000000E-002     0.0000000000000000     
  -3.8449999999999998E-002     0.0000000000000000     
  -3.8400000000000004E-002     0.0000000000000000     
  -3.8350000000000002E-002     0.0000000000000000     
  -3.8300000000000001E-002     0.0000000000000000     
  -3.8249999999999999E-002     0.0000000000000000     
  -3.8199999999999998E-002     1.3679483441708919E-039
  -3.8150000000000003E-002     4.0549690172206201E-039
  -3.8100000000000002E-002     8.3226538046232453E-039
  -3.8050000000000000E-002     1.2738979605909636E-038
  -3.7999999999999999E-002     8.3749061008830225E-039
  -3.7949999999999998E-002    -1.8549087107251729E-038
  -3.7900000000000003E-002    -1.0821527709435275E-037
  -3.7850000000000002E-002    -3.1676212220964024E-037
  -3.7800000000000000E-002    -7.1001321168746811E-037
  -3.7749999999999999E-002    -1.3176550115019976E-036
  -3.7699999999999997E-002    -1.8775264425792963E-036
  -3.7650000000000003E-002    -1.4498567459186590E-036
  -3.7600000000000001E-002     2.1412587209964741E-036
  -3.7550000000000000E-002     1.2608602542864400E-035
  -3.7499999999999999E-002     3.4217203405950810E-035
  -3.7449999999999997E-002     6.7756724825084075E-035
  -3.7400000000000003E-002     1.0156661777824840E-034
  -3.7350000000000001E-002     9.7844613707321275E-035
  -3.7300000000000000E-002    -1.9920451584827588E-035
  -3.7249999999999998E-002    -3.6204477749891041E-034
  -3.7200000000000004E-002    -1.0229344834407332E-033
  -3.7150000000000002E-002    -1.9575912482955743E-033
  -3.7100000000000001E-002    -2.7806646955960604E-033
  -3.7050000000000000E-002    -2.5535375637460658E-033
  -3.6999999999999998E-002     2.6312754108324432E-034
  -3.6950000000000004E-002     7.4024062202131425E-033
  -3.6900000000000002E-002     1.9631297995720522E-032
  -3.6850000000000001E-002     3.4775019280739105E-032
  -3.6799999999999999E-002     4.5449560411067516E-032
  -3.6749999999999998E-002     3.7902664131977356E-032
  -3.6700000000000003E-002    -5.8455675262492482E-033
  -3.6650000000000002E-002    -1.0037731671118120E-031
  -3.6600000000000001E-002    -2.4321521905694405E-031
  -3.6549999999999999E-002    -3.9824289766036577E-031
  -3.6499999999999998E-002    -4.8430738943795865E-031
  -3.6450000000000003E-002    -3.8105760424183584E-031
  -3.6400000000000002E-002     3.6604295518519455E-032
  -3.6350000000000000E-002     8.3263363114621177E-031
  -3.6299999999999999E-002     1.9264065882432846E-030
  -3.6249999999999998E-002     3.0253760429608499E-030
  -3.6200000000000003E-002     3.6196215546727291E-030
  -3.6150000000000002E-002     3.0764268803836959E-030
  -3.6100000000000000E-002     8.3954946244456618E-031
  -3.6049999999999999E-002    -3.3128765528821146E-030
  -3.6000000000000004E-002    -9.0405057251971746E-030
  -3.5950000000000003E-002    -1.5333826956876812E-029
  -3.5900000000000001E-002    -2.0563535673075516E-029
  -3.5850000000000000E-002    -2.2631943963095126E-029
  -3.5799999999999998E-002    -1.9118914754457999E-029
  -3.5750000000000004E-002    -7.3860218902438224E-030
  -3.5700000000000003E-002     1.5167580768074642E-029
  -3.5650000000000001E-002     5.0218337698407660E-029
  -3.5600000000000000E-002     9.6446153178996357E-029
  -3.5549999999999998E-002     1.4619377920284358E-028
  -3.5500000000000004E-002     1.8195280924486744E-028
  -3.5450000000000002E-002     1.7533887372909632E-028
  -3.5400000000000001E-002     9.2215858845834078E-029
  -3.5349999999999999E-002    -9.3315878933332694E-029
  -3.5299999999999998E-002    -3.7726405034898614E-028
  -3.5250000000000004E-002    -7.0408533266660841E-028
  -3.5200000000000002E-002    -9.5900465668234097E-028
  -3.5150000000000001E-002    -9.8973478807606220E-028
  -3.5099999999999999E-002    -6.6477907093629333E-028
  -3.5049999999999998E-002     4.3791961833490430E-029
  -3.5000000000000003E-002     9.8998484278999201E-028
  -3.4950000000000002E-002     1.8496536513876316E-027
  -3.4900000000000000E-002     2.2275441730720409E-027
  -3.4849999999999999E-002     1.8750983489532141E-027
  -3.4799999999999998E-002     9.4170796723378858E-028
  -3.4750000000000003E-002     1.0572068696497046E-028
  -3.4700000000000002E-002     4.0802876373620860E-028
  -3.4650000000000000E-002     2.6921761543758987E-027
  -3.4599999999999999E-002     6.7561500295770623E-027
  -3.4549999999999997E-002     1.0588678780057544E-026
  -3.4500000000000003E-002     1.0265670484437233E-026
  -3.4450000000000001E-002     1.0490920519997120E-027
  -3.4400000000000000E-002    -2.0165296423970080E-026
  -3.4349999999999999E-002    -5.1638539005055902E-026
  -3.4299999999999997E-002    -8.4229174059672984E-026
  -3.4250000000000003E-002    -1.0136872127704247E-025
  -3.4200000000000001E-002    -8.3102978318610245E-026
  -3.4150000000000000E-002    -1.4308796570065590E-026
  -3.4099999999999998E-002     1.0503463986838194E-025
  -3.4049999999999997E-002     2.5182207353650561E-025
  -3.4000000000000002E-002     3.7922994988948951E-025
  -3.3950000000000001E-002     4.2721536132677293E-025
  -3.3900000000000000E-002     3.4358785416060020E-025
  -3.3849999999999998E-002     1.0944130203344800E-025
  -3.3799999999999997E-002    -2.4196911298767194E-025
  -3.3750000000000002E-002    -6.2450865992548143E-025
  -3.3700000000000001E-002    -9.2282663233658781E-025
  -3.3649999999999999E-002    -1.0357334486955327E-024
  -3.3599999999999998E-002    -9.2215099446839667E-025
  -3.3550000000000003E-002    -6.2496348354967530E-025
  -3.3500000000000002E-002    -2.5191526076377272E-025
  -3.3450000000000001E-002     8.9534845424127611E-026
  -3.3399999999999999E-002     3.7922105853572351E-025
  -3.3349999999999998E-002     7.4406229550802204E-025
  -3.3300000000000003E-002     1.4348358386366735E-024
  -3.3250000000000002E-002     2.6879336366726054E-024
  -3.3200000000000000E-002     4.4948779065752883E-024
  -3.3149999999999999E-002     6.3712268986576521E-024
  -3.3099999999999997E-002     7.2671873757686187E-024
  -3.3050000000000003E-002     5.7582397564454678E-024
  -3.3000000000000002E-002     5.7246806399798026E-025
  -3.2950000000000000E-002    -8.6393339172995908E-024
  -3.2899999999999999E-002    -2.0556341249445981E-023
  -3.2850000000000004E-002    -3.1843165816121837E-023
  -3.2800000000000003E-002    -3.7565237182551846E-023
  -3.2750000000000001E-002    -3.2518293198836771E-023
  -3.2700000000000000E-002    -1.3272047020774686E-023
  -3.2649999999999998E-002     1.9666261131028928E-023
  -3.2600000000000004E-002     6.0431030475417030E-023
  -3.2550000000000003E-002     9.7963491891053574E-023
  -3.2500000000000001E-002     1.1822156137630599E-022
  -3.2450000000000000E-002     1.0820506151596354E-022
  -3.2399999999999998E-002     6.0790927768938154E-023
  -3.2350000000000004E-002    -2.1186849333150033E-023
  -3.2300000000000002E-002    -1.2323871205453789E-022
  -3.2250000000000001E-002    -2.2096985875036453E-022
  -3.2199999999999999E-002    -2.8528573053750658E-022
  -3.2149999999999998E-002    -2.8985385155898564E-022
  -3.2100000000000004E-002    -2.1874885614034449E-022
  -3.2050000000000002E-002    -7.2048491390139579E-023
  -3.2000000000000001E-002     1.3217978307919778E-022
  -3.1949999999999999E-002     3.5982690003712956E-022
  -3.1899999999999998E-002     5.6571200346587545E-022
  -3.1850000000000003E-002     7.0002846447773247E-022
  -3.1800000000000002E-002     7.1504337239616527E-022
  -3.1750000000000000E-002     5.7192356926881164E-022
  -3.1699999999999999E-002     2.4871285462671987E-022
  -3.1649999999999998E-002    -2.4928723122364760E-022
  -3.1600000000000003E-002    -8.7691434412966755E-022
  -3.1550000000000002E-002    -1.5375434766168912E-021
  -3.1500000000000000E-002    -2.0792126363449669E-021
  -3.1449999999999999E-002    -2.3071870433192210E-021
  -3.1399999999999997E-002    -2.0200065929062619E-021
  -3.1350000000000003E-002    -1.0695945541492980E-021
  -3.1300000000000001E-002     5.6444873883416157E-022
  -3.1250000000000000E-002     2.7075751751522727E-021
  -3.1199999999999999E-002     4.9586402221520534E-021
  -3.1150000000000001E-002     6.7211015783457508E-021
  -3.1100000000000003E-002     7.3114438561947920E-021
  -3.1050000000000001E-002     6.1361592842116052E-021
  -3.1000000000000000E-002     2.9013136192928233E-021
  -3.0949999999999998E-002    -2.2035274589877956E-021
  -3.0900000000000000E-002    -8.4127591002953830E-021
  -3.0850000000000002E-002    -1.4435763535616449E-020
  -3.0800000000000001E-002    -1.8669626726845284E-020
  -3.0750000000000000E-002    -1.9545377963937760E-020
  -3.0699999999999998E-002    -1.5935318493665433E-020
  -3.0650000000000000E-002    -7.5222611735675894E-021
  -3.0600000000000002E-002     4.9673053782008159E-021
  -3.0550000000000001E-002     1.9733886718797853E-020
  -3.0499999999999999E-002     3.4098163667797095E-020
  -3.0449999999999998E-002     4.4885097342275472E-020
  -3.0400000000000000E-002     4.8933720415707238E-020
  -3.0350000000000002E-002     4.3659985272684607E-020
  -3.0300000000000001E-002     2.7614596653265149E-020
  -3.0249999999999999E-002     9.9692924664955948E-022
  -3.0200000000000001E-002    -3.3913833983885238E-020
  -3.0150000000000000E-002    -7.2482861939483924E-020
  -3.0100000000000002E-002    -1.0773406516596159E-019
  -3.0050000000000000E-002    -1.3084943403137563E-019
  -2.9999999999999999E-002    -1.3235344663704275E-019
  -2.9950000000000001E-002    -1.0408173711774546E-019
  -2.9899999999999999E-002    -4.1803846684699542E-020
  -2.9850000000000002E-002     5.1961007547346558E-020
  -2.9800000000000000E-002     1.6573254735070825E-019
  -2.9749999999999999E-002     2.7846502601738054E-019
  -2.9700000000000001E-002     3.6147767732790255E-019
  -2.9650000000000003E-002     3.8340169807136732E-019
  -2.9600000000000001E-002     3.1782465973606359E-019
  -2.9550000000000000E-002     1.5231454420989463E-019
  -2.9499999999999998E-002    -1.0340492035691388E-019
  -2.9450000000000000E-002    -4.1284302026856034E-019
  -2.9400000000000003E-002    -7.1417705846696225E-019
  -2.9350000000000001E-002    -9.2913609865913070E-019
  -2.9300000000000000E-002    -9.7893341729767396E-019
  -2.9249999999999998E-002    -8.0470223177736095E-019
  -2.9200000000000000E-002    -3.8798540615519304E-019
  -2.9150000000000002E-002     2.3422315375400190E-019
  -2.9100000000000001E-002     9.6509803708576458E-019
  -2.9049999999999999E-002     1.6577063979262737E-018
  -2.8999999999999998E-002     2.1392624138037986E-018
  -2.8950000000000000E-002     2.2467230315422351E-018
  -2.8900000000000002E-002     1.8671904077034308E-018
  -2.8850000000000001E-002     9.7440518095213369E-019
  -2.8799999999999999E-002    -3.4774505831223264E-019
  -2.8749999999999998E-002    -1.9020756722347907E-018
  -2.8700000000000000E-002    -3.3991916815973780E-018
  -2.8650000000000002E-002    -4.5020072316069526E-018
  -2.8600000000000000E-002    -4.8880184150141118E-018
  -2.8549999999999999E-002    -4.3194348713301752E-018
  -2.8500000000000001E-002    -2.7085637773479448E-018
  -2.8450000000000000E-002    -1.6504246417911777E-019
  -2.8400000000000002E-002     2.9870965307265863E-018
  -2.8350000000000000E-002     6.2310637230880513E-018
  -2.8299999999999999E-002     8.9208544784062777E-018
  -2.8250000000000001E-002     1.0383026524434689E-017
  -2.8200000000000003E-002     1.0045424031085324E-017
  -2.8150000000000001E-002     7.5739866525625124E-018
  -2.8100000000000000E-002     2.9928018570747395E-018
  -2.8049999999999999E-002    -3.2403454625253735E-018
  -2.8000000000000001E-002    -1.0228704692001580E-017
  -2.7950000000000003E-002    -1.6719500221046876E-017
  -2.7900000000000001E-002    -2.1279031969130919E-017
  -2.7850000000000000E-002    -2.2545340838089695E-017
  -2.7799999999999998E-002    -1.9523702634292753E-017
  -2.7750000000000000E-002    -1.1872752040709465E-017
  -2.7700000000000002E-002    -1.1906226996814638E-019
  -2.7650000000000001E-002     1.4260449892106091E-017
  -2.7600000000000000E-002     2.8933903392939018E-017
  -2.7549999999999998E-002     4.1005206216518814E-017
  -2.7500000000000000E-002     4.7480778203633272E-017
  -2.7450000000000002E-002     4.5852839556034508E-017
  -2.7400000000000001E-002     3.4705160595760572E-017
  -2.7349999999999999E-002     1.4224774964436588E-017
  -2.7299999999999998E-002    -1.3499971879039192E-017
  -2.7250000000000000E-002    -4.4496029877907611E-017
  -2.7200000000000002E-002    -7.3296684429470632E-017
  -2.7150000000000001E-002    -9.3707488275302760E-017
  -2.7099999999999999E-002    -9.9876510516790860E-017
  -2.7049999999999998E-002    -8.7525888238395516E-017
  -2.7000000000000000E-002    -5.5139814235496966E-017
  -2.6950000000000002E-002    -4.8664586042226116E-018
  -2.6900000000000000E-002     5.7109236562190416E-017
  -2.6849999999999999E-002     1.2091836986819140E-016
  -2.6800000000000001E-002     1.7418420880020644E-016
  -2.6749999999999999E-002     2.0397498999226165E-016
  -2.6700000000000002E-002     1.9931272557277147E-016
  -2.6650000000000000E-002     1.5384525606893403E-016
  -2.6599999999999999E-002     6.8156717005927054E-017
  -2.6550000000000001E-002    -4.8857567498880422E-017
  -2.6500000000000003E-002    -1.8005750959177125E-016
  -2.6450000000000001E-002    -3.0187318386029669E-016
  -2.6400000000000000E-002    -3.8785697771194741E-016
  -2.6349999999999998E-002    -4.1357591681280438E-016
  -2.6300000000000000E-002    -3.6206430818139677E-016
  -2.6250000000000002E-002    -2.2877569868829917E-016
  -2.6200000000000001E-002    -2.4874073370409405E-017
  -2.6150000000000000E-002     2.2214874558875460E-016
  -2.6099999999999998E-002     4.7113894011971023E-016
  -2.6050000000000000E-002     6.7323503563586042E-016
  -2.6000000000000002E-002     7.8040845695637315E-016
  -2.5950000000000001E-002     7.5522943975799793E-016
  -2.5899999999999999E-002     5.8003764179275847E-016
  -2.5849999999999998E-002     2.6356380173718866E-016
  -2.5800000000000000E-002    -1.5669106113122377E-016
  -2.5750000000000002E-002    -6.1737041092968750E-016
  -2.5700000000000001E-002    -1.0375997147500551E-015
  -2.5649999999999999E-002    -1.3318279541597272E-015
  -2.5599999999999998E-002    -1.4252869539247326E-015
  -2.5550000000000000E-002    -1.2694823125111224E-015
  -2.5500000000000002E-002    -8.5485386507815992E-016
  -2.5450000000000000E-002    -2.1795870634660719E-016
  -2.5399999999999999E-002     5.5876606833685020E-016
  -2.5349999999999998E-002     1.3554985644983068E-015
  -2.5300000000000000E-002     2.0312874018971801E-015
  -2.5250000000000002E-002     2.4461929153947041E-015
  -2.5200000000000000E-002     2.4862317990942621E-015
  -2.5149999999999999E-002     2.0872146371009727E-015
  -2.5100000000000001E-002     1.2532539745819754E-015
  -2.5049999999999999E-002     6.6053179309086212E-017
  -2.5000000000000001E-002    -1.3179093240145371E-015
  -2.4950000000000000E-002    -2.6835919241389618E-015
  -2.4899999999999999E-002    -3.7862251288884998E-015
  -2.4850000000000001E-002    -4.3897346755880836E-015
  -2.4800000000000003E-002    -4.3096024613111137E-015
  -2.4750000000000001E-002    -3.4534066572519581E-015
  -2.4700000000000000E-002    -1.8515649263861291E-015
  -2.4649999999999998E-002     3.2869976424086972E-016
  -2.4600000000000000E-002     2.7913918849540451E-015
  -2.4550000000000002E-002     5.1439187422609089E-015
  -2.4500000000000001E-002     6.9516287513379759E-015
  -2.4450000000000000E-002     7.8085951719512088E-015
  -2.4399999999999998E-002     7.4145922021878206E-015
  -2.4350000000000000E-002     5.6454295803601647E-015
  -2.4299999999999999E-002     2.6028877450412767E-015
  -2.4250000000000001E-002    -1.3680756000135849E-015
  -2.4199999999999999E-002    -5.7031928083636262E-015
  -2.4150000000000001E-002    -9.6861249102020237E-015
  -2.4100000000000000E-002    -1.2553750144566613E-014
  -2.4049999999999998E-002    -1.3626388943152513E-014
  -2.4000000000000000E-002    -1.2443137541770010E-014
  -2.3949999999999999E-002    -8.8783658212053068E-015
  -2.3900000000000001E-002    -3.2150505629705811E-015
  -2.3850000000000000E-002     3.8452298306619423E-015
  -2.3800000000000002E-002     1.1247234849051114E-014
  -2.3750000000000000E-002     1.7721331077060697E-014
  -2.3699999999999999E-002     2.1982501657701801E-014
  -2.3650000000000001E-002     2.2961012277241374E-014
  -2.3599999999999999E-002     2.0026542512717377E-014
  -2.3550000000000001E-002     1.3163170052333236E-014
  -2.3500000000000000E-002     3.0558191628466142E-015
  -2.3449999999999999E-002    -8.9398977314122144E-015
  -2.3400000000000001E-002    -2.0954422644550794E-014
  -2.3349999999999999E-002    -3.0874758957694873E-014
  -2.3300000000000001E-002    -3.6692991208622727E-014
  -2.3250000000000000E-002    -3.6878064998485530E-014
  -2.3199999999999998E-002    -3.0705312739380470E-014
  -2.3150000000000000E-002    -1.8478872641705153E-014
  -2.3099999999999999E-002    -1.5949760093636303E-015
  -2.3050000000000001E-002     1.7581793431669974E-014
  -2.3000000000000000E-002     3.6025892233640513E-014
  -2.2950000000000002E-002     5.0505072394035670E-014
  -2.2900000000000000E-002     5.8115238868668305E-014
  -2.2849999999999999E-002     5.6810187155311715E-014
  -2.2800000000000001E-002     4.5834435880428858E-014
  -2.2749999999999999E-002     2.5977590489320535E-014
  -2.2700000000000001E-002    -4.0734708409306430E-016
  -2.2650000000000000E-002    -2.9643675114110448E-014
  -2.2599999999999999E-002    -5.7209901453424603E-014
  -2.2550000000000001E-002    -7.8399028761568133E-014
  -2.2499999999999999E-002    -8.9066815479792478E-014
  -2.2450000000000001E-002    -8.6357211985201267E-014
  -2.2400000000000000E-002    -6.9288407414791713E-014
  -2.2349999999999998E-002    -3.9096105026549921E-014
  -2.2300000000000000E-002     7.4153141414120952E-016
  -2.2249999999999999E-002     4.4830451393499064E-014
  -2.2200000000000001E-002     8.6522293086324409E-014
  -2.2150000000000000E-002     1.1884208965710334E-013
  -2.2100000000000002E-002     1.3556568908616334E-013
  -2.2050000000000000E-002     1.3229490191301684E-013
  -2.1999999999999999E-002     1.0736125851212342E-013
  -2.1950000000000001E-002     6.2396079937047704E-014
  -2.1899999999999999E-002     2.4368134869504574E-015
  -2.1850000000000001E-002    -6.4502329129668267E-014
  -2.1800000000000000E-002    -1.2839085397796802E-013
  -2.1749999999999999E-002    -1.7858156786793469E-013
  -2.1700000000000001E-002    -2.0547346847788425E-013
  -2.1649999999999999E-002    -2.0219579900647294E-013
  -2.1600000000000001E-002    -1.6603700622803615E-013
  -2.1550000000000000E-002    -9.9350262044950422E-014
  -2.1499999999999998E-002    -9.7226911487008455E-015
  -2.1450000000000000E-002     9.0706317958052636E-014
  -2.1399999999999999E-002     1.8676014048260415E-013
  -2.1350000000000001E-002     2.6241235257034009E-013
  -2.1299999999999999E-002     3.0335084072349820E-013
  -2.1250000000000002E-002     2.9952568867634804E-013
  -2.1200000000000000E-002     2.4724649402109893E-013
  -2.1149999999999999E-002     1.5042512199956329E-013
  -2.1100000000000001E-002     2.0664938703761157E-014
  -2.1049999999999999E-002    -1.2393558602603286E-013
  -2.1000000000000001E-002    -2.6118755568016790E-013
  -2.0950000000000000E-002    -3.6813153440462022E-013
  -2.0899999999999998E-002    -4.2479278553840847E-013
  -2.0850000000000000E-002    -4.1777109760232629E-013
  -2.0799999999999999E-002    -3.4303855987431598E-013
  -2.0750000000000001E-002    -2.0739836316413553E-013
  -2.0700000000000000E-002    -2.8243296058181636E-014
  -2.0649999999999998E-002     1.6848630829230016E-013
  -2.0600000000000000E-002     3.5194150794297646E-013
  -2.0549999999999999E-002     4.9110776386811759E-013
  -2.0500000000000001E-002     5.5993415752667491E-013
  -2.0449999999999999E-002     5.4201317762415198E-013
  -2.0400000000000001E-002     4.3399612367051957E-013
  -2.0350000000000000E-002     2.4709232266093400E-013
  -2.0299999999999999E-002     6.2782425587870605E-015
  -2.0250000000000001E-002    -2.5279309242689729E-013
  -2.0199999999999999E-002    -4.8881709579166842E-013
  -2.0150000000000001E-002    -6.6109628854788573E-013
  -2.0100000000000000E-002    -7.3610180877597805E-013
  -2.0049999999999998E-002    -6.9331551210953960E-013
  -2.0000000000000000E-002    -5.2940370350998216E-013
  -1.9949999999999999E-002    -2.5998934888646304E-013
  -1.9900000000000001E-002     8.1368460270097982E-014
  -1.9850000000000000E-002     4.4697880332533139E-013
  -1.9799999999999998E-002     7.8118377244297214E-013
  -1.9750000000000000E-002     1.0281042698400103E-012
  -1.9699999999999999E-002     1.1399268131179994E-012
  -1.9650000000000001E-002     1.0845712743458880E-012
  -1.9599999999999999E-002     8.5161416660314807E-013
  -1.9550000000000001E-002     4.5552463549144807E-013
  -1.9500000000000000E-002    -6.4404999161528924E-014
  -1.9449999999999999E-002    -6.4763768430831465E-013
  -1.9400000000000001E-002    -1.2192095880621340E-012
  -1.9349999999999999E-002    -1.6990525011588798E-012
  -1.9300000000000001E-002    -2.0126862604141314E-012
  -1.9250000000000000E-002    -2.1018728106550001E-012
  -1.9199999999999998E-002    -1.9337268422689223E-012
  -1.9150000000000000E-002    -1.5068867214790383E-012
  -1.9099999999999999E-002    -8.5367528563171379E-013
  -1.9050000000000001E-002    -3.7693310302929036E-014
  -1.9000000000000000E-002     8.5307479122309758E-013
  -1.8949999999999998E-002     1.7168799870689660E-012
  -1.8900000000000000E-002     2.4511729902131448E-012
  -1.8849999999999999E-002     2.9660924768424852E-012
  -1.8800000000000001E-002     3.1964724862297776E-012
  -1.8749999999999999E-002     3.1104934516091837E-012
  -1.8700000000000001E-002     2.7135514951762586E-012
  -1.8650000000000000E-002     2.0466285457441098E-012
  -1.8599999999999998E-002     1.1793268929091673E-012
  -1.8550000000000001E-002     1.9863381812696812E-013
  -1.8499999999999999E-002    -8.0474724579218252E-013
  -1.8450000000000001E-002    -1.7501402281915792E-012
  -1.8400000000000000E-002    -2.5782414741033420E-012
  -1.8349999999999998E-002    -3.2578595879303514E-012
  -1.8300000000000000E-002    -3.7865429162593321E-012
  -1.8249999999999999E-002    -4.1845737867006571E-012
  -1.8200000000000001E-002    -4.4829682212024950E-012
  -1.8149999999999999E-002    -4.7072230748810116E-012
  -1.8100000000000002E-002    -4.8594659543633844E-012
  -1.8050000000000000E-002    -4.9021608042122337E-012
  -1.7999999999999999E-002    -4.7465155947105174E-012
  -1.7950000000000001E-002    -4.2482027709732448E-012
  -1.7899999999999999E-002    -3.2119560186587641E-012
  -1.7850000000000001E-002    -1.4052633888221767E-012
  -1.7800000000000000E-002     1.4201180256353711E-012
  -1.7749999999999998E-002     5.5014719774011707E-012
  -1.7700000000000000E-002     1.1036877778248971E-011
  -1.7649999999999999E-002     1.8159514636350855E-011
  -1.7600000000000001E-002     2.6918451539196041E-011
  -1.7550000000000000E-002     3.7268905671754822E-011
  -1.7499999999999998E-002     4.9073736285464220E-011
  -1.7450000000000000E-002     6.2116294529104664E-011
  -1.7399999999999999E-002     7.6123025085501808E-011
  -1.7350000000000001E-002     9.0792777057924975E-011
  -1.7299999999999999E-002     1.0582894162468557E-010
  -1.7250000000000001E-002     1.2097005906262829E-010
  -1.7200000000000000E-002     1.3601501799803014E-010
  -1.7149999999999999E-002     1.5083959950559905E-010
  -1.7100000000000001E-002     1.6540281136260105E-010
  -1.7049999999999999E-002     1.7974246480539569E-010
  -1.7000000000000001E-002     1.9396133915531159E-010
  -1.6950000000000000E-002     2.0820607025542336E-010
  -1.6899999999999998E-002     2.2264201206012137E-010
  -1.6850000000000000E-002     2.3742737354140272E-010
  -1.6799999999999999E-002     2.5269019837454630E-010
  -1.6750000000000001E-002     2.6851080418186709E-010
  -1.6700000000000000E-002     2.8491177102466598E-010
  -1.6649999999999998E-002     3.0185638380497502E-010
  -1.6600000000000000E-002     3.1925525415468309E-010
  -1.6549999999999999E-002     3.3698048829999404E-010
  -1.6500000000000001E-002     3.5488506032539664E-010
  -1.6449999999999999E-002     3.7282483631308273E-010
  -1.6400000000000001E-002     3.9068033850981748E-010
  -1.6350000000000000E-002     4.0837528837596414E-010
  -1.6299999999999999E-002     4.2588928535482748E-010
  -1.6250000000000001E-002     4.4326298136591716E-010
  -1.6199999999999999E-002     4.6059468927356726E-010
  -1.6150000000000001E-002     4.7802883707712097E-010
  -1.6100000000000000E-002     4.9573793185397135E-010
  -1.6049999999999998E-002     5.1390058650849937E-010
  -1.6000000000000000E-002     5.3267951826234809E-010
  -1.5949999999999999E-002     5.5220165519038663E-010
  -1.5900000000000001E-002     5.7254509900736480E-010
  -1.5850000000000000E-002     5.9373363452852746E-010
  -1.5799999999999998E-002     6.1574122389033283E-010
  -1.5750000000000000E-002     6.3850444175359782E-010
  -1.5699999999999999E-002     6.6194175863392846E-010
  -1.5650000000000001E-002     6.8597522690386730E-010
  -1.5599999999999999E-002     7.1055086347576919E-010
  -1.5550000000000001E-002     7.3565345614794205E-010
  -1.5500000000000000E-002     7.6131244747430521E-010
  -1.5449999999999998E-002     7.8759713144310704E-010
  -1.5400000000000000E-002     8.1460226922120226E-010
  -1.5349999999999999E-002     8.4242645748917504E-010
  -1.5300000000000001E-002     8.7114790293713202E-010
  -1.5250000000000000E-002     9.0080244160599116E-010
  -1.5199999999999998E-002     9.3136943918357299E-010
  -1.5150000000000000E-002     9.6277019124976175E-010
  -1.5099999999999999E-002     9.9488012614124105E-010
  -1.5050000000000001E-002     1.0275538960221255E-009
  -1.4999999999999999E-002     1.0606601836892350E-009
  -1.4949999999999998E-002     1.0941189434576408E-009
  -1.4900000000000000E-002     1.1279343864525087E-009
  -1.4849999999999999E-002     1.1622148480928898E-009
  -1.4800000000000001E-002     1.1971756434192175E-009
  -1.4749999999999999E-002     1.2331215084918176E-009
  -1.4700000000000001E-002     1.2704106278773554E-009
  -1.4650000000000000E-002     1.3094057309576838E-009
  -1.4599999999999998E-002     1.3504190138380071E-009
  -1.4550000000000000E-002     1.3936627284025445E-009
  -1.4499999999999999E-002     1.4392121061638772E-009
  -1.4450000000000001E-002     1.4869910088537727E-009
  -1.4400000000000000E-002     1.5367798574173584E-009
  -1.4349999999999998E-002     1.5882474345038244E-009
  -1.4300000000000000E-002     1.6409991247187629E-009
  -1.4249999999999999E-002     1.6946354620259319E-009
  -1.4200000000000001E-002     1.7488122401147075E-009
  -1.4149999999999999E-002     1.8032907557477142E-009
  -1.4099999999999998E-002     1.8579729830796319E-009
  -1.4050000000000000E-002     1.9129175075574576E-009
  -1.3999999999999999E-002     1.9683349130740849E-009
  -1.3950000000000001E-002     2.0245632904894277E-009
  -1.3899999999999999E-002     2.0820308386933021E-009
  -1.3850000000000001E-002     2.1412099087943691E-009
  -1.3800000000000000E-002     2.2025693344129568E-009
  -1.3749999999999998E-002     2.2665304822829582E-009
  -1.3700000000000000E-002     2.3334307516747621E-009
  -1.3649999999999999E-002     2.4034961501692679E-009
  -1.3600000000000001E-002     2.4768268666818191E-009
  -1.3550000000000000E-002     2.5533949089379247E-009
  -1.3499999999999998E-002     2.6330531536352262E-009
  -1.3450000000000000E-002     2.7155586013002643E-009
  -1.3399999999999999E-002     2.8006042729673316E-009
  -1.3350000000000001E-002     2.8878597241668135E-009
  -1.3299999999999999E-002     2.9770141480352859E-009
  -1.3249999999999998E-002     3.0678196861400712E-009
  -1.3200000000000000E-002     3.1601283583390718E-009
  -1.3149999999999998E-002     3.2539160551646786E-009
  -1.3100000000000001E-002     3.3492931487885484E-009
  -1.3049999999999999E-002     3.4464969157865760E-009
  -1.3000000000000001E-002     3.5458675058776302E-009
  -1.2950000000000000E-002     3.6478064215794052E-009
  -1.2899999999999998E-002     3.7527282376561103E-009
  -1.2850000000000000E-002     3.8610076070547237E-009
  -1.2799999999999999E-002     3.9729346138949874E-009