  -4.0000000000000001E-002     0.0000000000000000     
  -3.9949999999999999E-002     0.0000000000000000     
  -3.9899999999999998E-002     0.0000000000000000     
  -3.9850000000000003E-002     0.0000000000000000     
  -3.9800000000000002E-002     0.0000000000000000     
  -3.9750000000000001E-002     0.0000000000000000     
  -3.9699999999999999E-002     0.0000000000000000     
  -3.9649999999999998E-002     0.0000000000000000     
  -3.9600000000000003E-002     0.0000000000000000     
  -3.9550000000000002E-002     0.0000000000000000     
  -3.9500000000000000E-002     0.0000000000000000     
  -3.9449999999999999E-002     0.0000000000000000     
  -3.9399999999999998E-002     0.0000000000000000     
  -3.9350000000000003E-002     0.0000000000000000     
  -3.9300000000000002E-002     0.0000000000000000     
  -3.9250000000000000E-002     0.0000000000000000     
  -3.9199999999999999E-002     0.0000000000000000     
  -3.9150000000000004E-002     0.0000000000000000     
  -3.9100000000000003E-002     0.0000000000000000     
  -3.9050000000000001E-002     0.0000000000000000     
  -3.9000000000000000E-002     4.4601165581381925E-039
  -3.8949999999999999E-002     2.2826962440094584E-038
  -3.8900000000000004E-002     8.0939705899919747E-038
  -3.8850000000000003E-002     2.6875463536872082E-037
  -3.8800000000000001E-002     5.6687631616287880E-037
  -3.8750000000000000E-002     2.5974472114034848E-037
  -3.8699999999999998E-002    -4.2686958973948306E-036
  -3.8650000000000004E-002    -2.5097139205474912E-035
  -3.8600000000000002E-002    -9.2776595942183548E-035
  -3.8550000000000001E-002    -2.6497630569717966E-034
  -3.8500000000000000E-002    -6.0624288249873046E-034
  -3.8449999999999998E-002    -1.0668403133220159E-033
  -3.8400000000000004E-002    -1.1319512851878951E-033
  -3.8350000000000002E-002     8.8925423642017955E-034
  -3.8300000000000001E-002     8.8424917909678480E-033
  -3.8249999999999999E-002     2.9163936435575564E-032
  -3.8199999999999998E-002     6.8530926668951258E-032
  -3.8150000000000003E-002     1.2464062607478883E-031
  -3.8100000000000002E-002     1.6533584491210183E-031
  -3.8050000000000000E-002     9.5281686252174950E-032
  -3.7999999999999999E-002    -2.7686147330153663E-031
  -3.7949999999999998E-002    -1.2307814749095705E-030
  -3.7900000000000003E-002    -3.0110261319543037E-030
  -3.7850000000000002E-002    -5.4919007096574863E-030
  -3.7800000000000000E-002    -7.5774632136428699E-030
  -3.7749999999999999E-002    -6.4526998061317158E-030
  -3.7699999999999997E-002     2.8600602951279904E-030
  -3.7650000000000003E-002     2.6732635955735593E-029
  -3.7600000000000001E-002     6.9712801778272700E-029
  -3.7550000000000000E-002     1.2787169675138373E-028
  -3.7499999999999999E-002     1.7915466032084119E-028
  -3.7449999999999997E-002     1.7414404014896519E-028
  -3.7400000000000003E-002     3.4778527774884273E-029
  -3.7350000000000001E-002    -3.2786665869579142E-028
  -3.7300000000000000E-002    -9.6593165370573669E-028
  -3.7249999999999998E-002    -1.8146766476772249E-027
  -3.7200000000000004E-002    -2.5962704807013611E-027
  -3.7150000000000002E-002    -2.7516072114673813E-027
  -3.7100000000000001E-002    -1.4716285420952459E-027
  -3.7050000000000000E-002     2.0911917016392882E-027
  -3.6999999999999998E-002     8.3813970475993360E-027
  -3.6950000000000004E-002     1.6806245160291440E-026
  -3.6900000000000002E-002     2.5084477977905064E-026
  -3.6850000000000001E-002     2.8908032550465195E-026
  -3.6799999999999999E-002     2.2344008483021105E-026
  -3.6749999999999998E-002    -6.4599276915676696E-028
  -3.6700000000000003E-002    -4.3463365225367198E-026
  -3.6650000000000002E-002    -1.0330330809110387E-025
  -3.6600000000000001E-002    -1.6779305631707808E-025
  -3.6549999999999999E-002    -2.1343565824989826E-025
  -3.6499999999999998E-002    -2.0766587869448721E-025
  -3.6450000000000003E-002    -1.1590748118103577E-025
  -3.6400000000000002E-002     8.6166210450953462E-026
  -3.6350000000000000E-002     3.9684733347683775E-025
  -3.6299999999999999E-002     7.7299564897114890E-025
  -3.6249999999999998E-002     1.1209230789709342E-024
  -3.6200000000000003E-002     1.3004194787341177E-024
  -3.6150000000000002E-002     1.1478616353711241E-024
  -3.6100000000000000E-002     5.2080598560894274E-025
  -3.6049999999999999E-002    -6.4007405115434201E-025
  -3.6000000000000004E-002    -2.2448788430350321E-024
  -3.5950000000000003E-002    -4.0069400616991773E-024
  -3.5900000000000001E-002    -5.4428409992731687E-024
  -3.5850000000000000E-002    -5.9465241704352413E-024
  -3.5799999999999998E-002    -4.9475625473498709E-024
  -3.5750000000000004E-002    -2.1314956210209485E-024
  -3.5700000000000003E-002     2.3419531714857471E-024
  -3.5650000000000001E-002     7.7228713845206093E-024
  -3.5600000000000000E-002     1.2762565220081853E-023
  -3.5549999999999998E-002     1.6067902404457622E-023
  -3.5500000000000004E-002     1.6661359887776635E-023
  -3.5450000000000002E-002     1.4538541815063716E-023
  -3.5400000000000001E-002     1.0891273314683637E-023
  -3.5349999999999999E-002     7.6619798164866824E-024
  -3.5299999999999998E-002     6.2972510510799751E-024
  -3.5250000000000004E-002     5.9885679187392830E-024
  -3.5200000000000002E-002     2.2141138948235845E-024
  -3.5150000000000001E-002    -1.3221912937688745E-023
  -3.5099999999999999E-002    -4.9542339987468588E-023
  -3.5049999999999998E-002    -1.1143871056154200E-022
  -3.5000000000000003E-002    -1.9181025616188287E-022
  -3.4950000000000002E-002    -2.6579329806591217E-022
  -3.4900000000000000E-002    -2.9028811008869984E-022
  -3.4849999999999999E-002    -2.1282480740913784E-022
  -3.4799999999999998E-002     9.0257381096258706E-024
  -3.4750000000000003E-002     3.8122590825292827E-022
  -3.4700000000000002E-002     8.4879695997972665E-022
  -3.4650000000000000E-002     1.2859413317808716E-021
  -3.4599999999999999E-002     1.5125870835468891E-021
  -3.4549999999999997E-002     1.3421935070785646E-021
  -3.4500000000000003E-002     6.5326208146908366E-022
  -3.4450000000000001E-002    -5.3697950639480702E-022
  -3.4400000000000000E-002    -2.0275534029681865E-021
  -3.4349999999999999E-002    -3.4465005767117958E-021
  -3.4299999999999997E-002    -4.3346202065067971E-021
  -3.4250000000000003E-002    -4.2858850829372780E-021
  -3.4200000000000001E-002    -3.1008152814380018E-021
  -3.4150000000000000E-002    -8.9154437371857671E-022
  -3.4099999999999998E-002     1.9158955278103435E-021
  -3.4049999999999997E-002     4.7013190716915002E-021
  -3.4000000000000002E-002     6.8571397597253405E-021
  -3.3950000000000001E-002     7.9962570541596026E-021
  -3.3900000000000000E-002     8.0557812957853099E-021
  -3.3849999999999998E-002     7.2237637831830115E-021
  -3.3799999999999997E-002     5.6995969417280200E-021
  -3.3750000000000002E-002     3.4039862551210601E-021
  -3.3700000000000001E-002    -1.7026469811348544E-022
  -3.3649999999999999E-002    -5.7842215181784707E-021
  -3.3599999999999998E-002    -1.3894036365208422E-020
  -3.3550000000000003E-002    -2.3856034353793504E-020
  -3.3500000000000002E-002    -3.3263160227234198E-020
  -3.3450000000000001E-002    -3.7891889093518250E-020
  -3.3399999999999999E-002    -3.2638863057296056E-020
  -3.3349999999999998E-002    -1.3482184960913893E-020
  -3.3300000000000003E-002     2.0007419406201407E-020
  -3.3250000000000002E-002     6.2562803874760406E-020
  -3.3200000000000000E-002     1.0269087326424518E-019
  -3.3149999999999999E-002     1.2462074783215676E-019
  -3.3099999999999997E-002     1.1285771299166295E-019
  -3.3050000000000003E-002     5.8371210517087244E-020
  -3.3000000000000002E-002    -3.5582719758733868E-020
  -3.2950000000000000E-002    -1.5048222232116658E-019
  -3.2899999999999999E-002    -2.5444220987753061E-019
  -3.2850000000000004E-002    -3.0962792856010510E-019
  -3.2800000000000003E-002    -2.8378467035949866E-019
  -3.2750000000000001E-002    -1.6256180163838195E-019
  -3.2700000000000000E-002     4.1695882048574025E-020
  -3.2649999999999998E-002     2.8849328679791676E-019
  -3.2600000000000004E-002     5.1675782038955112E-019
  -3.2550000000000003E-002     6.6002866475193018E-019
  -3.2500000000000001E-002     6.6489522887434813E-019
  -3.2450000000000000E-002     5.0675963550698866E-019
  -3.2399999999999998E-002     1.9766421359108898E-019
  -3.2350000000000004E-002    -2.1622363585865666E-019
  -3.2300000000000002E-002    -6.6587861835810279E-019
  -3.2250000000000001E-002    -1.0744111882820407E-018
  -3.2199999999999999E-002    -1.3695900061186115E-018
  -3.2149999999999998E-002    -1.4896356792951469E-018
  -3.2100000000000004E-002    -1.3825126263400882E-018
  -3.2050000000000002E-002    -1.0039759283657839E-018
  -3.2000000000000001E-002    -3.2246137191604902E-019
  -3.1949999999999999E-002     6.6275319275855862E-019
  -3.1899999999999998E-002     1.8903640933890254E-018
  -3.1850000000000003E-002     3.2028577286736026E-018
  -3.1800000000000002E-002     4.3280608001360991E-018
  -3.1750000000000000E-002     4.8978298256895830E-018
  -3.1699999999999999E-002     4.5182750957832599E-018
  -3.1649999999999998E-002     2.8889713345720886E-018
  -3.1600000000000003E-002    -5.4001317517842044E-020
  -3.1550000000000002E-002    -4.0165375735364792E-018
  -3.1500000000000000E-002    -8.3002488491420144E-018
  -3.1449999999999999E-002    -1.1874768749175758E-017
  -3.1399999999999997E-002    -1.3581608132636772E-017
  -3.1350000000000003E-002    -1.2439070183158905E-017
  -3.1300000000000001E-002    -7.9746074026241663E-018
  -3.1250000000000000E-002    -4.8447654564696184E-019
  -3.1199999999999999E-002     8.8761405987975757E-018
  -3.1150000000000001E-002     1.8232074933689248E-017
  -3.1100000000000003E-002     2.5352150407820100E-017
  -3.1050000000000001E-002     2.8163234232401480E-017
  -3.1000000000000000E-002     2.5285216461486612E-017
  -3.0949999999999998E-002     1.6440995842410107E-017
  -3.0900000000000000E-002     2.6252233100028488E-018
  -3.0850000000000002E-002    -1.4016161697055606E-017
  -3.0800000000000001E-002    -3.0559856719356288E-017
  -3.0750000000000000E-002    -4.3828005975262510E-017
  -3.0699999999999998E-002    -5.0927587372746271E-017
  -3.0650000000000000E-002    -4.9697195101215487E-017
  -3.0600000000000002E-002    -3.9014243941324511E-017
  -3.0550000000000001E-002    -1.8985537478460144E-017
  -3.0499999999999999E-002     8.9157018486336392E-018
  -3.0449999999999998E-002     4.1720505342677878E-017
  -3.0400000000000000E-002     7.4872696256680892E-017
  -3.0350000000000002E-002     1.0230926093655841E-016
  -3.0300000000000001E-002     1.1692152215146543E-016
  -3.0249999999999999E-002     1.1159248106711236E-016
  -3.0200000000000001E-002     8.0866384479203847E-017
  -3.0150000000000000E-002     2.3053772301075243E-017
  -3.0100000000000002E-002    -5.7722655042338455E-017
  -3.0050000000000000E-002    -1.5026532312220699E-016
  -2.9999999999999999E-002    -2.3658593931225746E-016
  -2.9950000000000001E-002    -2.9426709417696582E-016
  -2.9899999999999999E-002    -3.0092538054110926E-016
  -2.9850000000000002E-002    -2.4012375581452517E-016
  -2.9800000000000000E-002    -1.0742405234638934E-016
  -2.9749999999999999E-002     8.5136110009139409E-017
  -2.9700000000000001E-002     3.0782031017090616E-016
  -2.9650000000000003E-002     5.1634134935834239E-016
  -2.9600000000000001E-002     6.5948430515773859E-016
  -2.9550000000000000E-002     6.9008003574509821E-016
  -2.9499999999999998E-002     5.7709396799155338E-016
  -2.9450000000000000E-002     3.1594861777031639E-016
  -2.9400000000000003E-002    -6.5747943683929247E-017
  -2.9350000000000001E-002    -5.0908102261324433E-016
  -2.9300000000000000E-002    -9.3192364908040167E-016
  -2.9249999999999998E-002    -1.2431925178760365E-015
  -2.9200000000000000E-002    -1.3607197585129193E-015
  -2.9150000000000002E-002    -1.2292488993776385E-015
  -2.9100000000000001E-002    -8.3487983303247046E-016
  -2.9049999999999999E-002    -2.1289391833038310E-016
  -2.8999999999999998E-002     5.5292360521664187E-016
  -2.8950000000000000E-002     1.3398610263105384E-015
  -2.8900000000000002E-002     2.0037032457861543E-015
  -2.8850000000000001E-002     2.4017445925845633E-015
  -2.8799999999999999E-002     2.4182779880960462E-015
  -2.8749999999999998E-002     1.9889257655355215E-015
  -2.8700000000000000E-002     1.1199374972782929E-015
  -2.8650000000000002E-002    -1.0135703197105360E-016
  -2.8600000000000000E-002    -1.5082719564516334E-015
  -2.8549999999999999E-002    -2.8708934553337984E-015
  -2.8500000000000001E-002    -3.9269359287875924E-015
  -2.8450000000000000E-002    -4.4249550788189199E-015
  -2.8400000000000002E-002    -4.1743791412096913E-015
  -2.8350000000000000E-002    -3.0938434574249612E-015
  -2.8299999999999999E-002    -1.2474494565784467E-015
  -2.8250000000000001E-002     1.1413012834240573E-015
  -2.8200000000000003E-002     3.7054480359724579E-015
  -2.8150000000000001E-002     5.9827354387461165E-015
  -2.8100000000000000E-002     7.4914933950821314E-015
  -2.8049999999999999E-002     7.8226743827706576E-015
  -2.8000000000000001E-002     6.7310912165731607E-015
  -2.7950000000000003E-002     4.2067303296209732E-015
  -2.7900000000000001E-002     5.0905455203470265E-016
  -2.7850000000000000E-002    -3.8467163629595050E-015
  -2.7799999999999998E-002    -8.1534288565871067E-015
  -2.7750000000000000E-002    -1.1618173726951476E-014
  -2.7700000000000002E-002    -1.3494598029130254E-014
  -2.7650000000000001E-002    -1.3219786440444485E-014
  -2.7600000000000000E-002    -1.0532852016433570E-014
  -2.7549999999999998E-002    -5.5549619840455164E-015
  -2.7500000000000000E-002     1.1839868622810634E-015
  -2.7450000000000002E-002     8.7798827592500462E-015
  -2.7400000000000001E-002     1.6050660430272903E-014
  -2.7349999999999999E-002     2.1687867116469525E-014
  -2.7299999999999998E-002     2.4450263983344448E-014
  -2.7250000000000000E-002     2.3379215141963367E-014
  -2.7200000000000002E-002     1.8008380277066622E-014
  -2.7150000000000001E-002     8.5337399542742059E-015
  -2.7099999999999999E-002    -4.0936841417430978E-015
  -2.7049999999999998E-002    -1.8188026901548728E-014
  -2.7000000000000000E-002    -3.1486727121402402E-014
  -2.6950000000000002E-002    -4.1451211478771490E-014
  -2.6900000000000000E-002    -4.5685939970251883E-014
  -2.6849999999999999E-002    -4.2419183667705186E-014
  -2.6800000000000001E-002    -3.0960392353426201E-014
  -2.6749999999999999E-002    -1.2033440775006748E-014
  -2.6700000000000002E-002     1.2110186912196486E-014
  -2.6650000000000000E-002     3.7865248429802197E-014
  -2.6599999999999999E-002     6.0749607072584993E-014
  -2.6550000000000001E-002     7.6135670122511690E-014
  -2.6500000000000003E-002     8.0123828782972300E-014
  -2.6450000000000001E-002     7.0397176475401596E-014
  -2.6400000000000000E-002     4.6878545148812893E-014
  -2.6349999999999998E-002     1.2030510341433900E-014
  -2.6300000000000000E-002    -2.9304000456618962E-014
  -2.6250000000000002E-002    -7.0537894818035842E-014
  -2.6200000000000001E-002    -1.0437464273721121E-013
  -2.6150000000000000E-002    -1.2407646339644234E-013
  -2.6099999999999998E-002    -1.2474284287294672E-013
  -2.6050000000000000E-002    -1.0435927178213381E-013
  -2.6000000000000002E-002    -6.4405680737930476E-014
  -2.5950000000000001E-002    -9.8845531508225645E-015
  -2.5899999999999999E-002     5.1272688931176822E-014
  -2.5849999999999998E-002     1.0935354356784657E-013
  -2.5800000000000000E-002     1.5439938859609593E-013
  -2.5750000000000002E-002     1.7788662553648242E-013
  -2.5700000000000001E-002     1.7427743768845720E-013
  -2.5649999999999999E-002     1.4217119467888503E-013
  -2.5599999999999998E-002     8.4838499559932227E-014
  -2.5550000000000000E-002     1.0007679629142965E-014
  -2.5500000000000002E-002    -7.1113334758401930E-014
  -2.5450000000000000E-002    -1.4547284620924271E-013
  -2.5399999999999999E-002    -2.0024579902798198E-013
  -2.5349999999999998E-002    -2.2502545662206265E-013
  -2.5300000000000000E-002    -2.1377678137715073E-013
  -2.5250000000000002E-002    -1.6620160644792740E-013
  -2.5200000000000000E-002    -8.8236543433139083E-014
  -2.5149999999999999E-002     8.4705375155023240E-015
  -2.5100000000000001E-002     1.0809739174631912E-013
  -2.5049999999999999E-002     1.9301689594457473E-013
  -2.5000000000000001E-002     2.4666594327676497E-013
  -2.4950000000000000E-002     2.5647718233208666E-013
  -2.4899999999999999E-002     2.1640219312671579E-013
  -2.4850000000000001E-002     1.2859589480253617E-013
  -2.4800000000000003E-002     3.9402690494752377E-015
  -2.4750000000000001E-002    -1.3875792797160833E-013
  -2.4700000000000000E-002    -2.7488217390442728E-013
  -2.4649999999999998E-002    -3.7724433494010087E-013
  -2.4600000000000000E-002    -4.2010295503635054E-013
  -2.4550000000000002E-002    -3.8349697815511122E-013
  -2.4500000000000001E-002    -2.5734734498920101E-013
  -2.4450000000000000E-002    -4.4737926857012784E-014
  -2.4399999999999998E-002     2.3620463758639170E-013
  -2.4350000000000000E-002     5.5234035487832841E-013
  -2.4299999999999999E-002     8.5780957721897320E-013
  -2.4250000000000001E-002     1.0986990184388735E-012
  -2.4199999999999999E-002     1.2198503512572577E-012
  -2.4150000000000001E-002     1.1731836046383827E-012
  -2.4100000000000000E-002     9.2650543768606399E-013
  -2.4049999999999998E-002     4.7146095317615872E-013
  -2.4000000000000000E-002    -1.7084781805450951E-013
  -2.3949999999999999E-002    -9.4793157652763082E-013
  -2.3900000000000001E-002    -1.7786059793823915E-012
  -2.3850000000000000E-002    -2.5605639962222528E-012
  -2.3800000000000002E-002    -3.1822386217450794E-012
  -2.3750000000000000E-002    -3.5375163212175482E-012
  -2.3699999999999999E-002    -3.5411842283177945E-012
  -2.3650000000000001E-002    -3.1426699502961027E-012
  -2.3599999999999999E-002    -2.3357474320183586E-012
  -2.3550000000000001E-002    -1.1624725300528682E-012
  -2.3500000000000000E-002     2.8943621013613906E-013
  -2.3449999999999999E-002     1.8954135301923164E-012
  -2.3400000000000001E-002     3.5076125493298618E-012
  -2.3349999999999999E-002     4.9709591162017875E-012
  -2.3300000000000001E-002     6.1390837261780921E-012
  -2.3250000000000000E-002     6.8877045185082579E-012
  -2.3199999999999998E-002     7.1236985297129290E-012
  -2.3150000000000000E-002     6.7891263481180725E-012
  -2.3099999999999999E-002     5.8605891260606076E-012
  -2.3050000000000001E-002     4.3453288294296085E-012
  -2.3000000000000000E-002     2.2761405118436014E-012
  -2.2950000000000002E-002    -2.9260470440461355E-013
  -2.2900000000000000E-002    -3.2858363740596871E-012
  -2.2849999999999999E-002    -6.6042909170550139E-012
  -2.2800000000000001E-002    -1.0116397645160717E-011
  -2.2749999999999999E-002    -1.3646420217817095E-011
  -2.2700000000000001E-002    -1.6960735379066712E-011
  -2.2650000000000000E-002    -1.9754887460380233E-011
  -2.2599999999999999E-002    -2.1644338146451968E-011
  -2.2550000000000001E-002    -2.2161742449222754E-011
  -2.2499999999999999E-002    -2.0762912656292057E-011
  -2.2450000000000001E-002    -1.6842688850136695E-011
  -2.2400000000000000E-002    -9.7606827660331307E-012
  -2.2349999999999998E-002     1.1244794597952799E-012
  -2.2300000000000000E-002     1.6414972033679320E-011
  -2.2249999999999999E-002     3.6631140773002589E-011
  -2.2200000000000001E-002     6.2170494752404343E-011
  -2.2150000000000000E-002     9.3272443378375780E-011
  -2.2100000000000002E-002     1.2999246858492563E-010
  -2.2050000000000000E-002     1.7218871636217797E-010
  -2.1999999999999999E-002     2.1952285783131685E-010
  -2.1950000000000001E-002     2.7147583488407336E-010
  -2.1899999999999999E-002     3.2737807278212702E-010
  -2.1850000000000001E-002     3.8645212378541658E-010
  -2.1800000000000000E-002     4.4786497202752505E-010
  -2.1749999999999999E-002     5.1078624892927849E-010
  -2.1700000000000001E-002     5.7444761819779085E-010
  -2.1649999999999999E-002     6.3819812097729655E-010
  -2.1600000000000001E-002     7.0155011788188042E-010
  -2.1550000000000000E-002     7.6421054977161115E-010
  -2.1499999999999998E-002     8.2609381486579990E-010
  -2.1450000000000000E-002     8.8731293884548538E-010
  -2.1399999999999999E-002     9.4815013352453887E-010
  -2.1350000000000001E-002     1.0090084667317792E-009
  -2.1299999999999999E-002     1.0703510341640677E-009
  -2.1250000000000002E-002     1.1326349018234032E-009
  -2.1200000000000000E-002     1.1962492787158856E-009
  -2.1149999999999999E-002     1.2614678779461741E-009
  -2.1100000000000001E-002     1.3284208449698255E-009
  -2.1049999999999999E-002     1.3970921803322741E-009
  -2.1000000000000001E-002     1.4673411580700956E-009
  -2.0950000000000000E-002     1.5389441790879168E-009
  -2.0899999999999998E-002     1.6116488588848046E-009
  -2.0850000000000000E-002     1.6852305908506117E-009
  -2.0799999999999999E-002     1.7595407063869288E-009
  -2.0750000000000001E-002     1.8345388841097655E-009
  -2.0700000000000000E-002     1.9103045196775648E-009
  -2.0649999999999998E-002     1.9870273713830331E-009
  -2.0600000000000000E-002     2.0649794147302564E-009
  -2.0549999999999999E-002     2.1444766816464353E-009
  -2.0500000000000001E-002     2.2258378383782050E-009
  -2.0449999999999999E-002     2.3093506339152814E-009
  -2.0400000000000001E-002     2.3952472893355350E-009
  -2.0350000000000000E-002     2.4836978485950881E-009
  -2.0299999999999999E-002     2.5748163226750109E-009
  -2.0250000000000001E-002     2.6686793652942586E-009
  -2.0199999999999999E-002     2.7653477447866076E-009
  -2.0150000000000001E-002     2.8648888409324309E-009
  -2.0100000000000000E-002     2.9673898121907695E-009
  -2.0049999999999998E-002     3.0729607421880520E-009
  -2.0000000000000000E-002     3.1817261791771570E-009
  -1.9949999999999999E-002     3.2938053249272255E-009
  -1.9900000000000001E-002     3.4092874349900951E-009
  -1.9850000000000000E-002     3.5282086677009303E-009
  -1.9799999999999998E-002     3.6505339055837101E-009
  -1.9750000000000000E-002     3.7761532370074529E-009
  -1.9699999999999999E-002     3.9048909459164625E-009
  -1.9650000000000001E-002     4.0365314419854822E-009
  -1.9599999999999999E-002     4.1708600935779003E-009
  -1.9550000000000001E-002     4.3077059535000255E-009
  -1.9500000000000000E-002     4.4469909840184360E-009
  -1.9449999999999999E-002     4.5887659998490268E-009
  -1.9400000000000001E-002     4.7332346819203949E-009
  -1.9349999999999999E-002     4.8807577413993835E-009
  -1.9300000000000001E-002     5.0318373444688139E-009
  -1.9250000000000000E-002     5.1870804886003647E-009
  -1.9199999999999998E-002     5.3471492366851403E-009
  -1.9150000000000000E-002     5.5127040228759522E-009
  -1.9099999999999999E-002     5.6843465718591777E-009
  -1.9050000000000001E-002     5.8625711883336034E-009
  -1.9000000000000000E-002     6.0477258848493368E-009
  -1.8949999999999998E-002     6.2399910254288311E-009
  -1.8900000000000000E-002     6.4393693165955799E-009
  -1.8849999999999999E-002     6.6456953315489234E-009
  -1.8800000000000001E-002     6.8586546998289386E-009
  -1.8749999999999999E-002     7.0778140895249926E-009
  -1.8700000000000001E-002     7.3026624612024790E-009
  -1.8650000000000000E-002     7.5326597783520194E-009
  -1.8599999999999998E-002     7.7672942724526693E-009
  -1.8550000000000001E-002     8.0061498110157367E-009
  -1.8499999999999999E-002     8.2489644485970183E-009
  -1.8450000000000001E-002     8.4956999264691798E-009
  -1.8400000000000000E-002     8.7465876109776758E-009
  -1.8349999999999998E-002     9.0021526806504298E-009
  -1.8300000000000000E-002     9.2632170442407538E-009
  -1.8249999999999999E-002     9.5308558238071925E-009
  -1.8200000000000001E-002     9.8063207203109583E-009
  -1.8149999999999999E-002     1.0090931074978836E-008
  -1.8100000000000002E-002     1.0385948676602332E-008
  -1.8050000000000000E-002     1.0692447666910942E-008
  -1.7999999999999999E-002     1.1011200274259108E-008
  -1.7950000000000001E-002     1.1342600818294032E-008
  -1.7899999999999999E-002     1.1686637001756291E-008
  -1.7850000000000001E-002     1.2042916689699211E-008
  -1.7800000000000000E-002     1.2410747548210745E-008
  -1.7749999999999998E-002     1.2789255224239818E-008
  -1.7700000000000000E-002     1.3177525120199237E-008
  -1.7649999999999999E-002     1.3574742005499700E-008
  -1.7600000000000001E-002     1.3980304165527360E-008
  -1.7550000000000000E-002     1.4393905021420971E-008
  -1.7499999999999998E-002     1.4815562443985703E-008
  -1.7450000000000000E-002     1.5245604145290399E-008
  -1.7399999999999999E-002     1.5684614334070748E-008
  -1.7350000000000001E-002     1.6133365373360612E-008
  -1.7299999999999999E-002     1.6592737100873224E-008
  -1.7250000000000001E-002     1.7063661648343047E-008
  -1.7200000000000000E-002     1.7547071263360765E-008
  -1.7149999999999999E-002     1.8043878549992727E-008
  -1.7100000000000001E-002     1.8554975323634724E-008
  -1.7049999999999999E-002     1.9081228277888776E-008
  -1.7000000000000001E-002     1.9623487585394223E-008
  -1.6950000000000000E-002     2.0182562747649965E-008
  -1.6899999999999998E-002     2.0759188119694819E-008
  -1.6850000000000000E-002     2.1353980954234073E-008
  -1.6799999999999999E-002     2.1967384037242835E-008
  -1.6750000000000001E-002     2.2599617616531431E-008
  -1.6700000000000000E-002     2.3250663845011797E-008
  -1.6649999999999998E-002     2.3920271054874046E-008
  -1.6600000000000000E-002     2.4608000655902521E-008
  -1.6549999999999999E-002     2.5313311070831403E-008
  -1.6500000000000001E-002     2.6035662629255615E-008
  -1.6449999999999999E-002     2.6774625563736044E-008
  -1.6400000000000001E-002     2.7529992015115521E-008
  -1.6350000000000000E-002     2.8301851566272280E-008
  -1.6299999999999999E-002     2.9090646369997251E-008
  -1.6250000000000001E-002     2.9897171987230278E-008
  -1.6199999999999999E-002     3.0722552537011086E-008
  -1.6150000000000001E-002     3.1568172833467712E-008
  -1.6100000000000000E-002     3.2435596655744212E-008
  -1.6049999999999998E-002     3.3326453659714336E-008
  -1.6000000000000000E-002     3.4242335010140051E-008
  -1.5949999999999999E-002     3.5184688805984659E-008
  -1.5900000000000001E-002     3.6154734266220175E-008
  -1.5850000000000000E-002     3.7153387083993517E-008
  -1.5799999999999998E-002     3.8181224407401462E-008
  -1.5750000000000000E-002     3.9238485040235543E-008
  -1.5699999999999999E-002     4.0325086228288528E-008
  -1.5650000000000001E-002     4.1440721708642409E-008
  -1.5599999999999999E-002     4.2584922698433486E-008
  -1.5550000000000001E-002     4.3757206565810814E-008
  -1.5500000000000000E-002     4.4957195846458820E-008
  -1.5449999999999998E-002     4.6184718250282515E-008
  -1.5400000000000000E-002     4.7439912723185744E-008
  -1.5349999999999999E-002     4.8723272491242336E-008
  -1.5300000000000001E-002     5.0035659178778598E-008
  -1.5250000000000000E-002     5.1378285377610544E-008
  -1.5199999999999998E-002     5.2752638729691269E-008
  -1.5150000000000000E-002     5.4160404940395618E-008
  -1.5099999999999999E-002     5.5603376707821665E-008
  -1.5050000000000001E-002     5.7083355759627855E-008
  -1.4999999999999999E-002     5.8602050453895145E-008
  -1.4949999999999998E-002     6.0161032447106807E-008
  -1.4900000000000000E-002     6.1761651560234194E-008
  -1.4849999999999999E-002     6.3405030232099356E-008
  -1.4800000000000001E-002     6.5092030651314247E-008
  -1.4749999999999999E-002     6.6823262538545824E-008
  -1.4700000000000001E-002     6.8599131409146602E-008
  -1.4650000000000000E-002     7.0419868692199893E-008
  -1.4599999999999998E-002     7.2285591370351804E-008
  -1.4550000000000000E-002     7.4196398126946561E-008
  -1.4499999999999999E-002     7.6152458423805497E-008
  -1.4450000000000001E-002     7.8154077874093626E-008
  -1.4400000000000000E-002     8.0201789218068190E-008
  -1.4349999999999998E-002     8.2296422069647000E-008
  -1.4300000000000000E-002     8.4439123712078181E-008
  -1.4249999999999999E-002     8.6631365502184265E-008
  -1.4200000000000001E-002     8.8874903860985207E-008
  -1.4149999999999999E-002     9.1171682221063160E-008
  -1.4099999999999998E-002     9.3523748701173976E-008
  -1.4050000000000000E-002     9.5933088386214881E-008
  -1.3999999999999999E-002     9.8401545883350835E-008
  -1.3950000000000001E-002     1.0093070070134263E-007
  -1.3899999999999999E-002     1.0352184999201170E-007
  -1.3850000000000001E-002     1.0617597936764905E-007
  -1.3800000000000000E-002     1.0889389307658328E-007
  -1.3749999999999998E-002     1.1167626594716343E-007
  -1.3700000000000000E-002     1.1452376899294469E-007
  -1.3649999999999999E-002     1.1743720608345535E-007
  -1.3600000000000001E-002     1.2041756682847782E-007
  -1.3550000000000000E-002     1.2346602715688085E-007
  -1.3499999999999998E-002     1.2658395902657751E-007
  -1.3450000000000000E-002     1.2977282394259960E-007
  -1.3399999999999999E-002     1.3303412919597409E-007
  -1.3350000000000001E-002     1.3636933019009415E-007
  -1.3299999999999999E-002     1.3977988810712938E-007
  -1.3249999999999998E-002     1.4326732335642915E-007
  -1.3200000000000000E-002     1.4683326961567093E-007
  -1.3149999999999998E-002     1.5047965621208798E-007
  -1.3100000000000001E-002     1.5420867052794372E-007
  -1.3049999999999999E-002     1.5802285863056619E-007
  -1.3000000000000001E-002     1.6192500177814481E-007
  -1.2950000000000000E-002     1.6591795718168824E-007
  -1.2899999999999998E-002     1.7000445519614186E-007
  -1.2850000000000000E-002     1.7418688838373111E-007
  -1.2799999999999999E-002     1.7846717663100184E-007