  -4.0000000000000001E-002     0.0000000000000000     
  -3.9949999999999999E-002     0.0000000000000000     
  -3.9899999999999998E-002     0.0000000000000000     
  -3.9850000000000003E-002     0.0000000000000000     
  -3.9800000000000002E-002     0.0000000000000000     
  -3.9750000000000001E-002     0.0000000000000000     
  -3.9699999999999999E-002     0.0000000000000000     
  -3.9649999999999998E-002     0.0000000000000000     
  -3.9600000000000003E-002     0.0000000000000000     
  -3.9550000000000002E-002     0.0000000000000000     
  -3.9500000000000000E-002     0.0000000000000000     
  -3.9449999999999999E-002     0.0000000000000000     
  -3.9399999999999998E-002     0.0000000000000000     
  -3.9350000000000003E-002     0.0000000000000000     
  -3.9300000000000002E-002     0.0000000000000000     
  -3.9250000000000000E-002     0.0000000000000000     
  -3.9199999999999999E-002     0.0000000000000000     
  -3.9150000000000004E-002     0.0000000000000000     
  -3.9100000000000003E-002     0.0000000000000000     
  -3.9050000000000001E-002     0.0000000000000000     
  -3.9000000000000000E-002     0.0000000000000000     
  -3.8949999999999999E-002     0.0000000000000000     
  -3.8900000000000004E-002     0.0000000000000000     
  -3.8850000000000003E-002     0.0000000000000000     
  -3.8800000000000001E-002     0.0000000000000000     
  -3.8750000000000000E-002     0.0000000000000000     
  -3.8699999999999998E-002     0.0000000000000000     
  -3.8650000000000004E-002     0.0000000000000000     
  -3.8600000000000002E-002     0.0000000000000000     
  -3.8550000000000001E-002     0.0000000000000000     
  -3.8500000000000000E-002     0.0000000000000000     
  -3.8449999999999998E-002     0.0000000000000000     
  -3.8400000000000004E-002     0.0000000000000000     
  -3.8350000000000002E-002     0.0000000000000000     
  -3.8300000000000001E-002     0.0000000000000000     
  -3.8249999999999999E-002     0.0000000000000000     
  -3.8199999999999998E-002     0.0000000000000000     
  -3.8150000000000003E-002     0.0000000000000000     
  -3.8100000000000002E-002     0.0000000000000000     
  -3.8050000000000000E-002     0.0000000000000000     
  -3.7999999999999999E-002     0.0000000000000000     
  -3.7949999999999998E-002     0.0000000000000000     
  -3.7900000000000003E-002     0.0000000000000000     
  -3.7850000000000002E-002     0.0000000000000000     
  -3.7800000000000000E-002     0.0000000000000000     
  -3.7749999999999999E-002     0.0000000000000000     
  -3.7699999999999997E-002     0.0000000000000000     
  -3.7650000000000003E-002     0.0000000000000000     
  -3.7600000000000001E-002     0.0000000000000000     
  -3.7550000000000000E-002     0.0000000000000000     
  -3.7499999999999999E-002     0.0000000000000000     
  -3.7449999999999997E-002     0.0000000000000000     
  -3.7400000000000003E-002     0.0000000000000000     
  -3.7350000000000001E-002     0.0000000000000000     
  -3.7300000000000000E-002     0.0000000000000000     
  -3.7249999999999998E-002     0.0000000000000000     
  -3.7200000000000004E-002     0.0000000000000000     
  -3.7150000000000002E-002     0.0000000000000000     
  -3.7100000000000001E-002     0.0000000000000000     
  -3.7050000000000000E-002     0.0000000000000000     
  -3.6999999999999998E-002     0.0000000000000000     
  -3.6950000000000004E-002     0.0000000000000000     
  -3.6900000000000002E-002     0.0000000000000000     
  -3.6850000000000001E-002     0.0000000000000000     
  -3.6799999999999999E-002     0.0000000000000000     
  -3.6749999999999998E-002     0.0000000000000000     
  -3.6700000000000003E-002     0.0000000000000000     
  -3.6650000000000002E-002     0.0000000000000000     
  -3.6600000000000001E-002     0.0000000000000000     
  -3.6549999999999999E-002     0.0000000000000000     
  -3.6499999999999998E-002     0.0000000000000000     
  -3.6450000000000003E-002     0.0000000000000000     
  -3.6400000000000002E-002     0.0000000000000000     
  -3.6350000000000000E-002     0.0000000000000000     
  -3.6299999999999999E-002     0.0000000000000000     
  -3.6249999999999998E-002     0.0000000000000000     
  -3.6200000000000003E-002     0.0000000000000000     
  -3.6150000000000002E-002     0.0000000000000000     
  -3.6100000000000000E-002     0.0000000000000000     
  -3.6049999999999999E-002     0.0000000000000000     
  -3.6000000000000004E-002     0.0000000000000000     
  -3.5950000000000003E-002     0.0000000000000000     
  -3.5900000000000001E-002     0.0000000000000000     
  -3.5850000000000000E-002     0.0000000000000000     
  -3.5799999999999998E-002     0.0000000000000000     
  -3.5750000000000004E-002     0.0000000000000000     
  -3.5700000000000003E-002     0.0000000000000000     
  -3.5650000000000001E-002     0.0000000000000000     
  -3.5600000000000000E-002     0.0000000000000000     
  -3.5549999999999998E-002     0.0000000000000000     
  -3.5500000000000004E-002     0.0000000000000000     
  -3.5450000000000002E-002     0.0000000000000000     
  -3.5400000000000001E-002     0.0000000000000000     
  -3.5349999999999999E-002     0.0000000000000000     
  -3.5299999999999998E-002     0.0000000000000000     
  -3.5250000000000004E-002     0.0000000000000000     
  -3.5200000000000002E-002     0.0000000000000000     
  -3.5150000000000001E-002     0.0000000000000000     
  -3.5099999999999999E-002     0.0000000000000000     
  -3.5049999999999998E-002     0.0000000000000000     
  -3.5000000000000003E-002     0.0000000000000000     
  -3.4950000000000002E-002     0.0000000000000000     
  -3.4900000000000000E-002     0.0000000000000000     
  -3.4849999999999999E-002     0.0000000000000000     
  -3.4799999999999998E-002     0.0000000000000000     
  -3.4750000000000003E-002     0.0000000000000000     
  -3.4700000000000002E-002     0.0000000000000000     
  -3.4650000000000000E-002     0.0000000000000000     
  -3.4599999999999999E-002     0.0000000000000000     
  -3.4549999999999997E-002     0.0000000000000000     
  -3.4500000000000003E-002     0.0000000000000000     
  -3.4450000000000001E-002     0.0000000000000000     
  -3.4400000000000000E-002     0.0000000000000000     
  -3.4349999999999999E-002     0.0000000000000000     
  -3.4299999999999997E-002     0.0000000000000000     
  -3.4250000000000003E-002     0.0000000000000000     
  -3.4200000000000001E-002     0.0000000000000000     
  -3.4150000000000000E-002     0.0000000000000000     
  -3.4099999999999998E-002     0.0000000000000000     
  -3.4049999999999997E-002     0.0000000000000000     
  -3.4000000000000002E-002     0.0000000000000000     
  -3.3950000000000001E-002     0.0000000000000000     
  -3.3900000000000000E-002     0.0000000000000000     
  -3.3849999999999998E-002     0.0000000000000000     
  -3.3799999999999997E-002     0.0000000000000000     
  -3.3750000000000002E-002     0.0000000000000000     
  -3.3700000000000001E-002     0.0000000000000000     
  -3.3649999999999999E-002     0.0000000000000000     
  -3.3599999999999998E-002     0.0000000000000000     
  -3.3550000000000003E-002     0.0000000000000000     
  -3.3500000000000002E-002     0.0000000000000000     
  -3.3450000000000001E-002     0.0000000000000000     
  -3.3399999999999999E-002     0.0000000000000000     
  -3.3349999999999998E-002     0.0000000000000000     
  -3.3300000000000003E-002     0.0000000000000000     
  -3.3250000000000002E-002     0.0000000000000000     
  -3.3200000000000000E-002     0.0000000000000000     
  -3.3149999999999999E-002     0.0000000000000000     
  -3.3099999999999997E-002     0.0000000000000000     
  -3.3050000000000003E-002     0.0000000000000000     
  -3.3000000000000002E-002     0.0000000000000000     
  -3.2950000000000000E-002     0.0000000000000000     
  -3.2899999999999999E-002     0.0000000000000000     
  -3.2850000000000004E-002     0.0000000000000000     
  -3.2800000000000003E-002     0.0000000000000000     
  -3.2750000000000001E-002     0.0000000000000000     
  -3.2700000000000000E-002     0.0000000000000000     
  -3.2649999999999998E-002     0.0000000000000000     
  -3.2600000000000004E-002     0.0000000000000000     
  -3.2550000000000003E-002     0.0000000000000000     
  -3.2500000000000001E-002     0.0000000000000000     
  -3.2450000000000000E-002     0.0000000000000000     
  -3.2399999999999998E-002     0.0000000000000000     
  -3.2350000000000004E-002     0.0000000000000000     
  -3.2300000000000002E-002     0.0000000000000000     
  -3.2250000000000001E-002     0.0000000000000000     
  -3.2199999999999999E-002     0.0000000000000000     
  -3.2149999999999998E-002     0.0000000000000000     
  -3.2100000000000004E-002     0.0000000000000000     
  -3.2050000000000002E-002     0.0000000000000000     
  -3.2000000000000001E-002     0.0000000000000000     
  -3.1949999999999999E-002     0.0000000000000000     
  -3.1899999999999998E-002     0.0000000000000000     
  -3.1850000000000003E-002     0.0000000000000000     
  -3.1800000000000002E-002     0.0000000000000000     
  -3.1750000000000000E-002     0.0000000000000000     
  -3.1699999999999999E-002     0.0000000000000000     
  -3.1649999999999998E-002     0.0000000000000000     
  -3.1600000000000003E-002     0.0000000000000000     
  -3.1550000000000002E-002     0.0000000000000000     
  -3.1500000000000000E-002     0.0000000000000000     
  -3.1449999999999999E-002     0.0000000000000000     
  -3.1399999999999997E-002     0.0000000000000000     
  -3.1350000000000003E-002     0.0000000000000000     
  -3.1300000000000001E-002     0.0000000000000000     
  -3.1250000000000000E-002     0.0000000000000000     
  -3.1199999999999999E-002     0.0000000000000000     
  -3.1150000000000001E-002     0.0000000000000000     
  -3.1100000000000003E-002     0.0000000000000000     
  -3.1050000000000001E-002     0.0000000000000000     
  -3.1000000000000000E-002     0.0000000000000000     
  -3.0949999999999998E-002     0.0000000000000000     
  -3.0900000000000000E-002     0.0000000000000000     
  -3.0850000000000002E-002     0.0000000000000000     
  -3.0800000000000001E-002     0.0000000000000000     
  -3.0750000000000000E-002     0.0000000000000000     
  -3.0699999999999998E-002     0.0000000000000000     
  -3.0650000000000000E-002     0.0000000000000000     
  -3.0600000000000002E-002     0.0000000000000000     
  -3.0550000000000001E-002     0.0000000000000000     
  -3.0499999999999999E-002     0.0000000000000000     
  -3.0449999999999998E-002     0.0000000000000000     
  -3.0400000000000000E-002     0.0000000000000000     
  -3.0350000000000002E-002     0.0000000000000000     
  -3.0300000000000001E-002     0.0000000000000000     
  -3.0249999999999999E-002     0.0000000000000000     
  -3.0200000000000001E-002     0.0000000000000000     
  -3.0150000000000000E-002     0.0000000000000000     
  -3.0100000000000002E-002     0.0000000000000000     
  -3.0050000000000000E-002     0.0000000000000000     
  -2.9999999999999999E-002     0.0000000000000000     
  -2.9950000000000001E-002     0.0000000000000000     
  -2.9899999999999999E-002     0.0000000000000000     
  -2.9850000000000002E-002     0.0000000000000000     
  -2.9800000000000000E-002     0.0000000000000000     
  -2.9749999999999999E-002     0.0000000000000000     
  -2.9700000000000001E-002     0.0000000000000000     
  -2.9650000000000003E-002     0.0000000000000000     
  -2.9600000000000001E-002     0.0000000000000000     
  -2.9550000000000000E-002     0.0000000000000000     
  -2.9499999999999998E-002     0.0000000000000000     
  -2.9450000000000000E-002     0.0000000000000000     
  -2.9400000000000003E-002     0.0000000000000000     
  -2.9350000000000001E-002     0.0000000000000000     
  -2.9300000000000000E-002     0.0000000000000000     
  -2.9249999999999998E-002     0.0000000000000000     
  -2.9200000000000000E-002     0.0000000000000000     
  -2.9150000000000002E-002     0.0000000000000000     
  -2.9100000000000001E-002     0.0000000000000000     
  -2.9049999999999999E-002     0.0000000000000000     
  -2.8999999999999998E-002     0.0000000000000000     
  -2.8950000000000000E-002     0.0000000000000000     
  -2.8900000000000002E-002     0.0000000000000000     
  -2.8850000000000001E-002     0.0000000000000000     
  -2.8799999999999999E-002     0.0000000000000000     
  -2.8749999999999998E-002     0.0000000000000000     
  -2.8700000000000000E-002     0.0000000000000000     
  -2.8650000000000002E-002     0.0000000000000000     
  -2.8600000000000000E-002     1.7865073946112203E-039
  -2.8549999999999999E-002     4.3599220040385371E-039
  -2.8500000000000001E-002     5.2444811571614011E-039
  -2.8450000000000000E-002     1.9026917907722722E-039
  -2.8400000000000002E-002    -7.8387774396122927E-039
  -2.8350000000000000E-002    -2.0227163138648349E-038
  -2.8299999999999999E-002    -2.6022848154726914E-038
  -2.8250000000000001E-002    -2.0743211394311381E-038
  -2.8200000000000003E-002    -8.0827543923246348E-040
  -2.8150000000000001E-002     3.6751369391955768E-038
  -2.8100000000000000E-002     7.8953576035346312E-038
  -2.8049999999999999E-002     9.7678351043324148E-038
  -2.8000000000000001E-002     7.4056397839448677E-038
  -2.7950000000000003E-002     2.2833232275304474E-038
  -2.7900000000000001E-002    -6.8565028085977966E-038
  -2.7850000000000000E-002    -1.6645424026730508E-037
  -2.7799999999999998E-002    -2.4390888550896525E-037
  -2.7750000000000000E-002    -2.8038886450720835E-037
  -2.7700000000000002E-002    -2.3342170360178998E-037
  -2.7650000000000001E-002    -8.1732623061201768E-038
  -2.7600000000000000E-002     1.6135930245753365E-037
  -2.7549999999999998E-002     4.4693877835286703E-037
  -2.7500000000000000E-002     6.5886605490877132E-037
  -2.7450000000000002E-002     7.0783960573447748E-037
  -2.7400000000000001E-002     5.6972681875979642E-037
  -2.7349999999999999E-002     2.9018554397640885E-037
  -2.7299999999999998E-002    -3.6292055475419588E-038
  -2.7250000000000000E-002    -3.2207598983173788E-037
  -2.7200000000000002E-002    -5.5017370634360083E-037
  -2.7150000000000001E-002    -8.1197192373892780E-037
  -2.7099999999999999E-002    -1.2541579120326842E-036
  -2.7049999999999998E-002    -1.9926726483363914E-036
  -2.7000000000000000E-002    -2.9658615651919117E-036
  -2.6950000000000002E-002    -3.7646890321611540E-036
  -2.6900000000000000E-002    -3.5911929649738970E-036
  -2.6849999999999999E-002    -1.4258590137696521E-036
  -2.6800000000000001E-002     3.5333585990229813E-036
  -2.6749999999999999E-002     1.1215574154256307E-035
  -2.6700000000000002E-002     2.0023364063193693E-035
  -2.6650000000000000E-002     2.6535555683740312E-035
  -2.6599999999999999E-002     2.5960359498889402E-035
  -2.6550000000000001E-002     1.3581996914221590E-035
  -2.6500000000000003E-002    -1.2923193660069214E-035
  -2.6450000000000001E-002    -5.0914403665600137E-035
  -2.6400000000000000E-002    -9.1036814620419770E-035
  -2.6349999999999998E-002    -1.1754370617963817E-034
  -2.6300000000000000E-002    -1.1163827713010779E-034
  -2.6250000000000002E-002    -5.7894859166036413E-035
  -2.6200000000000001E-002     4.7504227556034864E-035
  -2.6150000000000000E-002     1.8935901072596955E-034
  -2.6099999999999998E-002     3.3037747011411772E-034
  -2.6050000000000000E-002     4.1569661973840935E-034
  -2.6000000000000002E-002     3.8652982715354865E-034
  -2.5950000000000001E-002     2.0136987233585468E-034
  -2.5899999999999999E-002    -1.4055538667620583E-034
  -2.5849999999999998E-002    -5.8193170834856006E-034
  -2.5800000000000000E-002    -1.0053016881998995E-033
  -2.5750000000000002E-002    -1.2529286374167149E-033
  -2.5700000000000001E-002    -1.1690513410884992E-033
  -2.5649999999999999E-002    -6.5650891042289800E-034
  -2.5599999999999998E-002     2.6846950243499635E-034
  -2.5550000000000000E-002     1.4440060725329685E-033
  -2.5500000000000002E-002     2.5714100808364848E-033
  -2.5450000000000000E-002     3.2738068768749027E-033
  -2.5399999999999999E-002     3.1973997131576358E-033
  -2.5349999999999998E-002     2.1309875509446282E-033
  -2.5300000000000000E-002     1.0725523544756244E-034
  -2.5250000000000002E-002    -2.5517127958547136E-033
  -2.5200000000000000E-002    -5.2693809821768639E-033
  -2.5149999999999999E-002    -7.3305063044462851E-033
  -2.5100000000000001E-002    -8.0499862275781577E-033
  -2.5049999999999999E-002    -6.9465705170564565E-033
  -2.5000000000000001E-002    -3.8703087274954038E-033
  -2.4950000000000000E-002     9.4879985963324060E-034
  -2.4899999999999999E-002     6.9291753771910169E-033
  -2.4850000000000001E-002     1.3206909270508858E-032
  -2.4800000000000003E-002     1.8695345127424407E-032
  -2.4750000000000001E-002     2.2105156936597300E-032
  -2.4700000000000000E-002     2.1950768555073449E-032
  -2.4649999999999998E-002     1.6638122453480170E-032
  -2.4600000000000000E-002     4.7706489420854110E-033
  -2.4550000000000002E-002    -1.4220436899284283E-032
  -2.4500000000000001E-002    -3.9146680929203169E-032
  -2.4450000000000000E-002    -6.6076847943669610E-032
  -2.4399999999999998E-002    -8.7773312696301990E-032
  -2.4350000000000000E-002    -9.4164101398111105E-032
  -2.4299999999999999E-002    -7.4371478102080219E-032
  -2.4250000000000001E-002    -2.0412760170262223E-032
  -2.4199999999999999E-002     6.8005245615439766E-032
  -2.4150000000000001E-002     1.7899128436710503E-031
  -2.4100000000000000E-002     2.8629614294015857E-031
  -2.4049999999999998E-002     3.5156015968552824E-031
  -2.4000000000000000E-002     3.3231467281146805E-031
  -2.3949999999999999E-002     1.9540051800139884E-031
  -2.3900000000000001E-002    -6.6816849000054284E-032
  -2.3850000000000000E-002    -4.2228836000759521E-031
  -2.3800000000000002E-002    -7.9330644976932811E-031
  -2.3750000000000000E-002    -1.0642834914809675E-030
  -2.3699999999999999E-002    -1.1059778056584792E-030
  -2.3650000000000001E-002    -8.1390471765805660E-031
  -2.3599999999999999E-002    -1.5275770853917428E-031
  -2.3550000000000001E-002     8.0636532168000061E-031
  -2.3500000000000000E-002     1.8711342572724583E-030
  -2.3449999999999999E-002     2.7480611192832359E-030
  -2.3400000000000001E-002     3.1020930755089557E-030
  -2.3349999999999999E-002     2.6485077983750152E-030
  -2.3300000000000001E-002     1.2571138648688108E-030
  -2.3250000000000000E-002    -9.6084254478178670E-031
  -2.3199999999999998E-002    -3.6150494686674022E-030
  -2.3150000000000000E-002    -6.0723642758967912E-030
  -2.3099999999999999E-002    -7.5745303554134467E-030
  -2.3050000000000001E-002    -7.4219482299064866E-030
  -2.3000000000000000E-002    -5.1850679554267277E-030
  -2.2950000000000002E-002    -8.8932183686411066E-031
  -2.2900000000000000E-002     4.8828472446431406E-030
  -2.2849999999999999E-002     1.1015748230916619E-029
  -2.2800000000000001E-002     1.6025624142337480E-029
  -2.2749999999999999E-002     1.8348553892485718E-029
  -2.2700000000000001E-002     1.6700327295445023E-029
  -2.2650000000000000E-002     1.0436406896982576E-029
  -2.2599999999999999E-002    -1.6481307229509857E-031
  -2.2550000000000001E-002    -1.3761089959391457E-029
  -2.2499999999999999E-002    -2.7991395182535869E-029
  -2.2450000000000001E-002    -3.9725229230534473E-029
  -2.2400000000000000E-002    -4.5511392589389317E-029
  -2.2349999999999998E-002    -4.2201497619890362E-029
  -2.2300000000000000E-002    -2.7700951244911202E-029
  -2.2249999999999999E-002    -1.7661172097538737E-030
  -2.2200000000000001E-002     3.3284429816223512E-029
  -2.2150000000000000E-002     7.2138620518786557E-029
  -2.2100000000000002E-002     1.0658484070459319E-028
  -2.2050000000000000E-002     1.2637883626847798E-028
  -2.1999999999999999E-002     1.2104387566601936E-028
  -2.1950000000000001E-002     8.2558681838302664E-029
  -2.1899999999999999E-002     8.5719552945902199E-030
  -2.1850000000000001E-002    -9.4581755127319075E-029
  -2.1800000000000000E-002    -2.1008858032487324E-028
  -2.1749999999999999E-002    -3.1119523308006223E-028
  -2.1700000000000001E-002    -3.6493398471011101E-028
  -2.1649999999999999E-002    -3.3921633465631797E-028
  -2.1600000000000001E-002    -2.1246360196769725E-028
  -2.1550000000000000E-002     1.6209824931237291E-029
  -2.1499999999999998E-002     3.1919003495315854E-028
  -2.1450000000000000E-002     6.3820292825576074E-028
  -2.1399999999999999E-002     8.9047071340581198E-028
  -2.1350000000000001E-002     9.8419541341248641E-028
  -2.1299999999999999E-002     8.4183840619498589E-028
  -2.1250000000000002E-002     4.2678814003868107E-028
  -2.1200000000000000E-002    -2.3339882847127274E-028
  -2.1149999999999999E-002    -1.0350331995329213E-027
  -2.1100000000000001E-002    -1.8044040750965322E-027
  -2.1049999999999999E-002    -2.3253850778197544E-027
  -2.1000000000000001E-002    -2.3866469894776906E-027
  -2.0950000000000000E-002    -1.8404673660677809E-027
  -2.0899999999999998E-002    -6.5979923542756687E-028
  -2.0850000000000000E-002     1.0225242436426568E-027
  -2.0799999999999999E-002     2.9074520904266628E-027
  -2.0750000000000001E-002     4.5657182304551448E-027
  -2.0700000000000000E-002     5.5163790620331195E-027
  -2.0649999999999998E-002     5.3368999961746755E-027
  -2.0600000000000000E-002     3.7833966315569524E-027
  -2.0549999999999999E-002     8.9288920729230478E-028
  -2.0500000000000001E-002    -2.9613268094812620E-027
  -2.0449999999999999E-002    -7.0838672151909359E-027
  -2.0400000000000001E-002    -1.0551006926426809E-026
  -2.0350000000000000E-002    -1.2377197258092457E-026
  -2.0299999999999999E-002    -1.1730038131461226E-026
  -2.0250000000000001E-002    -8.1548525926728622E-027
  -2.0199999999999999E-002    -1.7618260124526358E-027
  -2.0150000000000001E-002     6.6711936728633273E-027
  -2.0100000000000000E-002     1.5718067467140365E-026
  -2.0049999999999998E-002     2.3466515311425339E-026
  -2.0000000000000000E-002     2.7820417220813657E-026
  -1.9949999999999999E-002     2.6912688026955729E-026
  -1.9900000000000001E-002     1.9571728566403411E-026
  -1.9850000000000000E-002     5.7601276483149310E-027
  -1.9799999999999998E-002    -1.3112549811741241E-026
  -1.9750000000000000E-002    -3.4104691227135880E-026
  -1.9699999999999999E-002    -5.2971769638151896E-026
  -1.9650000000000001E-002    -6.4756498805236721E-026
  -1.9599999999999999E-002    -6.4721292215897044E-026
  -1.9550000000000001E-002    -4.9517479671713466E-026
  -1.9500000000000000E-002    -1.8391203211554374E-026
  -1.9449999999999999E-002     2.5854653407380851E-026
  -1.9400000000000001E-002     7.6460564395069991E-026
  -1.9349999999999999E-002     1.2315739466471517E-025
  -1.9300000000000001E-002     1.5362318089675635E-025
  -1.9250000000000000E-002     1.5590187145184909E-025
  -1.9199999999999998E-002     1.2146700086617084E-025
  -1.9150000000000000E-002     4.8339642995295581E-026
  -1.9099999999999999E-002    -5.6529710563453765E-026
  -1.9050000000000001E-002    -1.7645145514045038E-025
  -1.9000000000000000E-002    -2.8642698665474961E-025
  -1.8949999999999998E-002    -3.5708521881724430E-025
  -1.8900000000000000E-002    -3.6080547378654603E-025
  -1.8849999999999999E-002    -2.7904322015799921E-025
  -1.8800000000000001E-002    -1.0929869145513665E-025
  -1.8749999999999999E-002     1.3014124816610147E-025
  -1.8700000000000001E-002     3.9945074984314259E-025
  -1.8650000000000000E-002     6.4166963198215656E-025
  -1.8599999999999998E-002     7.9239433349183845E-025
  -1.8550000000000001E-002     7.9357833699717835E-025
  -1.8499999999999999E-002     6.0897596764494195E-025
  -1.8450000000000001E-002     2.3782111953614321E-025
  -1.8400000000000000E-002    -2.7694984473733569E-025
  -1.8349999999999998E-002    -8.4905108031575298E-025
  -1.8300000000000000E-002    -1.3594634069318431E-024
  -1.8249999999999999E-002    -1.6768968244661471E-024
  -1.8200000000000001E-002    -1.6853090822752568E-024
  -1.8149999999999999E-002    -1.3135552712319590E-024
  -1.8100000000000002E-002    -5.6087290474971621E-025
  -1.8050000000000000E-002     4.8827240392311767E-025
  -1.7999999999999999E-002     1.6652491646011345E-024
  -1.7950000000000001E-002     2.7369698006602177E-024
  -1.7899999999999999E-002     3.4434958266945876E-024
  -1.7850000000000001E-002     3.5488999991642249E-024
  -1.7800000000000000E-002     2.8972073662919806E-024
  -1.7749999999999998E-002     1.4627357458321595E-024
  -1.7700000000000000E-002    -6.1668293074416607E-025
  -1.7649999999999999E-002    -3.0338694504387010E-024
  -1.7600000000000001E-002    -5.3407113179098018E-024
  -1.7550000000000000E-002    -7.0122717668468580E-024
  -1.7499999999999998E-002    -7.5412510387604389E-024
  -1.7450000000000000E-002    -6.5501573586688890E-024
  -1.7399999999999999E-002    -3.9020057877069827E-024
  -1.7350000000000001E-002     2.1398688889710860E-025
  -1.7299999999999999E-002     5.2459114071760345E-024
  -1.7250000000000001E-002     1.0311908560310312E-023
  -1.7200000000000000E-002     1.4312519084016345E-023
  -1.7149999999999999E-002     1.6118464808688669E-023
  -1.7100000000000001E-002     1.4811815497126388E-023
  -1.7049999999999999E-002     9.9406430644035826E-024
  -1.7000000000000001E-002     1.7334314604779499E-024
  -1.6950000000000000E-002    -8.7856667058161386E-024
  -1.6899999999999998E-002    -1.9832416683288410E-023
  -1.6850000000000000E-002    -2.9079156099557526E-023
  -1.6799999999999999E-002    -3.4048299266988674E-023
  -1.6750000000000001E-002    -3.2635832298454275E-023
  -1.6700000000000000E-002    -2.3675572952214430E-023
  -1.6649999999999998E-002    -7.4232372170907479E-024
  -1.6600000000000000E-002     1.4171084831416574E-023
  -1.6549999999999999E-002     3.7514925048979325E-023
  -1.6500000000000001E-002     5.7812641290180576E-023
  -1.6449999999999999E-002     6.9878222593285886E-023
  -1.6400000000000001E-002     6.9217277610200967E-023
  -1.6350000000000000E-002     5.3188476769946139E-023
  -1.6299999999999999E-002     2.1995618033246041E-023
  -1.6250000000000001E-002    -2.0751713913420305E-023
  -1.6199999999999999E-002    -6.8125127108695718E-023
  -1.6150000000000001E-002    -1.1072436530144096E-022
  -1.6100000000000000E-002    -1.3824593174615283E-022
  -1.6049999999999998E-002    -1.4156539842379896E-022
  -1.6000000000000000E-002    -1.1497166491382956E-022
  -1.5949999999999999E-002    -5.8090244817086370E-023
  -1.5900000000000001E-002     2.2983114790907965E-023
  -1.5850000000000000E-002     1.1573163338373727E-022
  -1.5799999999999998E-002     2.0265677045690757E-022
  -1.5750000000000000E-002     2.6405378885243685E-022
  -1.5699999999999999E-002     2.8177677596245833E-022
  -1.5650000000000001E-002     2.4337841057519880E-022
  -1.5599999999999999E-002     1.4582469068442784E-022
  -1.5550000000000001E-002    -2.0658818355085551E-024
  -1.5500000000000000E-002    -1.7919477022598157E-022
  -1.5449999999999998E-002    -3.5422326189453792E-022
  -1.5400000000000000E-002    -4.9011424259454718E-022
  -1.5349999999999999E-002    -5.5071226958180128E-022
  -1.5300000000000001E-002    -5.0840209287536005E-022
  -1.5250000000000000E-002    -3.5149068316730834E-022
  -1.5199999999999998E-002    -8.9756881642055620E-023
  -1.5150000000000000E-002     2.4331900021810935E-022
  -1.5099999999999999E-002     5.9275700362000660E-022
  -1.5050000000000001E-002     8.8914778154516358E-022
  -1.4999999999999999E-002     1.0601275099902098E-021
  -1.4949999999999998E-002     1.0447979203618056E-021
  -1.4900000000000000E-002     8.0872014176297590E-022
  -1.4849999999999999E-002     3.5648791000700823E-022
  -1.4800000000000001E-002    -2.6124797246182008E-022
  -1.4749999999999999E-002    -9.4894478690302048E-022
  -1.4700000000000001E-002    -1.5770040944950474E-021
  -1.4650000000000000E-002    -2.0020307101885334E-021
  -1.4599999999999998E-002    -2.0942031113906435E-021
  -1.4550000000000000E-002    -1.7674231617535790E-021
  -1.4499999999999999E-002    -1.0063868871408514E-021
  -1.4450000000000001E-002     1.1586080972472372E-022
  -1.4400000000000000E-002     1.4356216813812696E-021
  -1.4349999999999998E-002     2.7151016972913225E-021
  -1.4300000000000000E-002     3.6781031348356145E-021
  -1.4249999999999999E-002     4.0609990870747989E-021
  -1.4200000000000001E-002     3.6710533408306767E-021
  -1.4149999999999999E-002     2.4409735131322013E-021
  -1.4099999999999998E-002     4.6724029573849870E-022
  -1.4050000000000000E-002    -1.9791175123176722E-021
  -1.3999999999999999E-002    -4.4768194757429912E-021
  -1.3950000000000001E-002    -6.5150238462647714E-021
  -1.3899999999999999E-002    -7.5841638472771990E-021
  -1.3850000000000001E-002    -7.2830782360596101E-021
  -1.3800000000000000E-002    -5.4226490577921620E-021
  -1.3749999999999998E-002    -2.1034316854889797E-021
  -1.3700000000000000E-002     2.2536006363264664E-021
  -1.3649999999999999E-002     6.9377328372059267E-021
  -1.3600000000000001E-002     1.1044698654481427E-020
  -1.3550000000000000E-002     1.3629485464673392E-020
  -1.3499999999999998E-002     1.3893627867601039E-020
  -1.3450000000000000E-002     1.1374158181129986E-020
  -1.3399999999999999E-002     6.0957472663584438E-021
  -1.3350000000000001E-002    -1.3511052189509325E-021
  -1.3299999999999999E-002    -9.8338182783451713E-021
  -1.3249999999999998E-002    -1.7815290760853612E-020
  -1.3200000000000000E-002    -2.3596090332351098E-020
  -1.3149999999999998E-002    -2.5629673657017058E-020
  -1.3100000000000001E-002    -2.2859401983766576E-020
  -1.3049999999999999E-002    -1.5013560750882360E-020
  -1.3000000000000001E-002    -2.7926536240464435E-021
  -1.2950000000000000E-002     1.2106125400520182E-020
  -1.2899999999999998E-002     2.7159190979332824E-020
  -1.2850000000000000E-002     3.9380281672399486E-020
  -1.2799999999999999E-002     4.5838024284393354E-020