  -4.0000000000000001E-002     0.0000000000000000     
  -3.9949999999999999E-002     0.0000000000000000     
  -3.9899999999999998E-002     0.0000000000000000     
  -3.9850000000000003E-002     0.0000000000000000     
  -3.9800000000000002E-002     0.0000000000000000     
  -3.9750000000000001E-002     0.0000000000000000     
  -3.9699999999999999E-002     0.0000000000000000     
  -3.9649999999999998E-002     0.0000000000000000     
  -3.9600000000000003E-002     0.0000000000000000     
  -3.9550000000000002E-002     0.0000000000000000     
  -3.9500000000000000E-002     0.0000000000000000     
  -3.9449999999999999E-002     0.0000000000000000     
  -3.9399999999999998E-002     0.0000000000000000     
  -3.9350000000000003E-002     0.0000000000000000     
  -3.9300000000000002E-002     0.0000000000000000     
  -3.9250000000000000E-002     0.0000000000000000     
  -3.9199999999999999E-002     0.0000000000000000     
  -3.9150000000000004E-002     0.0000000000000000     
  -3.9100000000000003E-002     0.0000000000000000     
  -3.9050000000000001E-002     0.0000000000000000     
  -3.9000000000000000E-002     0.0000000000000000     
  -3.8949999999999999E-002     0.0000000000000000     
  -3.8900000000000004E-002     0.0000000000000000     
  -3.8850000000000003E-002     0.0000000000000000     
  -3.8800000000000001E-002     0.0000000000000000     
  -3.8750000000000000E-002     0.0000000000000000     
  -3.8699999999999998E-002     0.0000000000000000     
  -3.8650000000000004E-002     0.0000000000000000     
  -3.8600000000000002E-002     0.0000000000000000     
  -3.8550000000000001E-002     0.0000000000000000     
  -3.8500000000000000E-002     0.0000000000000000     
  -3.8449999999999998E-002     0.0000000000000000     
  -3.8400000000000004E-002     0.0000000000000000     
  -3.8350000000000002E-002     0.0000000000000000     
  -3.8300000000000001E-002     0.0000000000000000     
  -3.8249999999999999E-002     0.0000000000000000     
  -3.8199999999999998E-002     0.0000000000000000     
  -3.8150000000000003E-002     0.0000000000000000     
  -3.8100000000000002E-002     0.0000000000000000     
  -3.8050000000000000E-002     0.0000000000000000     
  -3.7999999999999999E-002     0.0000000000000000     
  -3.7949999999999998E-002     0.0000000000000000     
  -3.7900000000000003E-002     0.0000000000000000     
  -3.7850000000000002E-002     0.0000000000000000     
  -3.7800000000000000E-002     0.0000000000000000     
  -3.7749999999999999E-002     0.0000000000000000     
  -3.7699999999999997E-002     0.0000000000000000     
  -3.7650000000000003E-002     0.0000000000000000     
  -3.7600000000000001E-002     0.0000000000000000     
  -3.7550000000000000E-002     0.0000000000000000     
  -3.7499999999999999E-002     0.0000000000000000     
  -3.7449999999999997E-002     0.0000000000000000     
  -3.7400000000000003E-002     0.0000000000000000     
  -3.7350000000000001E-002     0.0000000000000000     
  -3.7300000000000000E-002     0.0000000000000000     
  -3.7249999999999998E-002     0.0000000000000000     
  -3.7200000000000004E-002     0.0000000000000000     
  -3.7150000000000002E-002     0.0000000000000000     
  -3.7100000000000001E-002     0.0000000000000000     
  -3.7050000000000000E-002     0.0000000000000000     
  -3.6999999999999998E-002     0.0000000000000000     
  -3.6950000000000004E-002     0.0000000000000000     
  -3.6900000000000002E-002     0.0000000000000000     
  -3.6850000000000001E-002     0.0000000000000000     
  -3.6799999999999999E-002     0.0000000000000000     
  -3.6749999999999998E-002     0.0000000000000000     
  -3.6700000000000003E-002     0.0000000000000000     
  -3.6650000000000002E-002     0.0000000000000000     
  -3.6600000000000001E-002     0.0000000000000000     
  -3.6549999999999999E-002     0.0000000000000000     
  -3.6499999999999998E-002     0.0000000000000000     
  -3.6450000000000003E-002     0.0000000000000000     
  -3.6400000000000002E-002     0.0000000000000000     
  -3.6350000000000000E-002     0.0000000000000000     
  -3.6299999999999999E-002     0.0000000000000000     
  -3.6249999999999998E-002     0.0000000000000000     
  -3.6200000000000003E-002     0.0000000000000000     
  -3.6150000000000002E-002     0.0000000000000000     
  -3.6100000000000000E-002     0.0000000000000000     
  -3.6049999999999999E-002     3.2750612217389481E-039
  -3.6000000000000004E-002     8.2082869749758513E-039
  -3.5950000000000003E-002     1.2105405046942777E-038
  -3.5900000000000001E-002     7.8244471277675016E-039
  -3.5850000000000000E-002    -1.1677475011888416E-038
  -3.5799999999999998E-002    -4.8841560329584211E-038
  -3.5750000000000004E-002    -1.0120588705992541E-037
  -3.5700000000000003E-002    -1.5303306199993595E-037
  -3.5650000000000001E-002    -1.9048510355624965E-037
  -3.5600000000000000E-002    -1.6582479582969429E-037
  -3.5549999999999998E-002    -1.7972656671068467E-038
  -3.5500000000000004E-002     3.0769006837352483E-037
  -3.5450000000000002E-002     8.0209247950547835E-037
  -3.5400000000000001E-002     1.3828537468467257E-036
  -3.5349999999999999E-002     1.8052906850875048E-036
  -3.5299999999999998E-002     1.7056358847449562E-036
  -3.5250000000000004E-002     6.1777017660574371E-037
  -3.5200000000000002E-002    -1.8789667158523383E-036
  -3.5150000000000001E-002    -5.8885833970993280E-036
  -3.5099999999999999E-002    -1.0820419636531768E-035
  -3.5049999999999998E-002    -1.4989480546830747E-035
  -3.5000000000000003E-002    -1.5449919433596671E-035
  -3.4950000000000002E-002    -8.4095610656773101E-036
  -3.4900000000000000E-002     9.4257581256696980E-036
  -3.4849999999999999E-002     3.8486939146184745E-035
  -3.4799999999999998E-002     7.3443977264562640E-035
  -3.4750000000000003E-002     1.0108823924707699E-034
  -3.4700000000000002E-002     1.0104486355772443E-034
  -3.4650000000000000E-002     5.1400774706810435E-035
  -3.4599999999999999E-002    -6.0023690012342722E-035
  -3.4549999999999997E-002    -2.2111099838118705E-034
  -3.4500000000000003E-002    -3.8411410117342946E-034
  -3.4450000000000001E-002    -4.6735534144195582E-034
  -3.4400000000000000E-002    -3.7904191150855605E-034
  -3.4349999999999999E-002    -6.4727324394629515E-035
  -3.4299999999999997E-002     4.3476951314827333E-034
  -3.4250000000000003E-002     9.4547919017564445E-034
  -3.4200000000000001E-002     1.1826788229804057E-033
  -3.4150000000000000E-002     8.6318627682538418E-034
  -3.4099999999999998E-002    -1.0227094876390916E-034
  -3.4049999999999997E-002    -1.4092180648336415E-033
  -3.4000000000000002E-002    -2.2847617504827442E-033
  -3.3950000000000001E-002    -1.6842206343601345E-033
  -3.3900000000000000E-002     1.1717516327151729E-033
  -3.3849999999999998E-002     6.0310754419209423E-033
  -3.3799999999999997E-002     1.0963022948493655E-032
  -3.3750000000000002E-002     1.2349360580787778E-032
  -3.3700000000000001E-002     5.9805055488156728E-033
  -3.3649999999999999E-002    -1.0672285709848939E-032
  -3.3599999999999998E-002    -3.5645124219927899E-032
  -3.3550000000000003E-002    -6.0528367913948108E-032
  -3.3500000000000002E-002    -7.1127665479232467E-032
  -3.3450000000000001E-002    -5.1963193648673812E-032
  -3.3399999999999999E-002     5.7954738291592874E-033
  -3.3349999999999998E-002     9.5703186341059016E-032
  -3.3300000000000003E-002     1.9145358240922747E-031
  -3.3250000000000002E-002     2.5122181983249424E-031
  -3.3200000000000000E-002     2.3299218352382979E-031
  -3.3149999999999999E-002     1.1721201485937314E-031
  -3.3099999999999997E-002    -7.3445175374170571E-032
  -3.3050000000000003E-002    -2.7106647398685560E-031
  -3.3000000000000002E-002    -3.8677948083192860E-031
  -3.2950000000000000E-002    -3.6074981496851348E-031
  -3.2899999999999999E-002    -2.1821356053317709E-031
  -3.2850000000000004E-002    -9.6087692896143364E-032
  -3.2800000000000003E-002    -2.0293435108330844E-031
  -3.2750000000000001E-002    -6.9674534337411753E-031
  -3.2700000000000000E-002    -1.5102082502497838E-030
  -3.2649999999999998E-002    -2.2070711505283060E-030
  -3.2600000000000004E-002    -1.9873536348626284E-030
  -3.2550000000000003E-002     5.9129850292980942E-032
  -3.2500000000000001E-002     4.4412639925781669E-030
  -3.2450000000000000E-002     1.0635906083186569E-029
  -3.2399999999999998E-002     1.6629824933660195E-029
  -3.2350000000000004E-002     1.8999444202658219E-029
  -3.2300000000000002E-002     1.3804446425370006E-029
  -3.2250000000000001E-002    -1.7130301832909781E-030
  -3.2199999999999999E-002    -2.7054195891764771E-029
  -3.2149999999999998E-002    -5.6848430839452700E-029
  -3.2100000000000004E-002    -8.0700155060250652E-029
  -3.2050000000000002E-002    -8.5251282739265066E-029
  -3.2000000000000001E-002    -5.8499401086108578E-029
  -3.1949999999999999E-002     4.5959025694182402E-030
  -3.1899999999999998E-002     9.7114260601420326E-029
  -3.1850000000000003E-002     1.9806843238983544E-028
  -3.1800000000000002E-002     2.7498536480319622E-028
  -3.1750000000000000E-002     2.9157738749474291E-028
  -3.1699999999999999E-002     2.1901397283387544E-028
  -3.1649999999999998E-002     4.7633594124222122E-029
  -3.1600000000000003E-002    -2.0475234958313305E-028
  -3.1550000000000002E-002    -4.9109474977117174E-028
  -3.1500000000000000E-002    -7.4108975926960092E-028
  -3.1449999999999999E-002    -8.7381079089904374E-028
  -3.1399999999999997E-002    -8.1426774022637155E-028
  -3.1350000000000003E-002    -5.1097326004149333E-028
  -3.1300000000000001E-002     4.7337866718784499E-029
  -3.1250000000000000E-002     8.1650855357215519E-028
  -3.1199999999999999E-002     1.6842675246206732E-027
  -3.1150000000000001E-002     2.4638425210140401E-027
  -3.1100000000000003E-002     2.9021906020711152E-027
  -3.1050000000000001E-002     2.7144608767312571E-027
  -3.1000000000000000E-002     1.6540984374465344E-027
  -3.0949999999999998E-002    -3.8299703569542308E-028
  -3.0900000000000000E-002    -3.2412442789796725E-027
  -3.0850000000000002E-002    -6.4177887230982293E-027
  -3.0800000000000001E-002    -9.0602567278593250E-027
  -3.0750000000000000E-002    -1.0097712379809828E-026
  -3.0699999999999998E-002    -8.5171456475970800E-027
  -3.0650000000000000E-002    -3.7394429109889983E-027
  -3.0600000000000002E-002     4.0135519671653008E-027
  -3.0550000000000001E-002     1.3506739769932241E-026
  -3.0499999999999999E-002     2.2565318881861596E-026
  -3.0449999999999998E-002     2.8487452536442204E-026
  -3.0400000000000000E-002     2.8725537835909611E-026
  -3.0350000000000002E-002     2.1642476487623396E-026
  -3.0300000000000001E-002     7.0872023268069723E-027
  -3.0249999999999999E-002    -1.3419906311289645E-026
  -3.0200000000000001E-002    -3.6943760586184572E-026
  -3.0150000000000000E-002    -5.9675280100313696E-026
  -3.0100000000000002E-002    -7.7444210082023893E-026
  -3.0050000000000000E-002    -8.5909967103219320E-026
  -2.9999999999999999E-002    -8.0381285752872277E-026
  -2.9950000000000001E-002    -5.5624909092553972E-026
  -2.9899999999999999E-002    -6.4000970517340292E-027
  -2.9850000000000002E-002     7.0480421517029579E-026
  -2.9800000000000000E-002     1.7224510609475490E-025
  -2.9749999999999999E-002     2.8516256090676563E-025
  -2.9700000000000001E-002     3.8055448935146623E-025
  -2.9650000000000003E-002     4.1498247254390130E-025
  -2.9600000000000001E-002     3.3773998931684963E-025
  -2.9550000000000000E-002     1.0707991243228519E-025
  -2.9499999999999998E-002    -2.8681004096477329E-025
  -2.9450000000000000E-002    -7.9842275399218994E-025
  -2.9400000000000003E-002    -1.3131557092579425E-024
  -2.9350000000000001E-002    -1.6541460263081699E-024
  -2.9300000000000000E-002    -1.6173277087504423E-024
  -2.9249999999999998E-002    -1.0341284272848229E-024
  -2.9200000000000000E-002     1.5030990661484171E-025
  -2.9150000000000002E-002     1.8068481570664851E-024
  -2.9100000000000001E-002     3.5899184611034811E-024
  -2.9049999999999999E-002     4.9699801679721000E-024
  -2.8999999999999998E-002     5.3435190691902993E-024
  -2.8950000000000000E-002     4.2091061784653241E-024
  -2.8900000000000002E-002     1.3701815630598089E-024
  -2.8850000000000001E-002    -2.8969078640256821E-024
  -2.8799999999999999E-002    -7.7776424158519323E-024
  -2.8749999999999998E-002    -1.2009066840459990E-023
  -2.8700000000000000E-002    -1.4138443562190544E-023
  -2.8650000000000002E-002    -1.2911981044147718E-023
  -2.8600000000000000E-002    -7.7027543604226945E-024
  -2.8549999999999999E-002     1.1461407361306842E-024
  -2.8500000000000001E-002     1.2186128703069578E-023
  -2.8450000000000000E-002     2.3017302346986432E-023
  -2.8400000000000002E-002     3.0740162069613841E-023
  -2.8350000000000000E-002     3.2625479928647812E-023
  -2.8299999999999999E-002     2.6849039460299676E-023
  -2.8250000000000001E-002     1.3102980136506091E-023
  -2.8200000000000003E-002    -7.0864094475929807E-024
  -2.8150000000000001E-002    -3.0435857978997765E-023
  -2.8100000000000000E-002    -5.2380372685628811E-023
  -2.8049999999999999E-002    -6.7852837034149270E-023
  -2.8000000000000001E-002    -7.2211157344133982E-023
  -2.7950000000000003E-002    -6.2143801590058954E-023
  -2.7900000000000001E-002    -3.6421041493469873E-023
  -2.7850000000000000E-002     3.5809990642663165E-024
  -2.7799999999999998E-002     5.3608770446724804E-023
  -2.7750000000000000E-002     1.0653202828983722E-022
  -2.7700000000000002E-002     1.5268170061314760E-022
  -2.7650000000000001E-002     1.8065994135143804E-022
  -2.7600000000000000E-002     1.7879738231097870E-022
  -2.7549999999999998E-002     1.3737998491768021E-022
  -2.7500000000000000E-002     5.1576019143657465E-023
  -2.7450000000000002E-002    -7.5331978094423911E-023
  -2.7400000000000001E-002    -2.2919154826462872E-022
  -2.7349999999999999E-002    -3.8379503970572581E-022
  -2.7299999999999998E-002    -5.0243196407651264E-022
  -2.7250000000000000E-002    -5.4303649768368126E-022
  -2.7200000000000002E-002    -4.6704132795758261E-022
  -2.7150000000000001E-002    -2.5094143700049969E-022
  -2.7099999999999999E-002     1.0167068400264528E-022
  -2.7049999999999998E-002     5.5086106537013278E-022
  -2.7000000000000000E-002     1.0175793960483109E-021
  -2.6950000000000002E-002     1.3905012747712267E-021
  -2.6900000000000000E-002     1.5440075480336573E-021
  -2.6849999999999999E-002     1.3662140621663599E-021
  -2.6800000000000001E-002     7.9281360780894017E-022
  -2.6749999999999999E-002    -1.6049311053437030E-022
  -2.6700000000000002E-002    -1.3761398080116359E-021
  -2.6650000000000000E-002    -2.6326131001210595E-021
  -2.6599999999999999E-002    -3.6289078648046114E-021
  -2.6550000000000001E-002    -4.0372592143358477E-021
  -2.6500000000000003E-002    -3.5788888168182565E-021
  -2.6450000000000001E-002    -2.1097791880227476E-021
  -2.6400000000000000E-002     3.0301300831096345E-022
  -2.6349999999999998E-002     3.3372232665939164E-021
  -2.6300000000000000E-002     6.4241665000938705E-021
  -2.6250000000000002E-002     8.8230972356061813E-021
  -2.6200000000000001E-002     9.7599818812675408E-021
  -2.6150000000000000E-002     8.6122056693331794E-021
  -2.6099999999999998E-002     5.1036934039462847E-021
  -2.6050000000000000E-002    -5.3707405126082606E-022
  -2.6000000000000002E-002    -7.5060152293484606E-021
  -2.5950000000000001E-002    -1.4478789674198076E-020
  -2.5899999999999999E-002    -1.9808506192529221E-020
  -2.5849999999999998E-002    -2.1848671395627068E-020
  -2.5800000000000000E-002    -1.9348332210169133E-020
  -2.5750000000000002E-002    -1.1836859231700018E-020
  -2.5700000000000001E-002     9.8198612463959090E-023
  -2.5649999999999999E-002     1.4728445870104192E-020
  -2.5599999999999998E-002     2.9353124584573086E-020
  -2.5550000000000000E-002     4.0723137732326460E-020
  -2.5500000000000002E-002     4.5664596056091573E-020
  -2.5450000000000000E-002     4.1790900097162744E-020
  -2.5399999999999999E-002     2.8157441225213546E-020
  -2.5349999999999998E-002     5.7086152273203043E-021
  -2.5300000000000000E-002    -2.2603822032615313E-020
  -2.5250000000000002E-002    -5.2093974406480673E-020
  -2.5200000000000000E-002    -7.6995338576354893E-020
  -2.5149999999999999E-002    -9.1409791563388067E-020
  -2.5100000000000001E-002    -9.0408925362617864E-020
  -2.5049999999999999E-002    -7.1112586522014016E-020
  -2.5000000000000001E-002    -3.3565490499526695E-020
  -2.4950000000000000E-002     1.8747507648232443E-020
  -2.4899999999999999E-002     7.8871779137820389E-020
  -2.4850000000000001E-002     1.3691993105585768E-019
  -2.4800000000000003E-002     1.8120488879987491E-019
  -2.4750000000000001E-002     1.9993608681721324E-019
  -2.4700000000000000E-002     1.8336016739006480E-019
  -2.4649999999999998E-002     1.2611761319311692E-019
  -2.4600000000000000E-002     2.9456572255774481E-020
  -2.4550000000000002E-002    -9.7175026702845502E-020
  -2.4500000000000001E-002    -2.3570727176771847E-019
  -2.4450000000000000E-002    -3.6070127328167231E-019
  -2.4399999999999998E-002    -4.4258905296020329E-019
  -2.4350000000000000E-002    -4.5284400301960230E-019
  -2.4299999999999999E-002    -3.7052264956625531E-019
  -2.4250000000000001E-002    -1.8907197994070712E-019
  -2.4199999999999999E-002     7.8148304099343917E-020
  -2.4150000000000001E-002     3.9535891862001092E-019
  -2.4100000000000000E-002     7.0637476330008591E-019
  -2.4049999999999998E-002     9.4194738518774700E-019
  -2.4000000000000000E-002     1.0321330863732712E-018
  -2.3949999999999999E-002     9.2203812989419191E-019
  -2.3900000000000001E-002     5.8801965325382188E-019
  -2.3850000000000000E-002     5.0572536817154698E-020
  -2.3800000000000002E-002    -6.1996413217164673E-019
  -2.3750000000000000E-002    -1.3078935882865787E-018
  -2.3699999999999999E-002    -1.8680638879022236E-018
  -2.3650000000000001E-002    -2.1519313576326771E-018
  -2.3599999999999999E-002    -2.0398641469053849E-018
  -2.3550000000000001E-002    -1.4735104054488835E-018
  -2.3500000000000000E-002    -4.8086425271013309E-019
  -2.3449999999999999E-002     8.1301092387469467E-019
  -2.3400000000000001E-002     2.1946212215667065E-018
  -2.3349999999999999E-002     3.3915339888662918E-018
  -2.3300000000000001E-002     4.1197982940615762E-018
  -2.3250000000000000E-002     4.1419363969406161E-018
  -2.3199999999999998E-002     3.3247065416475544E-018
  -2.3150000000000000E-002     1.6842941559421033E-018
  -2.3099999999999999E-002    -5.9246290183284980E-019
  -2.3050000000000001E-002    -3.1587168130295101E-018
  -2.3000000000000000E-002    -5.5523968751747385E-018
  -2.2950000000000002E-002    -7.2707047601549291E-018
  -2.2900000000000000E-002    -7.8633092385288000E-018
  -2.2849999999999999E-002    -7.0282355024479553E-018
  -2.2800000000000001E-002    -4.6921342083738520E-018
  -2.2749999999999999E-002    -1.0576451566586966E-018
  -2.2700000000000001E-002     3.3949710904253017E-018
  -2.2650000000000000E-002     7.9575942593713964E-018
  -2.2599999999999999E-002     1.1792306816684293E-017
  -2.2550000000000001E-002     1.4065851129320269E-017
  -2.2499999999999999E-002     1.4101151481303724E-017
  -2.2450000000000001E-002     1.1521881442120700E-017
  -2.2400000000000000E-002     6.3648088045116954E-018
  -2.2349999999999998E-002    -8.6287678839552872E-019
  -2.2300000000000000E-002    -9.1980935971612764E-018
  -2.2249999999999999E-002    -1.7316153634560624E-017
  -2.2200000000000001E-002    -2.3701814275329691E-017
  -2.2150000000000000E-002    -2.6881990799701531E-017
  -2.2100000000000002E-002    -2.5693003878174116E-017
  -2.2050000000000000E-002    -1.9544632941315298E-017
  -2.1999999999999999E-002    -8.6356874639948076E-018
  -2.1950000000000001E-002     5.9263419327084023E-018
  -2.1899999999999999E-002     2.2144198417254202E-017
  -2.1850000000000001E-002     3.7316639594336559E-017
  -2.1800000000000000E-002     4.8396078371083334E-017
  -2.1749999999999999E-002     5.2491285013749155E-017
  -2.1700000000000001E-002     4.7452559595278630E-017
  -2.1649999999999999E-002     3.2443736018396406E-017
  -2.1600000000000001E-002     8.3829620176066844E-018
  -2.1550000000000000E-002    -2.1868652149028314E-017
  -2.1499999999999998E-002    -5.3668044902539803E-017
  -2.1450000000000000E-002    -8.1147575037264337E-017
  -2.1399999999999999E-002    -9.8140563293038467E-017
  -2.1350000000000001E-002    -9.9360543133977621E-017
  -2.1299999999999999E-002    -8.1638898330415924E-017
  -2.1250000000000002E-002    -4.4970720363961779E-017
  -2.1200000000000000E-002     6.8908981145420398E-018
  -2.1149999999999999E-002     6.6505173044569580E-017
  -2.1100000000000001E-002     1.2358736469997451E-016
  -2.1049999999999999E-002     1.6658644248184379E-016
  -2.1000000000000001E-002     1.8479181492541227E-016
  -2.0950000000000000E-002     1.7061560492594721E-016
  -2.0899999999999998E-002     1.2160319808928103E-016
  -2.0850000000000000E-002     4.1714080808141513E-017
  -2.0799999999999999E-002    -5.8496992790246481E-017
  -2.0750000000000001E-002    -1.6298974377412875E-016
  -2.0700000000000000E-002    -2.5258701974540404E-016
  -2.0649999999999998E-002    -3.0825029104335757E-016
  -2.0600000000000000E-002    -3.1474549106868827E-016
  -2.0549999999999999E-002    -2.6402586305424024E-016
  -2.0500000000000001E-002    -1.5764547952682558E-016
  -2.0449999999999999E-002    -7.6403143218781481E-018
  -2.0400000000000001E-002     1.6444330669077234E-016
  -2.0350000000000000E-002     3.3037053698109285E-016
  -2.0299999999999999E-002     4.5954548976941573E-016
  -2.0250000000000001E-002     5.2420104093656656E-016
  -2.0199999999999999E-002     5.0461114291410802E-016
  -2.0150000000000001E-002     3.9342466819881513E-016
  -2.0100000000000000E-002     1.9831241387732153E-016
  -2.0049999999999998E-002    -5.7655796762929861E-017
  -2.0000000000000000E-002    -3.3815984365678917E-016
  -1.9949999999999999E-002    -5.9818240468209946E-016
  -1.9900000000000001E-002    -7.9047111488341139E-016
  -1.9850000000000000E-002    -8.7309057864758569E-016
  -1.9799999999999998E-002    -8.1701462958001390E-016
  -1.9750000000000000E-002    -6.1259589880929225E-016
  -1.9699999999999999E-002    -2.7378077457162303E-016
  -1.9650000000000001E-002     1.6088667638300155E-016
  -1.9599999999999999E-002     6.3109248732441791E-016
  -1.9550000000000001E-002     1.0615621268784836E-015
  -1.9500000000000000E-002     1.3724123817537836E-015
  -1.9449999999999999E-002     1.4919646058125412E-015
  -1.9400000000000001E-002     1.3703240128186805E-015
  -1.9349999999999999E-002     9.9155647323528278E-016
  -1.9300000000000001E-002     3.8208743071201208E-016
  -1.9250000000000000E-002    -3.8687875410547011E-016
  -1.9199999999999998E-002    -1.2044936887549133E-015
  -1.9150000000000000E-002    -1.9334602659822454E-015
  -1.9099999999999999E-002    -2.4303783746434626E-015
  -1.9050000000000001E-002    -2.5707776159020963E-015
  -1.9000000000000000E-002    -2.2749785402758733E-015
  -1.8949999999999998E-002    -1.5300132491515892E-015
  -1.8900000000000000E-002    -4.0270565423025377E-016
  -1.8849999999999999E-002     9.6013523417596391E-016
  -1.8800000000000001E-002     2.3466183741643346E-015
  -1.8749999999999999E-002     3.5093477104996871E-015
  -1.8700000000000001E-002     4.2062620319552685E-015
  -1.8650000000000000E-002     4.2465256084169881E-015
  -1.8599999999999998E-002     3.5332973656391510E-015
  -1.8550000000000001E-002     2.0946283039362852E-015
  -1.8499999999999999E-002     9.4871010284212894E-017
  -1.8450000000000001E-002    -2.1781836003306120E-015
  -1.8400000000000000E-002    -4.3510290817872127E-015
  -1.8349999999999998E-002    -6.0228069000831478E-015
  -1.8300000000000000E-002    -6.8355508126029225E-015
  -1.8249999999999999E-002    -6.5443092337945876E-015
  -1.8200000000000001E-002    -5.0739230012660993E-015
  -1.8149999999999999E-002    -2.5505367434953090E-015
  -1.8100000000000002E-002     7.0035569695838762E-016
  -1.8050000000000000E-002     4.1919313955069094E-015
  -1.7999999999999999E-002     7.3462197997511102E-015
  -1.7950000000000001E-002     9.5864049149740240E-015
  -1.7899999999999999E-002     1.0436535288327137E-014
  -1.7850000000000001E-002     9.6117906182845658E-015
  -1.7800000000000000E-002     7.0831737858504287E-015
  -1.7749999999999998E-002     3.1041105081901655E-015
  -1.7700000000000000E-002    -1.8077376173205646E-015
  -1.7649999999999999E-002    -6.9331079000233084E-015
  -1.7600000000000001E-002    -1.1450791572072027E-014
  -1.7550000000000000E-002    -1.4560851842742265E-014
  -1.7499999999999998E-002    -1.5613906850848169E-014
  -1.7450000000000000E-002    -1.4227333530898644E-014
  -1.7399999999999999E-002    -1.0370228302771212E-014
  -1.7350000000000001E-002    -4.4022851204464425E-015
  -1.7299999999999999E-002     2.9429260524848265E-015
  -1.7250000000000001E-002     1.0633022767359334E-014
  -1.7200000000000000E-002     1.7465342702678962E-014
  -1.7149999999999999E-002     2.2236204159868747E-014
  -1.7100000000000001E-002     2.3930824030774365E-014
  -1.7049999999999999E-002     2.1908036022211785E-014
  -1.7000000000000001E-002     1.6050645263817562E-014
  -1.6950000000000000E-002     6.8526833623485487E-015
  -1.6899999999999998E-002    -4.5801792657275991E-015
  -1.6850000000000000E-002    -1.6630877213439082E-014
  -1.6799999999999999E-002    -2.7371187289430818E-014
  -1.6750000000000001E-002    -3.4843905346783396E-014
  -1.6700000000000000E-002    -3.7391220710916298E-014
  -1.6649999999999998E-002    -3.3978895370316553E-014
  -1.6600000000000000E-002    -2.4457939110798252E-014
  -1.6549999999999999E-002    -9.7071845345071450E-015
  -1.6500000000000001E-002     8.3866883476626786E-015
  -1.6449999999999999E-002     2.7131537270442569E-014
  -1.6400000000000001E-002     4.3402829844277177E-014
  -1.6350000000000000E-002     5.4141702570630607E-014
  -1.6299999999999999E-002     5.6902243014465711E-014
  -1.6250000000000001E-002     5.0352997848546744E-014
  -1.6199999999999999E-002     3.4634630294333280E-014
  -1.6150000000000001E-002     1.1491365421163496E-014
  -1.6100000000000000E-002    -1.5872271915345109E-014
  -1.6049999999999998E-002    -4.3211280459507630E-014
  -1.6000000000000000E-002    -6.5886230926006072E-014
  -1.5949999999999999E-002    -7.9638392896274037E-014
  -1.5900000000000001E-002    -8.1364118590988157E-014
  -1.5850000000000000E-002    -6.9748573356951157E-014
  -1.5799999999999998E-002    -4.5634396527267316E-014
  -1.5750000000000000E-002    -1.2040918133771764E-014
  -1.5699999999999999E-002     2.6192406175240300E-014
  -1.5650000000000001E-002     6.3098685331491060E-014
  -1.5599999999999999E-002     9.2511111527810559E-014
  -1.5550000000000001E-002     1.0907833307046299E-013
  -1.5500000000000000E-002     1.0919968374560763E-013
  -1.5449999999999998E-002     9.1720359992486584E-014
  -1.5400000000000000E-002     5.8262082710857203E-014
  -1.5349999999999999E-002     1.3121654761236571E-014
  -1.5300000000000001E-002    -3.7261715670779634E-014
  -1.5250000000000000E-002    -8.5201676832223094E-014
  -1.5199999999999998E-002    -1.2289685681125062E-013
  -1.5150000000000000E-002    -1.4363688631385370E-013
  -1.5099999999999999E-002    -1.4290561798959437E-013
  -1.5050000000000001E-002    -1.1921657315546732E-013
  -1.4999999999999999E-002    -7.4548140884685154E-014
  -1.4949999999999998E-002    -1.4296070975586024E-014
  -1.4900000000000000E-002     5.3278892649615506E-014
  -1.4849999999999999E-002     1.1806602373799332E-013
  -1.4800000000000001E-002     1.6947690003907972E-013
  -1.4749999999999999E-002     1.9801402154609964E-013
  -1.4700000000000001E-002     1.9683240502234210E-013
  -1.4650000000000000E-002     1.6306823487370436E-013
  -1.4599999999999998E-002     9.8711814492181607E-014
  -1.4550000000000000E-002     1.0836886973368958E-014
  -1.4499999999999999E-002    -8.8933141155731293E-014
  -1.4450000000000001E-002    -1.8574136200441774E-013
  -1.4400000000000000E-002    -2.6349318548004437E-013
  -1.4349999999999998E-002    -3.0730098662353537E-013
  -1.4300000000000000E-002    -3.0603558269066469E-013
  -1.4249999999999999E-002    -2.5457139762925775E-013
  -1.4200000000000001E-002    -1.5530570126728587E-013
  -1.4149999999999999E-002    -1.8599366585675206E-014
  -1.4099999999999998E-002     1.3806680663867748E-013
  -1.4050000000000000E-002     2.9222304968826987E-013
  -1.3999999999999999E-002     4.1959756299898702E-013
  -1.3950000000000001E-002     4.9791030684967608E-013
  -1.3899999999999999E-002     5.1066624236900656E-013
  -1.3850000000000001E-002     4.5028102052542081E-013
  -1.3800000000000000E-002     3.1993519823883423E-013
  -1.3749999999999998E-002     1.3373704589443406E-013
  -1.3700000000000000E-002    -8.4947063353162159E-014
  -1.3649999999999999E-002    -3.0680889203510631E-013
  -1.3600000000000001E-002    -5.0106309388095854E-013
  -1.3550000000000000E-002    -6.4032654549153314E-013
  -1.3499999999999998E-002    -7.0507089744874018E-013
  -1.3450000000000000E-002    -6.8685242200148283E-013
  -1.3399999999999999E-002    -5.8972127686158387E-013
  -1.3350000000000001E-002    -4.2952594714605182E-013
  -1.3299999999999999E-002    -2.3120192981767004E-013
  -1.3249999999999998E-002    -2.4497340227933945E-014
  -1.3200000000000000E-002     1.6113121949603577E-013
  -1.3149999999999998E-002     3.0156653067470514E-013
  -1.3100000000000001E-002     3.8214363568576815E-013
  -1.3049999999999999E-002     4.0010849592361814E-013
  -1.3000000000000001E-002     3.6498399262947674E-013
  -1.2950000000000000E-002     2.9675281305816196E-013
  -1.2899999999999998E-002     2.2212219004597884E-013
  -1.2850000000000000E-002     1.6944014068658690E-013
  -1.2799999999999999E-002     1.6304291895426570E-013