  -4.0000000000000001E-002     0.0000000000000000     
  -3.9949999999999999E-002     0.0000000000000000     
  -3.9899999999999998E-002     0.0000000000000000     
  -3.9850000000000003E-002     0.0000000000000000     
  -3.9800000000000002E-002     0.0000000000000000     
  -3.9750000000000001E-002     0.0000000000000000     
  -3.9699999999999999E-002     0.0000000000000000     
  -3.9649999999999998E-002     0.0000000000000000     
  -3.9600000000000003E-002     0.0000000000000000     
  -3.9550000000000002E-002     0.0000000000000000     
  -3.9500000000000000E-002     0.0000000000000000     
  -3.9449999999999999E-002     0.0000000000000000     
  -3.9399999999999998E-002     0.0000000000000000     
  -3.9350000000000003E-002     0.0000000000000000     
  -3.9300000000000002E-002     0.0000000000000000     
  -3.9250000000000000E-002     0.0000000000000000     
  -3.9199999999999999E-002     0.0000000000000000     
  -3.9150000000000004E-002     0.0000000000000000     
  -3.9100000000000003E-002     0.0000000000000000     
  -3.9050000000000001E-002     0.0000000000000000     
  -3.9000000000000000E-002     0.0000000000000000     
  -3.8949999999999999E-002     0.0000000000000000     
  -3.8900000000000004E-002     0.0000000000000000     
  -3.8850000000000003E-002     0.0000000000000000     
  -3.8800000000000001E-002     0.0000000000000000     
  -3.8750000000000000E-002     0.0000000000000000     
  -3.8699999999999998E-002     0.0000000000000000     
  -3.8650000000000004E-002     0.0000000000000000     
  -3.8600000000000002E-002     0.0000000000000000     
  -3.8550000000000001E-002     0.0000000000000000     
  -3.8500000000000000E-002     0.0000000000000000     
  -3.8449999999999998E-002     0.0000000000000000     
  -3.8400000000000004E-002     0.0000000000000000     
  -3.8350000000000002E-002     0.0000000000000000     
  -3.8300000000000001E-002     0.0000000000000000     
  -3.8249999999999999E-002     0.0000000000000000     
  -3.8199999999999998E-002     0.0000000000000000     
  -3.8150000000000003E-002     0.0000000000000000     
  -3.8100000000000002E-002     0.0000000000000000     
  -3.8050000000000000E-002     0.0000000000000000     
  -3.7999999999999999E-002     0.0000000000000000     
  -3.7949999999999998E-002     0.0000000000000000     
  -3.7900000000000003E-002     0.0000000000000000     
  -3.7850000000000002E-002     0.0000000000000000     
  -3.7800000000000000E-002     0.0000000000000000     
  -3.7749999999999999E-002     0.0000000000000000     
  -3.7699999999999997E-002     0.0000000000000000     
  -3.7650000000000003E-002     0.0000000000000000     
  -3.7600000000000001E-002     0.0000000000000000     
  -3.7550000000000000E-002     0.0000000000000000     
  -3.7499999999999999E-002     0.0000000000000000     
  -3.7449999999999997E-002     0.0000000000000000     
  -3.7400000000000003E-002     0.0000000000000000     
  -3.7350000000000001E-002     0.0000000000000000     
  -3.7300000000000000E-002     0.0000000000000000     
  -3.7249999999999998E-002     0.0000000000000000     
  -3.7200000000000004E-002     0.0000000000000000     
  -3.7150000000000002E-002     0.0000000000000000     
  -3.7100000000000001E-002     0.0000000000000000     
  -3.7050000000000000E-002     0.0000000000000000     
  -3.6999999999999998E-002     0.0000000000000000     
  -3.6950000000000004E-002     0.0000000000000000     
  -3.6900000000000002E-002     0.0000000000000000     
  -3.6850000000000001E-002     0.0000000000000000     
  -3.6799999999999999E-002     0.0000000000000000     
  -3.6749999999999998E-002     0.0000000000000000     
  -3.6700000000000003E-002     0.0000000000000000     
  -3.6650000000000002E-002     0.0000000000000000     
  -3.6600000000000001E-002     0.0000000000000000     
  -3.6549999999999999E-002     0.0000000000000000     
  -3.6499999999999998E-002     0.0000000000000000     
  -3.6450000000000003E-002     0.0000000000000000     
  -3.6400000000000002E-002     0.0000000000000000     
  -3.6350000000000000E-002     0.0000000000000000     
  -3.6299999999999999E-002     0.0000000000000000     
  -3.6249999999999998E-002     0.0000000000000000     
  -3.6200000000000003E-002     0.0000000000000000     
  -3.6150000000000002E-002     0.0000000000000000     
  -3.6100000000000000E-002     0.0000000000000000     
  -3.6049999999999999E-002     0.0000000000000000     
  -3.6000000000000004E-002     0.0000000000000000     
  -3.5950000000000003E-002     0.0000000000000000     
  -3.5900000000000001E-002     0.0000000000000000     
  -3.5850000000000000E-002     0.0000000000000000     
  -3.5799999999999998E-002     0.0000000000000000     
  -3.5750000000000004E-002     0.0000000000000000     
  -3.5700000000000003E-002     0.0000000000000000     
  -3.5650000000000001E-002     0.0000000000000000     
  -3.5600000000000000E-002     0.0000000000000000     
  -3.5549999999999998E-002     0.0000000000000000     
  -3.5500000000000004E-002     0.0000000000000000     
  -3.5450000000000002E-002     0.0000000000000000     
  -3.5400000000000001E-002     0.0000000000000000     
  -3.5349999999999999E-002     0.0000000000000000     
  -3.5299999999999998E-002     0.0000000000000000     
  -3.5250000000000004E-002     0.0000000000000000     
  -3.5200000000000002E-002     0.0000000000000000     
  -3.5150000000000001E-002     0.0000000000000000     
  -3.5099999999999999E-002     0.0000000000000000     
  -3.5049999999999998E-002     0.0000000000000000     
  -3.5000000000000003E-002     0.0000000000000000     
  -3.4950000000000002E-002     0.0000000000000000     
  -3.4900000000000000E-002     0.0000000000000000     
  -3.4849999999999999E-002     0.0000000000000000     
  -3.4799999999999998E-002     0.0000000000000000     
  -3.4750000000000003E-002     0.0000000000000000     
  -3.4700000000000002E-002     0.0000000000000000     
  -3.4650000000000000E-002     0.0000000000000000     
  -3.4599999999999999E-002     0.0000000000000000     
  -3.4549999999999997E-002     0.0000000000000000     
  -3.4500000000000003E-002     0.0000000000000000     
  -3.4450000000000001E-002     0.0000000000000000     
  -3.4400000000000000E-002     0.0000000000000000     
  -3.4349999999999999E-002     0.0000000000000000     
  -3.4299999999999997E-002     0.0000000000000000     
  -3.4250000000000003E-002     0.0000000000000000     
  -3.4200000000000001E-002     0.0000000000000000     
  -3.4150000000000000E-002     0.0000000000000000     
  -3.4099999999999998E-002     0.0000000000000000     
  -3.4049999999999997E-002     0.0000000000000000     
  -3.4000000000000002E-002     0.0000000000000000     
  -3.3950000000000001E-002     0.0000000000000000     
  -3.3900000000000000E-002     0.0000000000000000     
  -3.3849999999999998E-002     0.0000000000000000     
  -3.3799999999999997E-002     0.0000000000000000     
  -3.3750000000000002E-002     0.0000000000000000     
  -3.3700000000000001E-002     0.0000000000000000     
  -3.3649999999999999E-002     0.0000000000000000     
  -3.3599999999999998E-002     0.0000000000000000     
  -3.3550000000000003E-002     0.0000000000000000     
  -3.3500000000000002E-002     0.0000000000000000     
  -3.3450000000000001E-002     0.0000000000000000     
  -3.3399999999999999E-002     0.0000000000000000     
  -3.3349999999999998E-002     0.0000000000000000     
  -3.3300000000000003E-002     0.0000000000000000     
  -3.3250000000000002E-002     0.0000000000000000     
  -3.3200000000000000E-002     0.0000000000000000     
  -3.3149999999999999E-002     0.0000000000000000     
  -3.3099999999999997E-002     0.0000000000000000     
  -3.3050000000000003E-002     0.0000000000000000     
  -3.3000000000000002E-002     0.0000000000000000     
  -3.2950000000000000E-002     0.0000000000000000     
  -3.2899999999999999E-002     0.0000000000000000     
  -3.2850000000000004E-002     0.0000000000000000     
  -3.2800000000000003E-002     0.0000000000000000     
  -3.2750000000000001E-002     0.0000000000000000     
  -3.2700000000000000E-002     0.0000000000000000     
  -3.2649999999999998E-002     0.0000000000000000     
  -3.2600000000000004E-002     0.0000000000000000     
  -3.2550000000000003E-002     0.0000000000000000     
  -3.2500000000000001E-002     0.0000000000000000     
  -3.2450000000000000E-002     0.0000000000000000     
  -3.2399999999999998E-002     0.0000000000000000     
  -3.2350000000000004E-002     0.0000000000000000     
  -3.2300000000000002E-002     0.0000000000000000     
  -3.2250000000000001E-002     0.0000000000000000     
  -3.2199999999999999E-002     0.0000000000000000     
  -3.2149999999999998E-002     0.0000000000000000     
  -3.2100000000000004E-002     0.0000000000000000     
  -3.2050000000000002E-002     0.0000000000000000     
  -3.2000000000000001E-002     0.0000000000000000     
  -3.1949999999999999E-002     0.0000000000000000     
  -3.1899999999999998E-002     0.0000000000000000     
  -3.1850000000000003E-002     0.0000000000000000     
  -3.1800000000000002E-002     0.0000000000000000     
  -3.1750000000000000E-002     0.0000000000000000     
  -3.1699999999999999E-002     0.0000000000000000     
  -3.1649999999999998E-002     0.0000000000000000     
  -3.1600000000000003E-002     0.0000000000000000     
  -3.1550000000000002E-002     0.0000000000000000     
  -3.1500000000000000E-002     0.0000000000000000     
  -3.1449999999999999E-002     0.0000000000000000     
  -3.1399999999999997E-002     0.0000000000000000     
  -3.1350000000000003E-002     0.0000000000000000     
  -3.1300000000000001E-002     0.0000000000000000     
  -3.1250000000000000E-002     0.0000000000000000     
  -3.1199999999999999E-002     0.0000000000000000     
  -3.1150000000000001E-002     0.0000000000000000     
  -3.1100000000000003E-002     0.0000000000000000     
  -3.1050000000000001E-002     0.0000000000000000     
  -3.1000000000000000E-002     0.0000000000000000     
  -3.0949999999999998E-002     0.0000000000000000     
  -3.0900000000000000E-002     0.0000000000000000     
  -3.0850000000000002E-002     0.0000000000000000     
  -3.0800000000000001E-002     0.0000000000000000     
  -3.0750000000000000E-002     0.0000000000000000     
  -3.0699999999999998E-002     0.0000000000000000     
  -3.0650000000000000E-002     0.0000000000000000     
  -3.0600000000000002E-002     0.0000000000000000     
  -3.0550000000000001E-002     0.0000000000000000     
  -3.0499999999999999E-002     0.0000000000000000     
  -3.0449999999999998E-002     0.0000000000000000     
  -3.0400000000000000E-002     0.0000000000000000     
  -3.0350000000000002E-002     0.0000000000000000     
  -3.0300000000000001E-002     0.0000000000000000     
  -3.0249999999999999E-002     0.0000000000000000     
  -3.0200000000000001E-002     0.0000000000000000     
  -3.0150000000000000E-002     0.0000000000000000     
  -3.0100000000000002E-002     0.0000000000000000     
  -3.0050000000000000E-002     0.0000000000000000     
  -2.9999999999999999E-002     0.0000000000000000     
  -2.9950000000000001E-002     0.0000000000000000     
  -2.9899999999999999E-002     0.0000000000000000     
  -2.9850000000000002E-002     0.0000000000000000     
  -2.9800000000000000E-002     0.0000000000000000     
  -2.9749999999999999E-002     0.0000000000000000     
  -2.9700000000000001E-002     0.0000000000000000     
  -2.9650000000000003E-002     0.0000000000000000     
  -2.9600000000000001E-002     0.0000000000000000     
  -2.9550000000000000E-002     0.0000000000000000     
  -2.9499999999999998E-002     0.0000000000000000     
  -2.9450000000000000E-002     0.0000000000000000     
  -2.9400000000000003E-002     0.0000000000000000     
  -2.9350000000000001E-002    -1.2042148326808728E-039
  -2.9300000000000000E-002    -2.1003500731084218E-039
  -2.9249999999999998E-002     0.0000000000000000     
  -2.9200000000000000E-002     2.8018384447552254E-039
  -2.9150000000000002E-002     2.9620890198082796E-039
  -2.9100000000000001E-002    -3.3791930430270579E-039
  -2.9049999999999999E-002    -1.4495242219111927E-038
  -2.8999999999999998E-002    -2.1800496445395980E-038
  -2.8950000000000000E-002    -1.4951305946387179E-038
  -2.8900000000000002E-002     8.8705625498649599E-039
  -2.8850000000000001E-002     5.8778927940079735E-038
  -2.8799999999999999E-002     1.0882512718314299E-037
  -2.8749999999999998E-002     1.4071827174137662E-037
  -2.8700000000000000E-002     1.0334509746817917E-037
  -2.8650000000000002E-002    -3.3433660773786018E-038
  -2.8600000000000000E-002    -2.4741985306545021E-037
  -2.8549999999999999E-002    -4.6260289990732755E-037
  -2.8500000000000001E-002    -5.7821246429573639E-037
  -2.8450000000000000E-002    -4.9929381946334012E-037
  -2.8400000000000002E-002    -1.7596844681488963E-037
  -2.8350000000000000E-002     3.8326596693507929E-037
  -2.8299999999999999E-002     1.0872519660045190E-036
  -2.8250000000000001E-002     1.7171349563036294E-036
  -2.8200000000000003E-002     1.9772094091604390E-036
  -2.8150000000000001E-002     1.5763494448260231E-036
  -2.8100000000000000E-002     3.6040011801654399E-037
  -2.8049999999999999E-002    -1.5532073287926369E-036
  -2.8000000000000001E-002    -3.7047320012711701E-036
  -2.7950000000000003E-002    -5.3675095410330293E-036
  -2.7900000000000001E-002    -5.7327881929365481E-036
  -2.7850000000000000E-002    -4.2038044351582456E-036
  -2.7799999999999998E-002    -6.9105447191991406E-037
  -2.7750000000000000E-002     4.2046712342504437E-036
  -2.7700000000000002E-002     9.2314105764375415E-036
  -2.7650000000000001E-002     1.2793995342650342E-035
  -2.7600000000000000E-002     1.3471913793480840E-035
  -2.7549999999999998E-002     1.0550918924989362E-035
  -2.7500000000000000E-002     4.3651071122631153E-036
  -2.7450000000000002E-002    -3.7745677152630711E-036
  -2.7400000000000001E-002    -1.2104068930238335E-035
  -2.7349999999999999E-002    -1.9195332723985444E-035
  -2.7299999999999998E-002    -2.4585753370151483E-035
  -2.7250000000000000E-002    -2.8779182971465682E-035
  -2.7200000000000002E-002    -3.2334757262836587E-035
  -2.7150000000000001E-002    -3.4231788550958578E-035
  -2.7099999999999999E-002    -3.0295843768114407E-035
  -2.7049999999999998E-002    -1.2923844041174404E-035
  -2.7000000000000000E-002     2.6679038870896452E-035
  -2.6950000000000002E-002     9.3290587458787514E-035
  -2.6900000000000000E-002     1.8052197364021102E-034
  -2.6849999999999999E-002     2.6451987505380372E-034
  -2.6800000000000001E-002     3.0269609384843301E-034
  -2.6749999999999999E-002     2.4157686492079021E-034
  -2.6700000000000002E-002     3.5653087524221014E-035
  -2.6650000000000000E-002    -3.2530160115612019E-034
  -2.6599999999999999E-002    -7.8857907794019179E-034
  -2.6550000000000001E-002    -1.2234027277396902E-033
  -2.6500000000000003E-002    -1.4323245912555640E-033
  -2.6450000000000001E-002    -1.1984838746184444E-033
  -2.6400000000000000E-002    -3.6682913648050547E-034
  -2.6349999999999998E-002     1.0584385998938991E-033
  -2.6300000000000000E-002     2.8335528348842001E-033
  -2.6250000000000002E-002     4.4538214395954683E-033
  -2.6200000000000001E-002     5.2275861066221389E-033
  -2.6150000000000000E-002     4.4587841009142375E-033
  -2.6099999999999998E-002     1.7129936043994437E-033
  -2.6050000000000000E-002    -2.9022572504320518E-033
  -2.6000000000000002E-002    -8.5460448193463151E-033
  -2.5950000000000001E-002    -1.3650651911588294E-032
  -2.5899999999999999E-002    -1.6200712980685709E-032
  -2.5849999999999998E-002    -1.4282960603841184E-032
  -2.5800000000000000E-002    -6.8019199660953926E-033
  -2.5750000000000002E-002     5.8409351858336656E-033
  -2.5700000000000001E-002     2.1360645546625224E-032
  -2.5649999999999999E-002     3.5725715894792775E-032
  -2.5599999999999998E-002     4.3931553325185740E-032
  -2.5550000000000000E-002     4.1330564048596762E-032
  -2.5500000000000002E-002     2.5223409252700886E-032
  -2.5450000000000000E-002    -3.7485091078173752E-033
  -2.5399999999999999E-002    -4.0909059739679786E-032
  -2.5349999999999998E-002    -7.7925121244872183E-032
  -2.5300000000000000E-002    -1.0434919540084998E-031
  -2.5250000000000002E-002    -1.1006185034244747E-031
  -2.5200000000000000E-002    -8.8033076582902038E-032
  -2.5149999999999999E-002    -3.6669614613314241E-032
  -2.5100000000000001E-002     3.8897056017197601E-032
  -2.5049999999999999E-002     1.2691969631328052E-031
  -2.5000000000000001E-002     2.1046705345259280E-031
  -2.4950000000000000E-002     2.6977179622567446E-031
  -2.4899999999999999E-002     2.8499953458695071E-031
  -2.4850000000000001E-002     2.3915975411531209E-031
  -2.4800000000000003E-002     1.2128171062689165E-031
  -2.4750000000000001E-002    -6.9715407095637972E-032
  -2.4700000000000000E-002    -3.2016890498793821E-031
  -2.4649999999999998E-002    -5.9636562260698250E-031
  -2.4600000000000000E-002    -8.4072892424457402E-031
  -2.4550000000000002E-002    -9.7294822364622965E-031
  -2.4500000000000001E-002    -9.0019039546901765E-031
  -2.4450000000000000E-002    -5.3942310628620791E-031
  -2.4399999999999998E-002     1.4864433835263617E-031
  -2.4350000000000000E-002     1.1201859577154031E-030
  -2.4299999999999999E-002     2.2160228904362094E-030
  -2.4250000000000001E-002     3.1536348097956808E-030
  -2.4199999999999999E-002     3.5601861973699709E-030
  -2.4150000000000001E-002     3.0557687670781295E-030
  -2.4100000000000000E-002     1.3809368650552086E-030
  -2.4049999999999998E-002    -1.4573804435194251E-030
  -2.4000000000000000E-002    -5.0665288420689868E-030
  -2.3949999999999999E-002    -8.6303650995585905E-030
  -2.3900000000000001E-002    -1.1001683485316698E-029
  -2.3850000000000000E-002    -1.0946291061315808E-029
  -2.3800000000000002E-002    -7.5145989961694432E-030
  -2.3750000000000000E-002    -4.6240342573166321E-031
  -2.3699999999999999E-002     9.4034548460382938E-030
  -2.3650000000000001E-002     2.0097474713445619E-029
  -2.3599999999999999E-002     2.8664144150010800E-029
  -2.3550000000000001E-002     3.1768098569827537E-029
  -2.3500000000000000E-002     2.6599635249340385E-029
  -2.3449999999999999E-002     1.1906522982591145E-029
  -2.3400000000000001E-002    -1.1133618538581279E-029
  -2.3349999999999999E-002    -3.8517323551086735E-029
  -2.3300000000000001E-002    -6.3751086429600046E-029
  -2.3250000000000000E-002    -7.9016944614769944E-029
  -2.3199999999999998E-002    -7.7039811460216743E-029
  -2.3150000000000000E-002    -5.3289816660710998E-029
  -2.3099999999999999E-002    -7.9712544850358084E-030
  -2.3050000000000001E-002     5.2807545697098417E-029
  -2.3000000000000000E-002     1.1718485904379611E-028
  -2.2950000000000002E-002     1.6925436777406642E-028
  -2.2900000000000000E-002     1.9219984738073255E-028
  -2.2849999999999999E-002     1.7233514329400451E-028
  -2.2800000000000001E-002     1.0322258281637409E-028
  -2.2749999999999999E-002    -1.1094887241847621E-029
  -2.2700000000000001E-002    -1.5464124132166472E-028
  -2.2650000000000000E-002    -3.0045738393148715E-028
  -2.2599999999999999E-002    -4.1416586273819467E-028
  -2.2550000000000001E-002    -4.5989335088216248E-028
  -2.2499999999999999E-002    -4.0784215453587936E-028
  -2.2450000000000001E-002    -2.4241881339418902E-028
  -2.2400000000000000E-002     3.0469931976470984E-029
  -2.2349999999999998E-002     3.7854637684681529E-028
  -2.2300000000000000E-002     7.4238221716180172E-028
  -2.2249999999999999E-002     1.0402314746857724E-027
  -2.2200000000000001E-002     1.1794939992966370E-027
  -2.2150000000000000E-002     1.0748084935899087E-027
  -2.2100000000000002E-002     6.7116823363473213E-028
  -2.2050000000000000E-002    -3.1607510674965397E-029
  -2.1999999999999999E-002    -9.5882805871139336E-028
  -2.1950000000000001E-002    -1.9525537102840325E-027
  -2.1899999999999999E-002    -2.7820728019381498E-027
  -2.1850000000000001E-002    -3.1780894628475007E-027
  -2.1800000000000000E-002    -2.8905378041222576E-027
  -2.1749999999999999E-002    -1.7628571414491572E-027
  -2.1700000000000001E-002     1.9225452993935783E-028
  -2.1649999999999999E-002     2.7368838967844161E-027
  -2.1600000000000001E-002     5.3951321833968688E-027
  -2.1550000000000000E-002     7.5026061992831872E-027
  -2.1499999999999998E-002     8.3255026947716695E-027
  -2.1450000000000000E-002     7.2386094344156222E-027
  -2.1399999999999999E-002     3.9306966749783925E-027
  -2.1350000000000001E-002    -1.4123591079349592E-027
  -2.1299999999999999E-002    -8.0053783579143968E-027
  -2.1250000000000002E-002    -1.4495765331351257E-026
  -2.1200000000000000E-002    -1.9159984517113471E-026
  -2.1149999999999999E-002    -2.0257270943291445E-026
  -2.1100000000000001E-002    -1.6487109133971668E-026
  -2.1049999999999999E-002    -7.4539855147503549E-027
  -2.1000000000000001E-002     5.9842059587097592E-027
  -2.0950000000000000E-002     2.1607066822908113E-026
  -2.0899999999999998E-002     3.6050560184356468E-026
  -2.0850000000000000E-002     4.5376194074003801E-026
  -2.0799999999999999E-002     4.5925933450302962E-026
  -2.0750000000000001E-002     3.5309735061717880E-026
  -2.0700000000000000E-002     1.3305748755133771E-026
  -2.0649999999999998E-002    -1.7571010825850047E-026
  -2.0600000000000000E-002    -5.2042715918533995E-026
  -2.0549999999999999E-002    -8.2705792395512877E-026
  -2.0500000000000001E-002    -1.0131489765480667E-025
  -2.0449999999999999E-002    -1.0054169782089090E-025
  -2.0400000000000001E-002    -7.5894694785315808E-026
  -2.0350000000000000E-002    -2.7392343997580856E-026
  -2.0299999999999999E-002     3.9436162266671707E-026
  -2.0250000000000001E-002     1.1357729550543645E-025
  -2.0199999999999999E-002     1.7978519441925188E-025
  -2.0150000000000001E-002     2.2103540829288353E-025
  -2.0100000000000000E-002     2.2190311871370252E-025
  -2.0049999999999998E-002     1.7234531417653140E-025
  -2.0000000000000000E-002     7.1178805392693197E-026
  -1.9949999999999999E-002    -7.1543708055725836E-026
  -1.9900000000000001E-002    -2.3401516176101948E-025
  -1.9850000000000000E-002    -3.8457137146912039E-025
  -1.9799999999999998E-002    -4.8620762903273599E-025
  -1.9750000000000000E-002    -5.0342562891710711E-025
  -1.9699999999999999E-002    -4.1054893663291516E-025
  -1.9650000000000001E-002    -2.0008043465646331E-025
  -1.9599999999999999E-002     1.1075061349820725E-025
  -1.9550000000000001E-002     4.7724932982255918E-025
  -1.9500000000000000E-002     8.3005038777610848E-025
  -1.9449999999999999E-002     1.0844037351045040E-024
  -1.9400000000000001E-002     1.1556540188840355E-024
  -1.9349999999999999E-002     9.7903814920895500E-025
  -1.9300000000000001E-002     5.3030296774942960E-025
  -1.9250000000000000E-002    -1.5759704584643043E-025
  -1.9199999999999998E-002    -9.8688881200759352E-025
  -1.9150000000000000E-002    -1.8008604475440827E-024
  -1.9099999999999999E-002    -2.4055224434529818E-024
  -1.9050000000000001E-002    -2.6060360514894274E-024
  -1.9000000000000000E-002    -2.2529196504037860E-024
  -1.8949999999999998E-002    -1.2892707489986213E-024
  -1.8900000000000000E-002     2.1231268391581914E-025
  -1.8849999999999999E-002     2.0347422262975915E-024
  -1.8800000000000001E-002     3.8324768252535269E-024
  -1.8749999999999999E-002     5.1822226148059282E-024
  -1.8700000000000001E-002     5.6642674812222336E-024
  -1.8650000000000000E-002     4.9619893699661097E-024
  -1.8599999999999998E-002     2.9598332550915310E-024
  -1.8550000000000001E-002    -1.8392894237569972E-025
  -1.8499999999999999E-002    -4.0123990086921443E-024
  -1.8450000000000001E-002    -7.8093425682025264E-024
  -1.8400000000000000E-002    -1.0706872596996264E-023
  -1.8349999999999998E-002    -1.1850737366993813E-023
  -1.8300000000000000E-002    -1.0596933981695131E-023
  -1.8249999999999999E-002    -6.7011445675100373E-024
  -1.8200000000000001E-002    -4.5682252844471689E-025
  -1.8149999999999999E-002     7.2588922350117636E-024
  -1.8100000000000002E-002     1.5059287807804259E-023
  -1.8050000000000000E-002     2.1248757992252262E-023
  -1.7999999999999999E-002     2.4130282749592474E-023
  -1.7950000000000001E-002     2.2373518785947662E-023
  -1.7899999999999999E-002     1.5376205380474535E-023
  -1.7850000000000001E-002     3.5410313921286888E-024
  -1.7800000000000000E-002    -1.1606402322047619E-023
  -1.7749999999999998E-002    -2.7513473705090154E-023
  -1.7700000000000000E-002    -4.0931653686452955E-023
  -1.7649999999999999E-002    -4.8460380522492839E-023
  -1.7600000000000001E-002    -4.7233561769587120E-023
  -1.7550000000000000E-002    -3.5636028819450592E-023
  -1.7499999999999998E-002    -1.3908329531124009E-023
  -1.7450000000000000E-002     1.5508516678300828E-023
  -1.7399999999999999E-002     4.8015159546751925E-023
  -1.7350000000000001E-002     7.7358170289872727E-023
  -1.7299999999999999E-002     9.6593081045023192E-023
  -1.7250000000000001E-002     9.9406418289156030E-023
  -1.7200000000000000E-002     8.1598804759778431E-023
  -1.7149999999999999E-002     4.2450653931031454E-023
  -1.7100000000000001E-002    -1.4348465159629114E-023
  -1.7049999999999999E-002    -8.0507568712341783E-023
  -1.7000000000000001E-002    -1.4389107781037132E-022
  -1.6950000000000000E-002    -1.9027997028549059E-022
  -1.6899999999999998E-002    -2.0598425556632409E-022
  -1.6850000000000000E-002    -1.8092928920334410E-022
  -1.6799999999999999E-002    -1.1164457291645396E-022
  -1.6750000000000001E-002    -3.4729518168205786E-024
  -1.6700000000000000E-002     1.2866469825570051E-022
  -1.6649999999999998E-002     2.6144025238622618E-022
  -1.6600000000000000E-002     3.6639160677404512E-022
  -1.6549999999999999E-002     4.1502989792963505E-022
  -1.6500000000000001E-002     3.8504154422204054E-022
  -1.6449999999999999E-002     2.6644241032351536E-022
  -1.6400000000000001E-002     6.6311850391483649E-023
  -1.6350000000000000E-002    -1.8923258025417103E-022
  -1.6299999999999999E-002    -4.5681615510750340E-022
  -1.6250000000000001E-002    -6.8170532372170485E-022
  -1.6199999999999999E-002    -8.0734502496468191E-022
  -1.6150000000000001E-002    -7.8716278661594652E-022
  -1.6100000000000000E-002    -5.9650957395613735E-022
  -1.6049999999999998E-002    -2.4217800790727300E-022
  -1.6000000000000000E-002     2.3300512270516435E-022
  -1.5949999999999999E-002     7.5240911975514132E-022
  -1.5900000000000001E-002     1.2154241758179102E-021
  -1.5850000000000000E-002     1.5141704698578941E-021
  -1.5799999999999998E-002     1.5547980700871864E-021
  -1.5750000000000000E-002     1.2797226721410997E-021
  -1.5699999999999999E-002     6.8631388822006065E-022
  -1.5650000000000001E-002    -1.6247016197900240E-022
  -1.5599999999999999E-002    -1.1391154373085110E-021
  -1.5550000000000001E-002    -2.0660799552357706E-021
  -1.5500000000000000E-002    -2.7431982848363107E-021
  -1.5449999999999998E-002    -2.9846227926575156E-021
  -1.5400000000000000E-002    -2.6594618964295242E-021
  -1.5349999999999999E-002    -1.7285283324798607E-021
  -1.5300000000000001E-002    -2.6907767083969418E-022
  -1.5250000000000000E-002     1.5195921376076525E-021
  -1.5199999999999998E-002     3.3342369708475035E-021
  -1.5150000000000000E-002     4.8100988481510977E-021
  -1.5099999999999999E-002     5.5835578298940076E-021
  -1.5050000000000001E-002     5.3660978426674685E-021
  -1.4999999999999999E-002     4.0167805448687930E-021
  -1.4949999999999998E-002     1.5983350581312918E-021
  -1.4900000000000000E-002    -1.5975559935861424E-021
  -1.4849999999999999E-002    -5.0666752303541321E-021
  -1.4800000000000001E-002    -8.1549787434107147E-021
  -1.4749999999999999E-002    -1.0163614316537787E-020
  -1.4700000000000001E-002    -1.0482905432633330E-020
  -1.4650000000000000E-002    -8.7334373982804375E-021
  -1.4599999999999998E-002    -4.8866615909975487E-021
  -1.4550000000000000E-002     6.6364591599872059E-022
  -1.4499999999999999E-002     7.1031454992860005E-021
  -1.4450000000000001E-002     1.3285447081250143E-020
  -1.4400000000000000E-002     1.7905467023368483E-020
  -1.4349999999999998E-002     1.9737644178593185E-020
  -1.4300000000000000E-002     1.7901811440566519E-020
  -1.4249999999999999E-002     1.2106673936494718E-020
  -1.4200000000000001E-002     2.8162959397267318E-021
  -1.4149999999999999E-002    -8.7089724691696260E-021
  -1.4099999999999998E-002    -2.0528282416198134E-020
  -1.4050000000000000E-002    -3.0296778995224765E-020
  -1.3999999999999999E-002    -3.5673928850265600E-020
  -1.3950000000000001E-002    -3.4802387639690346E-020
  -1.3899999999999999E-002    -2.6770663306065841E-020
  -1.3850000000000001E-002    -1.1961489840407092E-020
  -1.3800000000000000E-002     7.8051127925185860E-021
  -1.3749999999999998E-002     2.9397818656077644E-020
  -1.3700000000000000E-002     4.8787862876095432E-020
  -1.3649999999999999E-002     6.1713684271397511E-020
  -1.3600000000000001E-002     6.4501678251399339E-020
  -1.3550000000000000E-002     5.4902038168467644E-020
  -1.3499999999999998E-002     3.2772896128057852E-020
  -1.3450000000000000E-002     4.5102272180520627E-022
  -1.3399999999999999E-002    -3.7314774074450662E-020
  -1.3350000000000001E-002    -7.3922441437589023E-020
  -1.3299999999999999E-002    -1.0193279162714073E-019
  -1.3249999999999998E-002    -1.1441150969067918E-019
  -1.3200000000000000E-002    -1.0638152872887477E-019
  -1.3149999999999998E-002    -7.6115463719162867E-020
  -1.3100000000000001E-002    -2.5989054133779139E-020
  -1.3049999999999999E-002     3.7339587312217917E-020
  -1.3000000000000001E-002     1.0356337269723927E-019
  -1.2950000000000000E-002     1.6017313366267472E-019
  -1.2899999999999998E-002     1.9456037287446090E-019
  -1.2850000000000000E-002     1.9646656134278624E-019
  -1.2799999999999999E-002     1.6035552500402134E-019