  -4.0000000000000001E-002     0.0000000000000000     
  -3.9949999999999999E-002     0.0000000000000000     
  -3.9899999999999998E-002     0.0000000000000000     
  -3.9850000000000003E-002     0.0000000000000000     
  -3.9800000000000002E-002     0.0000000000000000     
  -3.9750000000000001E-002     0.0000000000000000     
  -3.9699999999999999E-002     0.0000000000000000     
  -3.9649999999999998E-002     0.0000000000000000     
  -3.9600000000000003E-002     0.0000000000000000     
  -3.9550000000000002E-002     0.0000000000000000     
  -3.9500000000000000E-002     0.0000000000000000     
  -3.9449999999999999E-002     0.0000000000000000     
  -3.9399999999999998E-002     0.0000000000000000     
  -3.9350000000000003E-002     0.0000000000000000     
  -3.9300000000000002E-002     0.0000000000000000     
  -3.9250000000000000E-002     0.0000000000000000     
  -3.9199999999999999E-002     0.0000000000000000     
  -3.9150000000000004E-002     0.0000000000000000     
  -3.9100000000000003E-002     0.0000000000000000     
  -3.9050000000000001E-002     0.0000000000000000     
  -3.9000000000000000E-002     0.0000000000000000     
  -3.8949999999999999E-002     0.0000000000000000     
  -3.8900000000000004E-002     0.0000000000000000     
  -3.8850000000000003E-002     0.0000000000000000     
  -3.8800000000000001E-002     0.0000000000000000     
  -3.8750000000000000E-002     0.0000000000000000     
  -3.8699999999999998E-002     0.0000000000000000     
  -3.8650000000000004E-002     0.0000000000000000     
  -3.8600000000000002E-002     0.0000000000000000     
  -3.8550000000000001E-002     0.0000000000000000     
  -3.8500000000000000E-002     0.0000000000000000     
  -3.8449999999999998E-002     0.0000000000000000     
  -3.8400000000000004E-002     0.0000000000000000     
  -3.8350000000000002E-002     0.0000000000000000     
  -3.8300000000000001E-002     0.0000000000000000     
  -3.8249999999999999E-002     0.0000000000000000     
  -3.8199999999999998E-002     0.0000000000000000     
  -3.8150000000000003E-002     0.0000000000000000     
  -3.8100000000000002E-002     0.0000000000000000     
  -3.8050000000000000E-002     0.0000000000000000     
  -3.7999999999999999E-002     0.0000000000000000     
  -3.7949999999999998E-002     0.0000000000000000     
  -3.7900000000000003E-002     0.0000000000000000     
  -3.7850000000000002E-002     0.0000000000000000     
  -3.7800000000000000E-002     0.0000000000000000     
  -3.7749999999999999E-002     0.0000000000000000     
  -3.7699999999999997E-002     0.0000000000000000     
  -3.7650000000000003E-002     0.0000000000000000     
  -3.7600000000000001E-002     0.0000000000000000     
  -3.7550000000000000E-002     0.0000000000000000     
  -3.7499999999999999E-002     0.0000000000000000     
  -3.7449999999999997E-002     0.0000000000000000     
  -3.7400000000000003E-002     0.0000000000000000     
  -3.7350000000000001E-002     0.0000000000000000     
  -3.7300000000000000E-002     0.0000000000000000     
  -3.7249999999999998E-002     0.0000000000000000     
  -3.7200000000000004E-002     0.0000000000000000     
  -3.7150000000000002E-002     0.0000000000000000     
  -3.7100000000000001E-002     0.0000000000000000     
  -3.7050000000000000E-002     0.0000000000000000     
  -3.6999999999999998E-002     0.0000000000000000     
  -3.6950000000000004E-002     0.0000000000000000     
  -3.6900000000000002E-002     0.0000000000000000     
  -3.6850000000000001E-002     0.0000000000000000     
  -3.6799999999999999E-002     0.0000000000000000     
  -3.6749999999999998E-002     0.0000000000000000     
  -3.6700000000000003E-002     0.0000000000000000     
  -3.6650000000000002E-002     0.0000000000000000     
  -3.6600000000000001E-002     0.0000000000000000     
  -3.6549999999999999E-002     0.0000000000000000     
  -3.6499999999999998E-002     0.0000000000000000     
  -3.6450000000000003E-002     0.0000000000000000     
  -3.6400000000000002E-002     0.0000000000000000     
  -3.6350000000000000E-002     0.0000000000000000     
  -3.6299999999999999E-002     0.0000000000000000     
  -3.6249999999999998E-002     0.0000000000000000     
  -3.6200000000000003E-002     0.0000000000000000     
  -3.6150000000000002E-002     0.0000000000000000     
  -3.6100000000000000E-002     0.0000000000000000     
  -3.6049999999999999E-002     0.0000000000000000     
  -3.6000000000000004E-002     0.0000000000000000     
  -3.5950000000000003E-002     0.0000000000000000     
  -3.5900000000000001E-002     0.0000000000000000     
  -3.5850000000000000E-002     0.0000000000000000     
  -3.5799999999999998E-002     0.0000000000000000     
  -3.5750000000000004E-002     0.0000000000000000     
  -3.5700000000000003E-002     0.0000000000000000     
  -3.5650000000000001E-002     0.0000000000000000     
  -3.5600000000000000E-002     0.0000000000000000     
  -3.5549999999999998E-002     0.0000000000000000     
  -3.5500000000000004E-002     0.0000000000000000     
  -3.5450000000000002E-002     0.0000000000000000     
  -3.5400000000000001E-002     0.0000000000000000     
  -3.5349999999999999E-002     0.0000000000000000     
  -3.5299999999999998E-002     0.0000000000000000     
  -3.5250000000000004E-002     0.0000000000000000     
  -3.5200000000000002E-002     0.0000000000000000     
  -3.5150000000000001E-002     0.0000000000000000     
  -3.5099999999999999E-002     0.0000000000000000     
  -3.5049999999999998E-002     0.0000000000000000     
  -3.5000000000000003E-002     0.0000000000000000     
  -3.4950000000000002E-002     0.0000000000000000     
  -3.4900000000000000E-002     0.0000000000000000     
  -3.4849999999999999E-002     0.0000000000000000     
  -3.4799999999999998E-002     0.0000000000000000     
  -3.4750000000000003E-002     0.0000000000000000     
  -3.4700000000000002E-002     0.0000000000000000     
  -3.4650000000000000E-002     0.0000000000000000     
  -3.4599999999999999E-002     0.0000000000000000     
  -3.4549999999999997E-002     0.0000000000000000     
  -3.4500000000000003E-002     0.0000000000000000     
  -3.4450000000000001E-002     0.0000000000000000     
  -3.4400000000000000E-002     0.0000000000000000     
  -3.4349999999999999E-002     0.0000000000000000     
  -3.4299999999999997E-002     0.0000000000000000     
  -3.4250000000000003E-002     0.0000000000000000     
  -3.4200000000000001E-002     0.0000000000000000     
  -3.4150000000000000E-002     0.0000000000000000     
  -3.4099999999999998E-002     0.0000000000000000     
  -3.4049999999999997E-002     0.0000000000000000     
  -3.4000000000000002E-002     0.0000000000000000     
  -3.3950000000000001E-002     0.0000000000000000     
  -3.3900000000000000E-002     0.0000000000000000     
  -3.3849999999999998E-002     0.0000000000000000     
  -3.3799999999999997E-002     0.0000000000000000     
  -3.3750000000000002E-002     0.0000000000000000     
  -3.3700000000000001E-002     0.0000000000000000     
  -3.3649999999999999E-002     0.0000000000000000     
  -3.3599999999999998E-002     0.0000000000000000     
  -3.3550000000000003E-002     0.0000000000000000     
  -3.3500000000000002E-002     0.0000000000000000     
  -3.3450000000000001E-002     0.0000000000000000     
  -3.3399999999999999E-002     0.0000000000000000     
  -3.3349999999999998E-002     0.0000000000000000     
  -3.3300000000000003E-002     0.0000000000000000     
  -3.3250000000000002E-002     0.0000000000000000     
  -3.3200000000000000E-002     0.0000000000000000     
  -3.3149999999999999E-002     0.0000000000000000     
  -3.3099999999999997E-002     0.0000000000000000     
  -3.3050000000000003E-002     0.0000000000000000     
  -3.3000000000000002E-002     0.0000000000000000     
  -3.2950000000000000E-002     0.0000000000000000     
  -3.2899999999999999E-002     0.0000000000000000     
  -3.2850000000000004E-002     0.0000000000000000     
  -3.2800000000000003E-002     0.0000000000000000     
  -3.2750000000000001E-002     0.0000000000000000     
  -3.2700000000000000E-002     0.0000000000000000     
  -3.2649999999999998E-002     0.0000000000000000     
  -3.2600000000000004E-002     0.0000000000000000     
  -3.2550000000000003E-002     0.0000000000000000     
  -3.2500000000000001E-002     0.0000000000000000     
  -3.2450000000000000E-002     0.0000000000000000     
  -3.2399999999999998E-002     0.0000000000000000     
  -3.2350000000000004E-002     0.0000000000000000     
  -3.2300000000000002E-002     0.0000000000000000     
  -3.2250000000000001E-002     0.0000000000000000     
  -3.2199999999999999E-002     0.0000000000000000     
  -3.2149999999999998E-002     0.0000000000000000     
  -3.2100000000000004E-002     0.0000000000000000     
  -3.2050000000000002E-002     0.0000000000000000     
  -3.2000000000000001E-002     0.0000000000000000     
  -3.1949999999999999E-002     0.0000000000000000     
  -3.1899999999999998E-002     0.0000000000000000     
  -3.1850000000000003E-002     0.0000000000000000     
  -3.1800000000000002E-002     0.0000000000000000     
  -3.1750000000000000E-002     0.0000000000000000     
  -3.1699999999999999E-002     0.0000000000000000     
  -3.1649999999999998E-002     0.0000000000000000     
  -3.1600000000000003E-002     0.0000000000000000     
  -3.1550000000000002E-002     0.0000000000000000     
  -3.1500000000000000E-002     0.0000000000000000     
  -3.1449999999999999E-002     0.0000000000000000     
  -3.1399999999999997E-002     0.0000000000000000     
  -3.1350000000000003E-002     0.0000000000000000     
  -3.1300000000000001E-002     0.0000000000000000     
  -3.1250000000000000E-002     0.0000000000000000     
  -3.1199999999999999E-002     0.0000000000000000     
  -3.1150000000000001E-002     0.0000000000000000     
  -3.1100000000000003E-002     0.0000000000000000     
  -3.1050000000000001E-002     0.0000000000000000     
  -3.1000000000000000E-002     0.0000000000000000     
  -3.0949999999999998E-002     0.0000000000000000     
  -3.0900000000000000E-002     0.0000000000000000     
  -3.0850000000000002E-002     0.0000000000000000     
  -3.0800000000000001E-002     0.0000000000000000     
  -3.0750000000000000E-002     0.0000000000000000     
  -3.0699999999999998E-002     0.0000000000000000     
  -3.0650000000000000E-002     0.0000000000000000     
  -3.0600000000000002E-002     0.0000000000000000     
  -3.0550000000000001E-002     0.0000000000000000     
  -3.0499999999999999E-002     0.0000000000000000     
  -3.0449999999999998E-002     0.0000000000000000     
  -3.0400000000000000E-002     0.0000000000000000     
  -3.0350000000000002E-002     0.0000000000000000     
  -3.0300000000000001E-002     0.0000000000000000     
  -3.0249999999999999E-002     0.0000000000000000     
  -3.0200000000000001E-002     0.0000000000000000     
  -3.0150000000000000E-002     0.0000000000000000     
  -3.0100000000000002E-002     0.0000000000000000     
  -3.0050000000000000E-002     0.0000000000000000     
  -2.9999999999999999E-002     0.0000000000000000     
  -2.9950000000000001E-002     0.0000000000000000     
  -2.9899999999999999E-002     0.0000000000000000     
  -2.9850000000000002E-002     0.0000000000000000     
  -2.9800000000000000E-002     0.0000000000000000     
  -2.9749999999999999E-002     0.0000000000000000     
  -2.9700000000000001E-002     0.0000000000000000     
  -2.9650000000000003E-002     0.0000000000000000     
  -2.9600000000000001E-002     0.0000000000000000     
  -2.9550000000000000E-002     0.0000000000000000     
  -2.9499999999999998E-002     0.0000000000000000     
  -2.9450000000000000E-002     0.0000000000000000     
  -2.9400000000000003E-002     0.0000000000000000     
  -2.9350000000000001E-002     0.0000000000000000     
  -2.9300000000000000E-002     0.0000000000000000     
  -2.9249999999999998E-002     0.0000000000000000     
  -2.9200000000000000E-002     0.0000000000000000     
  -2.9150000000000002E-002     0.0000000000000000     
  -2.9100000000000001E-002     0.0000000000000000     
  -2.9049999999999999E-002     0.0000000000000000     
  -2.8999999999999998E-002     0.0000000000000000     
  -2.8950000000000000E-002     0.0000000000000000     
  -2.8900000000000002E-002     0.0000000000000000     
  -2.8850000000000001E-002     0.0000000000000000     
  -2.8799999999999999E-002     0.0000000000000000     
  -2.8749999999999998E-002     0.0000000000000000     
  -2.8700000000000000E-002     0.0000000000000000     
  -2.8650000000000002E-002     0.0000000000000000     
  -2.8600000000000000E-002     0.0000000000000000     
  -2.8549999999999999E-002     0.0000000000000000     
  -2.8500000000000001E-002     0.0000000000000000     
  -2.8450000000000000E-002     0.0000000000000000     
  -2.8400000000000002E-002     0.0000000000000000     
  -2.8350000000000000E-002     0.0000000000000000     
  -2.8299999999999999E-002     0.0000000000000000     
  -2.8250000000000001E-002     0.0000000000000000     
  -2.8200000000000003E-002     0.0000000000000000     
  -2.8150000000000001E-002     0.0000000000000000     
  -2.8100000000000000E-002     0.0000000000000000     
  -2.8049999999999999E-002     0.0000000000000000     
  -2.8000000000000001E-002     0.0000000000000000     
  -2.7950000000000003E-002     0.0000000000000000     
  -2.7900000000000001E-002     0.0000000000000000     
  -2.7850000000000000E-002     0.0000000000000000     
  -2.7799999999999998E-002     0.0000000000000000     
  -2.7750000000000000E-002     0.0000000000000000     
  -2.7700000000000002E-002     0.0000000000000000     
  -2.7650000000000001E-002     0.0000000000000000     
  -2.7600000000000000E-002     0.0000000000000000     
  -2.7549999999999998E-002     0.0000000000000000     
  -2.7500000000000000E-002     0.0000000000000000     
  -2.7450000000000002E-002     0.0000000000000000     
  -2.7400000000000001E-002     0.0000000000000000     
  -2.7349999999999999E-002     0.0000000000000000     
  -2.7299999999999998E-002     0.0000000000000000     
  -2.7250000000000000E-002     0.0000000000000000     
  -2.7200000000000002E-002     0.0000000000000000     
  -2.7150000000000001E-002     0.0000000000000000     
  -2.7099999999999999E-002     0.0000000000000000     
  -2.7049999999999998E-002     0.0000000000000000     
  -2.7000000000000000E-002     0.0000000000000000     
  -2.6950000000000002E-002     0.0000000000000000     
  -2.6900000000000000E-002     0.0000000000000000     
  -2.6849999999999999E-002     0.0000000000000000     
  -2.6800000000000001E-002     0.0000000000000000     
  -2.6749999999999999E-002     0.0000000000000000     
  -2.6700000000000002E-002     0.0000000000000000     
  -2.6650000000000000E-002     0.0000000000000000     
  -2.6599999999999999E-002     0.0000000000000000     
  -2.6550000000000001E-002     0.0000000000000000     
  -2.6500000000000003E-002     0.0000000000000000     
  -2.6450000000000001E-002     0.0000000000000000     
  -2.6400000000000000E-002     0.0000000000000000     
  -2.6349999999999998E-002     0.0000000000000000     
  -2.6300000000000000E-002     0.0000000000000000     
  -2.6250000000000002E-002     0.0000000000000000     
  -2.6200000000000001E-002     0.0000000000000000     
  -2.6150000000000000E-002     0.0000000000000000     
  -2.6099999999999998E-002     0.0000000000000000     
  -2.6050000000000000E-002     0.0000000000000000     
  -2.6000000000000002E-002     0.0000000000000000     
  -2.5950000000000001E-002     0.0000000000000000     
  -2.5899999999999999E-002     0.0000000000000000     
  -2.5849999999999998E-002     0.0000000000000000     
  -2.5800000000000000E-002     0.0000000000000000     
  -2.5750000000000002E-002     0.0000000000000000     
  -2.5700000000000001E-002     0.0000000000000000     
  -2.5649999999999999E-002     0.0000000000000000     
  -2.5599999999999998E-002     0.0000000000000000     
  -2.5550000000000000E-002     0.0000000000000000     
  -2.5500000000000002E-002     0.0000000000000000     
  -2.5450000000000000E-002     0.0000000000000000     
  -2.5399999999999999E-002     0.0000000000000000     
  -2.5349999999999998E-002     0.0000000000000000     
  -2.5300000000000000E-002     0.0000000000000000     
  -2.5250000000000002E-002     0.0000000000000000     
  -2.5200000000000000E-002     0.0000000000000000     
  -2.5149999999999999E-002     0.0000000000000000     
  -2.5100000000000001E-002     0.0000000000000000     
  -2.5049999999999999E-002     0.0000000000000000     
  -2.5000000000000001E-002     0.0000000000000000     
  -2.4950000000000000E-002     0.0000000000000000     
  -2.4899999999999999E-002     0.0000000000000000     
  -2.4850000000000001E-002     0.0000000000000000     
  -2.4800000000000003E-002     0.0000000000000000     
  -2.4750000000000001E-002     0.0000000000000000     
  -2.4700000000000000E-002     0.0000000000000000     
  -2.4649999999999998E-002     0.0000000000000000     
  -2.4600000000000000E-002     0.0000000000000000     
  -2.4550000000000002E-002    -2.7974353591949038E-053
  -2.4500000000000001E-002    -5.0640752453020106E-053
  -2.4450000000000000E-002    -7.4140945287490352E-039
  -2.4399999999999998E-002    -1.6329269634832472E-038
  -2.4350000000000000E-002    -8.9947575750702580E-039
  -2.4299999999999999E-002    -1.0362401915911641E-051
  -2.4250000000000001E-002     8.6087481403430296E-039
  -2.4199999999999999E-002    -1.5796621287215130E-038
  -2.4150000000000001E-002    -5.8574062991487818E-038
  -2.4100000000000000E-002    -6.3792228332594787E-038
  -2.4049999999999998E-002     9.6292206896927707E-039
  -2.4000000000000000E-002     1.5002691433025099E-037
  -2.3949999999999999E-002     2.8367761077075467E-037
  -2.3900000000000001E-002     3.5778723919947190E-037
  -2.3850000000000000E-002     3.1725081959237171E-037
  -2.3800000000000002E-002     1.4311130855129902E-037
  -2.3750000000000000E-002    -1.6129231893549624E-037
  -2.3699999999999999E-002    -5.7097477025026343E-037
  -2.3650000000000001E-002    -1.0067824144490544E-036
  -2.3599999999999999E-002    -1.3583733331597678E-036
  -2.3550000000000001E-002    -1.4125482167942964E-036
  -2.3500000000000000E-002    -9.2879779800807939E-037
  -2.3449999999999999E-002     2.2790727052515983E-037
  -2.3400000000000001E-002     1.9462971483513748E-036
  -2.3349999999999999E-002     3.7689934261813103E-036
  -2.3300000000000001E-002     4.9985368273389341E-036
  -2.3250000000000000E-002     4.8965845646764328E-036
  -2.3199999999999998E-002     2.9592625484849507E-036
  -2.3150000000000000E-002    -8.3466919435649769E-037
  -2.3099999999999999E-002    -5.8670871684089935E-036
  -2.3050000000000001E-002    -1.0872184019629805E-035
  -2.3000000000000000E-002    -1.4138148047688707E-035
  -2.2950000000000002E-002    -1.3917245653648228E-035
  -2.2900000000000000E-002    -9.0194971893967293E-036
  -2.2849999999999999E-002     5.7469977546302886E-037
  -2.2800000000000001E-002     1.3305868605691232E-035
  -2.2749999999999999E-002     2.6065080287878840E-035
  -2.2700000000000001E-002     3.4808965679160557E-035
  -2.2650000000000000E-002     3.5660674034173090E-035
  -2.2599999999999999E-002     2.6206540220357265E-035
  -2.2550000000000001E-002     6.5539763518726464E-036
  -2.2499999999999999E-002    -2.0246363944627874E-035
  -2.2450000000000001E-002    -4.8615606608473517E-035
  -2.2400000000000000E-002    -7.1617596628448097E-035
  -2.2349999999999998E-002    -8.2547330836568788E-035
  -2.2300000000000000E-002    -7.6463975109743863E-035
  -2.2249999999999999E-002    -5.1245715153475154E-035
  -2.2200000000000001E-002    -7.9596901186839789E-036
  -2.2150000000000000E-002     4.9304104584104261E-035
  -2.2100000000000002E-002     1.1375755418063401E-034
  -2.2050000000000000E-002     1.7592110248972783E-034
  -2.1999999999999999E-002     2.2316628896092497E-034
  -2.1950000000000001E-002     2.3926465407774784E-034
  -2.1899999999999999E-002     2.0512582029407809E-034
  -2.1850000000000001E-002     1.0225667622449323E-034
  -2.1800000000000000E-002    -7.9994452749622026E-035
  -2.1749999999999999E-002    -3.3387857825891391E-034
  -2.1700000000000001E-002    -6.2220395149220180E-034
  -2.1649999999999999E-002    -8.7202928088623976E-034
  -2.1600000000000001E-002    -9.7946959848798319E-034
  -2.1550000000000000E-002    -8.3068825142513137E-034
  -2.1499999999999998E-002    -3.3970285923115546E-034
  -2.1450000000000000E-002     5.0346727725516308E-034
  -2.1399999999999999E-002     1.5886426696782191E-033
  -2.1350000000000001E-002     2.6651797034040714E-033
  -2.1299999999999999E-002     3.3651918070594882E-033
  -2.1250000000000002E-002     3.2816261551518162E-033
  -2.1200000000000000E-002     2.0960392862622401E-033
  -2.1149999999999999E-002    -2.7044514077439495E-034
  -2.1100000000000001E-002    -3.5291397164558580E-033
  -2.1049999999999999E-002    -6.9745228219022543E-033
  -2.1000000000000001E-002    -9.5616998689413152E-033
  -2.0950000000000000E-002    -1.0130191039380663E-032
  -2.0899999999999998E-002    -7.7482157931590772E-033
  -2.0850000000000000E-002    -2.1003160695020965E-033
  -2.0799999999999999E-002     6.1990819040561346E-033
  -2.0750000000000001E-002     1.5495011610323247E-032
  -2.0700000000000000E-002     2.3283035686999937E-032
  -2.0649999999999998E-002     2.6728573722070485E-032
  -2.0600000000000000E-002     2.3440238404356401E-032
  -2.0549999999999999E-002     1.2321187271911397E-032
  -2.0500000000000001E-002    -5.7460205249082434E-033
  -2.0449999999999999E-002    -2.7630435356271651E-032
  -2.0400000000000001E-002    -4.8275548541877937E-032
  -2.0350000000000000E-002    -6.1647073238840112E-032
  -2.0299999999999999E-002    -6.2160668607342160E-032
  -2.0250000000000001E-002    -4.6281983815648253E-032
  -2.0199999999999999E-002    -1.3897009800984730E-032
  -2.0150000000000001E-002     3.0939156747241023E-032
  -2.0100000000000000E-002     8.0147935683065796E-032
  -2.0049999999999998E-002     1.2274228322814335E-031
  -2.0000000000000000E-002     1.4676678546923270E-031
  -1.9949999999999999E-002     1.4174002136320950E-031
  -1.9900000000000001E-002     1.0118332692183019E-031
  -1.9850000000000000E-002     2.4817641575738996E-032
  -1.9799999999999998E-002    -7.9934158807697101E-032
  -1.9750000000000000E-002    -1.9744283564257922E-031
  -1.9699999999999999E-002    -3.0464991220059090E-031
  -1.9650000000000001E-002    -3.7342227605733132E-031
  -1.9599999999999999E-002    -3.7475472751515151E-031
  -1.9550000000000001E-002    -2.8490432901737605E-031
  -1.9500000000000000E-002    -9.3079054770844810E-032
  -1.9449999999999999E-002     1.9046354049094136E-031
  -1.9400000000000001E-002     5.2798838781920789E-031
  -1.9349999999999999E-002     8.5239049969529151E-031
  -1.9300000000000001E-002     1.0728637189164957E-030
  -1.9250000000000000E-002     1.0902448366097858E-030
  -1.9199999999999998E-002     8.2191400217563371E-031
  -1.9150000000000000E-002     2.3277263673667096E-031
  -1.9099999999999999E-002    -6.3491267834066359E-031
  -1.9050000000000001E-002    -1.6429009464874849E-030
  -1.9000000000000000E-002    -2.5602876701347247E-030
  -1.8949999999999998E-002    -3.0965364389172976E-030
  -1.8900000000000000E-002    -2.9653191744638026E-030
  -1.8849999999999999E-002    -1.9706154370421403E-030
  -1.8800000000000001E-002    -9.6219433674822639E-032
  -1.8749999999999999E-002     2.4278910274955367E-030
  -1.8700000000000001E-002     5.1104910811954561E-030
  -1.8650000000000000E-002     7.2566041515364024E-030
  -1.8599999999999998E-002     8.1030091281333924E-030
  -1.8550000000000001E-002     7.0149723649125025E-030
  -1.8499999999999999E-002     3.7040853252795412E-030
  -1.8450000000000001E-002    -1.5903737510986418E-030
  -1.8400000000000000E-002    -8.0187645202376365E-030
  -1.8349999999999998E-002    -1.4186558056517110E-029
  -1.8300000000000000E-002    -1.8387096995271147E-029
  -1.8249999999999999E-002    -1.8978086140787319E-029
  -1.8200000000000001E-002    -1.4832972847200353E-029
  -1.8149999999999999E-002    -5.7631314136290111E-030
  -1.8100000000000002E-002     7.2067139251128886E-030
  -1.8050000000000000E-002     2.1811833389075071E-029
  -1.7999999999999999E-002     3.4826591131285397E-029
  -1.7950000000000001E-002     4.2639779228341937E-029
  -1.7899999999999999E-002     4.2042889372616777E-029
  -1.7850000000000001E-002     3.1084510827287460E-029
  -1.7800000000000000E-002     9.8065051540604718E-030
  -1.7749999999999998E-002    -1.9323258132959741E-029
  -1.7700000000000000E-002    -5.1429512202551132E-029
  -1.7649999999999999E-002    -7.9777386091866957E-029
  -1.7600000000000001E-002    -9.6835890832390218E-029
  -1.7550000000000000E-002    -9.5745533813538236E-029
  -1.7499999999999998E-002    -7.1984999935567202E-029
  -1.7450000000000000E-002    -2.4954966210638552E-029
  -1.7399999999999999E-002     4.0854109493616371E-029
  -1.7350000000000001E-002     1.1545710674393518E-028
  -1.7299999999999999E-002     1.8403844911962486E-028
  -1.7250000000000001E-002     2.2887908181601114E-028
  -1.7200000000000000E-002     2.3253913093990041E-028
  -1.7149999999999999E-002     1.8200300499937827E-028
  -1.7100000000000001E-002     7.3149744472377454E-029
  -1.7049999999999999E-002    -8.5420179739793547E-029
  -1.7000000000000001E-002    -2.7038747654318884E-028
  -1.6950000000000000E-002    -4.4471458415239663E-028
  -1.6899999999999998E-002    -5.6245707247825196E-028
  -1.6850000000000000E-002    -5.7746883489555602E-028
  -1.6799999999999999E-002    -4.5504514764180754E-028
  -1.6750000000000001E-002    -1.8439428032340593E-028
  -1.6700000000000000E-002     2.1113410189067761E-028
  -1.6649999999999998E-002     6.6954962602510353E-028
  -1.6600000000000000E-002     1.0944857254293777E-027
  -1.6549999999999999E-002     1.3698035861187027E-027
  -1.6500000000000001E-002     1.3837386363166455E-027
  -1.6449999999999999E-002     1.0589330828117017E-027
  -1.6400000000000001E-002     3.8203217765331094E-028
  -1.6350000000000000E-002    -5.7513989158698702E-028
  -1.6299999999999999E-002    -1.6507104105305943E-027
  -1.6250000000000001E-002    -2.6097997319905677E-027
  -1.6199999999999999E-002    -3.1847039083198480E-027
  -1.6150000000000001E-002    -3.1336679623321321E-027
  -1.6100000000000000E-002    -2.3077630580737070E-027
  -1.6049999999999998E-002    -7.1083951346698877E-028
  -1.6000000000000000E-002     1.4641260939607567E-027
  -1.5949999999999999E-002     3.8367117783806675E-027
  -1.5900000000000001E-002     5.8868328429672813E-027
  -1.5850000000000000E-002     7.0470777207967467E-027
  -1.5799999999999998E-002     6.8269753907173279E-027
  -1.5750000000000000E-002     4.9464457093969441E-027
  -1.5699999999999999E-002     1.4490626034326863E-027
  -1.5650000000000001E-002    -3.2352098905437753E-027
  -1.5599999999999999E-002    -8.3024541292381699E-027
  -1.5550000000000001E-002    -1.2674903629171309E-026
  -1.5500000000000000E-002    -1.5184280906378534E-026
  -1.5449999999999998E-002    -1.4815039683399365E-026
  -1.5400000000000000E-002    -1.0966821296309619E-026
  -1.5349999999999999E-002    -3.6833488005885179E-027
  -1.5300000000000001E-002     6.2087522028194777E-027
  -1.5250000000000000E-002     1.7100832171375058E-026
  -1.5199999999999998E-002     2.6774262026903657E-026
  -1.5150000000000000E-002     3.2746636752299732E-026
  -1.5099999999999999E-002     3.2759376803204301E-026
  -1.5050000000000001E-002     2.5336074764140124E-026
  -1.4999999999999999E-002     1.0307766415264403E-026
  -1.4949999999999998E-002    -1.0819053837667989E-026
  -1.4900000000000000E-002    -3.4774913947610307E-026
  -1.4849999999999999E-002    -5.6815154697054376E-026
  -1.4800000000000001E-002    -7.1419457435618727E-026
  -1.4749999999999999E-002    -7.3355197803856032E-026
  -1.4700000000000001E-002    -5.8958331402223585E-026
  -1.4650000000000000E-002    -2.7392027054779841E-026
  -1.4599999999999998E-002     1.8419730630405588E-026
  -1.4550000000000000E-002     7.1494338490163994E-026
  -1.4499999999999999E-002     1.2137278814174151E-025
  -1.4450000000000001E-002     1.5567966797099342E-025
  -1.4400000000000000E-002     1.6254675586408607E-025
  -1.4349999999999998E-002     1.3354276063346962E-025
  -1.4300000000000000E-002     6.6532524572899063E-026
  -1.4249999999999999E-002    -3.2244256572929421E-026
  -1.4200000000000001E-002    -1.4757531231449452E-025
  -1.4149999999999999E-002    -2.5667237579751108E-025
  -1.4099999999999998E-002    -3.3271333103069332E-025
  -1.4050000000000000E-002    -3.5019434387226270E-025
  -1.3999999999999999E-002    -2.9123517716714826E-025
  -1.3950000000000001E-002    -1.5155171121210897E-025
  -1.3899999999999999E-002     5.5403581906109521E-026
  -1.3850000000000001E-002     2.9752855907755656E-025
  -1.3800000000000000E-002     5.2731675972815533E-025
  -1.3749999999999998E-002     6.8940700411104082E-025
  -1.3700000000000000E-002     7.3160218133355087E-025
  -1.3649999999999999E-002     6.1753523155925358E-025
  -1.3600000000000001E-002     3.3840671616582004E-025
  -1.3550000000000000E-002    -7.9087368884148472E-026
  -1.3499999999999998E-002    -5.7122398417516996E-025
  -1.3450000000000000E-002    -1.0437630863193102E-024
  -1.3399999999999999E-002    -1.3866574420407241E-024
  -1.3350000000000001E-002    -1.4953229341962499E-024
  -1.3299999999999999E-002    -1.2950570774614956E-024
  -1.3249999999999998E-002    -7.6384498028331463E-025
  -1.3200000000000000E-002     5.1775722710751254E-026
  -1.3149999999999998E-002     1.0326461477188325E-024
  -1.3100000000000001E-002     1.9979703714393438E-024
  -1.3049999999999999E-002     2.7320078933453911E-024
  -1.3000000000000001E-002     3.0239007666722865E-024
  -1.2950000000000000E-002     2.7147342538798082E-024
  -1.2899999999999998E-002     1.7431835569915099E-024
  -1.2850000000000000E-002     1.7961221261111652E-025
  -1.2799999999999999E-002    -1.7611620544331913E-024