  -4.0000000000000001E-002     0.0000000000000000     
  -3.9949999999999999E-002     0.0000000000000000     
  -3.9899999999999998E-002     0.0000000000000000     
  -3.9850000000000003E-002     0.0000000000000000     
  -3.9800000000000002E-002     0.0000000000000000     
  -3.9750000000000001E-002     0.0000000000000000     
  -3.9699999999999999E-002     0.0000000000000000     
  -3.9649999999999998E-002     0.0000000000000000     
  -3.9600000000000003E-002     0.0000000000000000     
  -3.9550000000000002E-002     0.0000000000000000     
  -3.9500000000000000E-002     0.0000000000000000     
  -3.9449999999999999E-002     0.0000000000000000     
  -3.9399999999999998E-002     0.0000000000000000     
  -3.9350000000000003E-002     0.0000000000000000     
  -3.9300000000000002E-002     0.0000000000000000     
  -3.9250000000000000E-002     0.0000000000000000     
  -3.9199999999999999E-002     0.0000000000000000     
  -3.9150000000000004E-002     0.0000000000000000     
  -3.9100000000000003E-002     0.0000000000000000     
  -3.9050000000000001E-002     0.0000000000000000     
  -3.9000000000000000E-002     0.0000000000000000     
  -3.8949999999999999E-002     0.0000000000000000     
  -3.8900000000000004E-002     0.0000000000000000     
  -3.8850000000000003E-002     0.0000000000000000     
  -3.8800000000000001E-002     0.0000000000000000     
  -3.8750000000000000E-002     0.0000000000000000     
  -3.8699999999999998E-002     0.0000000000000000     
  -3.8650000000000004E-002     0.0000000000000000     
  -3.8600000000000002E-002     0.0000000000000000     
  -3.8550000000000001E-002     0.0000000000000000     
  -3.8500000000000000E-002     0.0000000000000000     
  -3.8449999999999998E-002     0.0000000000000000     
  -3.8400000000000004E-002     0.0000000000000000     
  -3.8350000000000002E-002     0.0000000000000000     
  -3.8300000000000001E-002     0.0000000000000000     
  -3.8249999999999999E-002     0.0000000000000000     
  -3.8199999999999998E-002     0.0000000000000000     
  -3.8150000000000003E-002     0.0000000000000000     
  -3.8100000000000002E-002     0.0000000000000000     
  -3.8050000000000000E-002     0.0000000000000000     
  -3.7999999999999999E-002     0.0000000000000000     
  -3.7949999999999998E-002     0.0000000000000000     
  -3.7900000000000003E-002     0.0000000000000000     
  -3.7850000000000002E-002     0.0000000000000000     
  -3.7800000000000000E-002     0.0000000000000000     
  -3.7749999999999999E-002     0.0000000000000000     
  -3.7699999999999997E-002     0.0000000000000000     
  -3.7650000000000003E-002     0.0000000000000000     
  -3.7600000000000001E-002     0.0000000000000000     
  -3.7550000000000000E-002     0.0000000000000000     
  -3.7499999999999999E-002     0.0000000000000000     
  -3.7449999999999997E-002     0.0000000000000000     
  -3.7400000000000003E-002     0.0000000000000000     
  -3.7350000000000001E-002     0.0000000000000000     
  -3.7300000000000000E-002     0.0000000000000000     
  -3.7249999999999998E-002     0.0000000000000000     
  -3.7200000000000004E-002     0.0000000000000000     
  -3.7150000000000002E-002     0.0000000000000000     
  -3.7100000000000001E-002     0.0000000000000000     
  -3.7050000000000000E-002     0.0000000000000000     
  -3.6999999999999998E-002     0.0000000000000000     
  -3.6950000000000004E-002     0.0000000000000000     
  -3.6900000000000002E-002     0.0000000000000000     
  -3.6850000000000001E-002     0.0000000000000000     
  -3.6799999999999999E-002     0.0000000000000000     
  -3.6749999999999998E-002     0.0000000000000000     
  -3.6700000000000003E-002     0.0000000000000000     
  -3.6650000000000002E-002     0.0000000000000000     
  -3.6600000000000001E-002     0.0000000000000000     
  -3.6549999999999999E-002     0.0000000000000000     
  -3.6499999999999998E-002     0.0000000000000000     
  -3.6450000000000003E-002     0.0000000000000000     
  -3.6400000000000002E-002     0.0000000000000000     
  -3.6350000000000000E-002     0.0000000000000000     
  -3.6299999999999999E-002     0.0000000000000000     
  -3.6249999999999998E-002     0.0000000000000000     
  -3.6200000000000003E-002     0.0000000000000000     
  -3.6150000000000002E-002     0.0000000000000000     
  -3.6100000000000000E-002     0.0000000000000000     
  -3.6049999999999999E-002     0.0000000000000000     
  -3.6000000000000004E-002     0.0000000000000000     
  -3.5950000000000003E-002     0.0000000000000000     
  -3.5900000000000001E-002     0.0000000000000000     
  -3.5850000000000000E-002     0.0000000000000000     
  -3.5799999999999998E-002     0.0000000000000000     
  -3.5750000000000004E-002     0.0000000000000000     
  -3.5700000000000003E-002     0.0000000000000000     
  -3.5650000000000001E-002     0.0000000000000000     
  -3.5600000000000000E-002     0.0000000000000000     
  -3.5549999999999998E-002     0.0000000000000000     
  -3.5500000000000004E-002     0.0000000000000000     
  -3.5450000000000002E-002     0.0000000000000000     
  -3.5400000000000001E-002     0.0000000000000000     
  -3.5349999999999999E-002     0.0000000000000000     
  -3.5299999999999998E-002     0.0000000000000000     
  -3.5250000000000004E-002     0.0000000000000000     
  -3.5200000000000002E-002     0.0000000000000000     
  -3.5150000000000001E-002     0.0000000000000000     
  -3.5099999999999999E-002     0.0000000000000000     
  -3.5049999999999998E-002     0.0000000000000000     
  -3.5000000000000003E-002     0.0000000000000000     
  -3.4950000000000002E-002     0.0000000000000000     
  -3.4900000000000000E-002     0.0000000000000000     
  -3.4849999999999999E-002     0.0000000000000000     
  -3.4799999999999998E-002     0.0000000000000000     
  -3.4750000000000003E-002     0.0000000000000000     
  -3.4700000000000002E-002     0.0000000000000000     
  -3.4650000000000000E-002     0.0000000000000000     
  -3.4599999999999999E-002     0.0000000000000000     
  -3.4549999999999997E-002     0.0000000000000000     
  -3.4500000000000003E-002     0.0000000000000000     
  -3.4450000000000001E-002     0.0000000000000000     
  -3.4400000000000000E-002     0.0000000000000000     
  -3.4349999999999999E-002     0.0000000000000000     
  -3.4299999999999997E-002     0.0000000000000000     
  -3.4250000000000003E-002     0.0000000000000000     
  -3.4200000000000001E-002     0.0000000000000000     
  -3.4150000000000000E-002     0.0000000000000000     
  -3.4099999999999998E-002     0.0000000000000000     
  -3.4049999999999997E-002     0.0000000000000000     
  -3.4000000000000002E-002     0.0000000000000000     
  -3.3950000000000001E-002     0.0000000000000000     
  -3.3900000000000000E-002     0.0000000000000000     
  -3.3849999999999998E-002     0.0000000000000000     
  -3.3799999999999997E-002     0.0000000000000000     
  -3.3750000000000002E-002     0.0000000000000000     
  -3.3700000000000001E-002     0.0000000000000000     
  -3.3649999999999999E-002     0.0000000000000000     
  -3.3599999999999998E-002     0.0000000000000000     
  -3.3550000000000003E-002     0.0000000000000000     
  -3.3500000000000002E-002     0.0000000000000000     
  -3.3450000000000001E-002     0.0000000000000000     
  -3.3399999999999999E-002     0.0000000000000000     
  -3.3349999999999998E-002     0.0000000000000000     
  -3.3300000000000003E-002     0.0000000000000000     
  -3.3250000000000002E-002     0.0000000000000000     
  -3.3200000000000000E-002     0.0000000000000000     
  -3.3149999999999999E-002     0.0000000000000000     
  -3.3099999999999997E-002     0.0000000000000000     
  -3.3050000000000003E-002     0.0000000000000000     
  -3.3000000000000002E-002     0.0000000000000000     
  -3.2950000000000000E-002     0.0000000000000000     
  -3.2899999999999999E-002     0.0000000000000000     
  -3.2850000000000004E-002     0.0000000000000000     
  -3.2800000000000003E-002     0.0000000000000000     
  -3.2750000000000001E-002     0.0000000000000000     
  -3.2700000000000000E-002     0.0000000000000000     
  -3.2649999999999998E-002     0.0000000000000000     
  -3.2600000000000004E-002     0.0000000000000000     
  -3.2550000000000003E-002     0.0000000000000000     
  -3.2500000000000001E-002     0.0000000000000000     
  -3.2450000000000000E-002     0.0000000000000000     
  -3.2399999999999998E-002     0.0000000000000000     
  -3.2350000000000004E-002     0.0000000000000000     
  -3.2300000000000002E-002     0.0000000000000000     
  -3.2250000000000001E-002     0.0000000000000000     
  -3.2199999999999999E-002     0.0000000000000000     
  -3.2149999999999998E-002     0.0000000000000000     
  -3.2100000000000004E-002     0.0000000000000000     
  -3.2050000000000002E-002     0.0000000000000000     
  -3.2000000000000001E-002     0.0000000000000000     
  -3.1949999999999999E-002     0.0000000000000000     
  -3.1899999999999998E-002     0.0000000000000000     
  -3.1850000000000003E-002     0.0000000000000000     
  -3.1800000000000002E-002     0.0000000000000000     
  -3.1750000000000000E-002     0.0000000000000000     
  -3.1699999999999999E-002     0.0000000000000000     
  -3.1649999999999998E-002     0.0000000000000000     
  -3.1600000000000003E-002     0.0000000000000000     
  -3.1550000000000002E-002     0.0000000000000000     
  -3.1500000000000000E-002     0.0000000000000000     
  -3.1449999999999999E-002     0.0000000000000000     
  -3.1399999999999997E-002     0.0000000000000000     
  -3.1350000000000003E-002     0.0000000000000000     
  -3.1300000000000001E-002     0.0000000000000000     
  -3.1250000000000000E-002     0.0000000000000000     
  -3.1199999999999999E-002     0.0000000000000000     
  -3.1150000000000001E-002     0.0000000000000000     
  -3.1100000000000003E-002     0.0000000000000000     
  -3.1050000000000001E-002     0.0000000000000000     
  -3.1000000000000000E-002     0.0000000000000000     
  -3.0949999999999998E-002     0.0000000000000000     
  -3.0900000000000000E-002     0.0000000000000000     
  -3.0850000000000002E-002     0.0000000000000000     
  -3.0800000000000001E-002     0.0000000000000000     
  -3.0750000000000000E-002     0.0000000000000000     
  -3.0699999999999998E-002     0.0000000000000000     
  -3.0650000000000000E-002     0.0000000000000000     
  -3.0600000000000002E-002     0.0000000000000000     
  -3.0550000000000001E-002     0.0000000000000000     
  -3.0499999999999999E-002     0.0000000000000000     
  -3.0449999999999998E-002     0.0000000000000000     
  -3.0400000000000000E-002     0.0000000000000000     
  -3.0350000000000002E-002     0.0000000000000000     
  -3.0300000000000001E-002     0.0000000000000000     
  -3.0249999999999999E-002     0.0000000000000000     
  -3.0200000000000001E-002     0.0000000000000000     
  -3.0150000000000000E-002     0.0000000000000000     
  -3.0100000000000002E-002     0.0000000000000000     
  -3.0050000000000000E-002     0.0000000000000000     
  -2.9999999999999999E-002     0.0000000000000000     
  -2.9950000000000001E-002     0.0000000000000000     
  -2.9899999999999999E-002     0.0000000000000000     
  -2.9850000000000002E-002     0.0000000000000000     
  -2.9800000000000000E-002     0.0000000000000000     
  -2.9749999999999999E-002     0.0000000000000000     
  -2.9700000000000001E-002     0.0000000000000000     
  -2.9650000000000003E-002     0.0000000000000000     
  -2.9600000000000001E-002     0.0000000000000000     
  -2.9550000000000000E-002     0.0000000000000000     
  -2.9499999999999998E-002     0.0000000000000000     
  -2.9450000000000000E-002     0.0000000000000000     
  -2.9400000000000003E-002     0.0000000000000000     
  -2.9350000000000001E-002     0.0000000000000000     
  -2.9300000000000000E-002     0.0000000000000000     
  -2.9249999999999998E-002     0.0000000000000000     
  -2.9200000000000000E-002     0.0000000000000000     
  -2.9150000000000002E-002     0.0000000000000000     
  -2.9100000000000001E-002     0.0000000000000000     
  -2.9049999999999999E-002     0.0000000000000000     
  -2.8999999999999998E-002     0.0000000000000000     
  -2.8950000000000000E-002     0.0000000000000000     
  -2.8900000000000002E-002     0.0000000000000000     
  -2.8850000000000001E-002     0.0000000000000000     
  -2.8799999999999999E-002     0.0000000000000000     
  -2.8749999999999998E-002     0.0000000000000000     
  -2.8700000000000000E-002     0.0000000000000000     
  -2.8650000000000002E-002     0.0000000000000000     
  -2.8600000000000000E-002     0.0000000000000000     
  -2.8549999999999999E-002     0.0000000000000000     
  -2.8500000000000001E-002     0.0000000000000000     
  -2.8450000000000000E-002     0.0000000000000000     
  -2.8400000000000002E-002     0.0000000000000000     
  -2.8350000000000000E-002     0.0000000000000000     
  -2.8299999999999999E-002     0.0000000000000000     
  -2.8250000000000001E-002     0.0000000000000000     
  -2.8200000000000003E-002     0.0000000000000000     
  -2.8150000000000001E-002     0.0000000000000000     
  -2.8100000000000000E-002     0.0000000000000000     
  -2.8049999999999999E-002     0.0000000000000000     
  -2.8000000000000001E-002     0.0000000000000000     
  -2.7950000000000003E-002     0.0000000000000000     
  -2.7900000000000001E-002     0.0000000000000000     
  -2.7850000000000000E-002     0.0000000000000000     
  -2.7799999999999998E-002     0.0000000000000000     
  -2.7750000000000000E-002     0.0000000000000000     
  -2.7700000000000002E-002     0.0000000000000000     
  -2.7650000000000001E-002     0.0000000000000000     
  -2.7600000000000000E-002     0.0000000000000000     
  -2.7549999999999998E-002     0.0000000000000000     
  -2.7500000000000000E-002     0.0000000000000000     
  -2.7450000000000002E-002     0.0000000000000000     
  -2.7400000000000001E-002     0.0000000000000000     
  -2.7349999999999999E-002     0.0000000000000000     
  -2.7299999999999998E-002     0.0000000000000000     
  -2.7250000000000000E-002     0.0000000000000000     
  -2.7200000000000002E-002     0.0000000000000000     
  -2.7150000000000001E-002     0.0000000000000000     
  -2.7099999999999999E-002     0.0000000000000000     
  -2.7049999999999998E-002     0.0000000000000000     
  -2.7000000000000000E-002     0.0000000000000000     
  -2.6950000000000002E-002     0.0000000000000000     
  -2.6900000000000000E-002     0.0000000000000000     
  -2.6849999999999999E-002     0.0000000000000000     
  -2.6800000000000001E-002     0.0000000000000000     
  -2.6749999999999999E-002     0.0000000000000000     
  -2.6700000000000002E-002     0.0000000000000000     
  -2.6650000000000000E-002     0.0000000000000000     
  -2.6599999999999999E-002     0.0000000000000000     
  -2.6550000000000001E-002     0.0000000000000000     
  -2.6500000000000003E-002     0.0000000000000000     
  -2.6450000000000001E-002     0.0000000000000000     
  -2.6400000000000000E-002     0.0000000000000000     
  -2.6349999999999998E-002     0.0000000000000000     
  -2.6300000000000000E-002     0.0000000000000000     
  -2.6250000000000002E-002     0.0000000000000000     
  -2.6200000000000001E-002     0.0000000000000000     
  -2.6150000000000000E-002     0.0000000000000000     
  -2.6099999999999998E-002     0.0000000000000000     
  -2.6050000000000000E-002     0.0000000000000000     
  -2.6000000000000002E-002     0.0000000000000000     
  -2.5950000000000001E-002     0.0000000000000000     
  -2.5899999999999999E-002     0.0000000000000000     
  -2.5849999999999998E-002     0.0000000000000000     
  -2.5800000000000000E-002     0.0000000000000000     
  -2.5750000000000002E-002     0.0000000000000000     
  -2.5700000000000001E-002     0.0000000000000000     
  -2.5649999999999999E-002     0.0000000000000000     
  -2.5599999999999998E-002     0.0000000000000000     
  -2.5550000000000000E-002     0.0000000000000000     
  -2.5500000000000002E-002     0.0000000000000000     
  -2.5450000000000000E-002     0.0000000000000000     
  -2.5399999999999999E-002     0.0000000000000000     
  -2.5349999999999998E-002     0.0000000000000000     
  -2.5300000000000000E-002     0.0000000000000000     
  -2.5250000000000002E-002     0.0000000000000000     
  -2.5200000000000000E-002     0.0000000000000000     
  -2.5149999999999999E-002     0.0000000000000000     
  -2.5100000000000001E-002     0.0000000000000000     
  -2.5049999999999999E-002     0.0000000000000000     
  -2.5000000000000001E-002     0.0000000000000000     
  -2.4950000000000000E-002     0.0000000000000000     
  -2.4899999999999999E-002     0.0000000000000000     
  -2.4850000000000001E-002     0.0000000000000000     
  -2.4800000000000003E-002     0.0000000000000000     
  -2.4750000000000001E-002     0.0000000000000000     
  -2.4700000000000000E-002     0.0000000000000000     
  -2.4649999999999998E-002     0.0000000000000000     
  -2.4600000000000000E-002     0.0000000000000000     
  -2.4550000000000002E-002     0.0000000000000000     
  -2.4500000000000001E-002     0.0000000000000000     
  -2.4450000000000000E-002     0.0000000000000000     
  -2.4399999999999998E-002     0.0000000000000000     
  -2.4350000000000000E-002     0.0000000000000000     
  -2.4299999999999999E-002     0.0000000000000000     
  -2.4250000000000001E-002     0.0000000000000000     
  -2.4199999999999999E-002     0.0000000000000000     
  -2.4150000000000001E-002     0.0000000000000000     
  -2.4100000000000000E-002     0.0000000000000000     
  -2.4049999999999998E-002     0.0000000000000000     
  -2.4000000000000000E-002     0.0000000000000000     
  -2.3949999999999999E-002     0.0000000000000000     
  -2.3900000000000001E-002     0.0000000000000000     
  -2.3850000000000000E-002     0.0000000000000000     
  -2.3800000000000002E-002     0.0000000000000000     
  -2.3750000000000000E-002     0.0000000000000000     
  -2.3699999999999999E-002     0.0000000000000000     
  -2.3650000000000001E-002     0.0000000000000000     
  -2.3599999999999999E-002     0.0000000000000000     
  -2.3550000000000001E-002     0.0000000000000000     
  -2.3500000000000000E-002     0.0000000000000000     
  -2.3449999999999999E-002     0.0000000000000000     
  -2.3400000000000001E-002     0.0000000000000000     
  -2.3349999999999999E-002     0.0000000000000000     
  -2.3300000000000001E-002     0.0000000000000000     
  -2.3250000000000000E-002     0.0000000000000000     
  -2.3199999999999998E-002     0.0000000000000000     
  -2.3150000000000000E-002     0.0000000000000000     
  -2.3099999999999999E-002     0.0000000000000000     
  -2.3050000000000001E-002     0.0000000000000000     
  -2.3000000000000000E-002     0.0000000000000000     
  -2.2950000000000002E-002     0.0000000000000000     
  -2.2900000000000000E-002     0.0000000000000000     
  -2.2849999999999999E-002     0.0000000000000000     
  -2.2800000000000001E-002     0.0000000000000000     
  -2.2749999999999999E-002     0.0000000000000000     
  -2.2700000000000001E-002     0.0000000000000000     
  -2.2650000000000000E-002     0.0000000000000000     
  -2.2599999999999999E-002     0.0000000000000000     
  -2.2550000000000001E-002     0.0000000000000000     
  -2.2499999999999999E-002     0.0000000000000000     
  -2.2450000000000001E-002     0.0000000000000000     
  -2.2400000000000000E-002     0.0000000000000000     
  -2.2349999999999998E-002     0.0000000000000000     
  -2.2300000000000000E-002     0.0000000000000000     
  -2.2249999999999999E-002     0.0000000000000000     
  -2.2200000000000001E-002     0.0000000000000000     
  -2.2150000000000000E-002     0.0000000000000000     
  -2.2100000000000002E-002     0.0000000000000000     
  -2.2050000000000000E-002     0.0000000000000000     
  -2.1999999999999999E-002     0.0000000000000000     
  -2.1950000000000001E-002     0.0000000000000000     
  -2.1899999999999999E-002     0.0000000000000000     
  -2.1850000000000001E-002     0.0000000000000000     
  -2.1800000000000000E-002     0.0000000000000000     
  -2.1749999999999999E-002     0.0000000000000000     
  -2.1700000000000001E-002     0.0000000000000000     
  -2.1649999999999999E-002     0.0000000000000000     
  -2.1600000000000001E-002     0.0000000000000000     
  -2.1550000000000000E-002     0.0000000000000000     
  -2.1499999999999998E-002     0.0000000000000000     
  -2.1450000000000000E-002     0.0000000000000000     
  -2.1399999999999999E-002     0.0000000000000000     
  -2.1350000000000001E-002     0.0000000000000000     
  -2.1299999999999999E-002     0.0000000000000000     
  -2.1250000000000002E-002     0.0000000000000000     
  -2.1200000000000000E-002     0.0000000000000000     
  -2.1149999999999999E-002     0.0000000000000000     
  -2.1100000000000001E-002     0.0000000000000000     
  -2.1049999999999999E-002     0.0000000000000000     
  -2.1000000000000001E-002     0.0000000000000000     
  -2.0950000000000000E-002     0.0000000000000000     
  -2.0899999999999998E-002     0.0000000000000000     
  -2.0850000000000000E-002    -1.9763145613287274E-040
  -2.0799999999999999E-002    -1.9763145613287274E-040
  -2.0750000000000001E-002    -1.9763145613287274E-040
  -2.0700000000000000E-002     0.0000000000000000     
  -2.0649999999999998E-002     6.0170687211988149E-040
  -2.0600000000000000E-002     1.3550253851407741E-039
  -2.0549999999999999E-002     1.4176992347288593E-039
  -2.0500000000000001E-002     4.1373620304682285E-040
  -2.0449999999999999E-002    -1.4251739487539636E-039
  -2.0400000000000001E-002    -1.7886965484671636E-038
  -2.0350000000000000E-002    -3.1768456456925780E-038
  -2.0299999999999999E-002    -3.0766295440877981E-038
  -2.0250000000000001E-002     0.0000000000000000     
  -2.0199999999999999E-002     3.5833828151832768E-038
  -2.0150000000000001E-002     7.1293295567596174E-038
  -2.0100000000000000E-002     7.0630681500626451E-038
  -2.0049999999999998E-002     3.1653755514216080E-038
  -2.0000000000000000E-002    -1.9442923671496765E-038
  -1.9949999999999999E-002    -8.0565102812380757E-038
  -1.9900000000000001E-002    -1.2711731351772809E-037
  -1.9850000000000000E-002    -1.2542385614973756E-037
  -1.9799999999999998E-002    -9.6399883840112531E-038
  -1.9750000000000000E-002    -6.6086944055983617E-038
  -1.9699999999999999E-002    -3.5612752968261570E-038
  -1.9650000000000001E-002    -1.3215985135373307E-038
  -1.9599999999999999E-002     5.0245727885433361E-038
  -1.9550000000000001E-002     1.6096849305393896E-037
  -1.9500000000000000E-002     3.1891637175434204E-037
  -1.9449999999999999E-002     4.8981960738926740E-037
  -1.9400000000000001E-002     5.9618394652623668E-037
  -1.9349999999999999E-002     5.4284413503331331E-037
  -1.9300000000000001E-002     2.1880139059265740E-037
  -1.9250000000000000E-002    -3.9493821139456287E-037
  -1.9199999999999998E-002    -1.2099100873156526E-036
  -1.9150000000000000E-002    -2.0045575476761942E-036
  -1.9099999999999999E-002    -2.4498106407566880E-036
  -1.9050000000000001E-002    -2.1980706713292497E-036
  -1.9000000000000000E-002    -1.0116010525613372E-036
  -1.8949999999999998E-002     1.0948864248768693E-036
  -1.8900000000000000E-002     3.7511052445970582E-036
  -1.8849999999999999E-002     6.2227046207062835E-036
  -1.8800000000000001E-002     7.5385144112368084E-036
  -1.8749999999999999E-002     6.7589053468438606E-036
  -1.8700000000000001E-002     3.3367025451823979E-036
  -1.8650000000000000E-002    -2.5333792222078882E-036
  -1.8599999999999998E-002    -9.7151017608328878E-036
  -1.8550000000000001E-002    -1.6211045253261277E-035
  -1.8499999999999999E-002    -1.9589962280065355E-035
  -1.8450000000000001E-002    -1.7709743499588900E-035
  -1.8400000000000000E-002    -9.5540555826234869E-036
  -1.8349999999999998E-002     4.0951894645855499E-036
  -1.8300000000000000E-002     2.0440629297980090E-035
  -1.8249999999999999E-002     3.5093802118445968E-035
  -1.8200000000000001E-002     4.3141175410319011E-035
  -1.8149999999999999E-002     4.0604395541167799E-035
  -1.8100000000000002E-002     2.5869645998306627E-035
  -1.8050000000000000E-002     5.9501761319099788E-037
  -1.7999999999999999E-002    -3.0283724849979619E-035
  -1.7950000000000001E-002    -5.9558887886284399E-035
  -1.7899999999999999E-002    -7.9530168237150735E-035
  -1.7850000000000001E-002    -8.4021876871045379E-035
  -1.7800000000000000E-002    -6.9984190333125106E-035
  -1.7749999999999998E-002    -3.8163016095960058E-035
  -1.7700000000000000E-002     7.3059720309268605E-036
  -1.7649999999999999E-002     6.0057305088940703E-035
  -1.7600000000000001E-002     1.1273889360442104E-034
  -1.7550000000000000E-002     1.5764041117925715E-034
  -1.7499999999999998E-002     1.8639744530608218E-034
  -1.7450000000000000E-002     1.8916875028357209E-034
  -1.7399999999999999E-002     1.5440826563894272E-034
  -1.7350000000000001E-002     7.0678550839711355E-035
  -1.7299999999999999E-002    -6.8490568584062702E-035
  -1.7250000000000001E-002    -2.5701910572523242E-034
  -1.7200000000000000E-002    -4.6820346575746479E-034
  -1.7149999999999999E-002    -6.5016865879356250E-034
  -1.7100000000000001E-002    -7.2955073865307654E-034
  -1.7049999999999999E-002    -6.2684828163107299E-034
  -1.7000000000000001E-002    -2.8335759991246965E-034
  -1.6950000000000000E-002     3.0558286571658702E-034
  -1.6899999999999998E-002     1.0615834687555929E-033
  -1.6850000000000000E-002     1.8120789153223273E-033
  -1.6799999999999999E-002     2.3094968408494853E-033
  -1.6750000000000001E-002     2.2863580032197018E-033
  -1.6700000000000000E-002     1.5403146964080435E-033
  -1.6649999999999998E-002     2.9502696344967291E-035
  -1.6600000000000000E-002    -2.0524429674338111E-033
  -1.6549999999999999E-002    -4.2556554019256574E-033
  -1.6500000000000001E-002    -5.9334106258338814E-033
  -1.6449999999999999E-002    -6.3873405269191377E-033
  -1.6400000000000001E-002    -5.0760048445273381E-033
  -1.6350000000000000E-002    -1.8359115483520252E-033
  -1.6299999999999999E-002     2.9545036028611634E-033
  -1.6250000000000001E-002     8.3369616539939688E-033
  -1.6199999999999999E-002     1.2906568208916473E-032
  -1.6150000000000001E-002     1.5116504609614179E-032
  -1.6100000000000000E-002     1.3699673895362378E-032
  -1.6049999999999998E-002     8.1042582045700215E-033
  -1.6000000000000000E-002    -1.1846474348779800E-033
  -1.5949999999999999E-002    -1.2553976640631721E-032
  -1.5900000000000001E-002    -2.3469429267829541E-032
  -1.5850000000000000E-002    -3.0970272178261098E-032
  -1.5799999999999998E-002    -3.2359025197198511E-032
  -1.5750000000000000E-002    -2.5928651595059712E-032
  -1.5699999999999999E-002    -1.1546295445706175E-032
  -1.5650000000000001E-002     9.0612296882928559E-033
  -1.5599999999999999E-002     3.2406641388906747E-032
  -1.5550000000000001E-002     5.3724179462901323E-032
  -1.5500000000000000E-002     6.7752863829147995E-032
  -1.5449999999999998E-002     6.9692113629216608E-032
  -1.5400000000000000E-002     5.6193153345089209E-032
  -1.5349999999999999E-002     2.6269379699701376E-032
  -1.5300000000000001E-002    -1.7971660399891664E-032
  -1.5250000000000000E-002    -7.0880857038525521E-032
  -1.5199999999999998E-002    -1.2325795217719230E-031
  -1.5150000000000000E-002    -1.6299665117171280E-031
  -1.5099999999999999E-002    -1.7662487468587490E-031
  -1.5050000000000001E-002    -1.5189373985890251E-031
  -1.4999999999999999E-002    -8.1315537451201552E-032
  -1.4949999999999998E-002     3.3864417948772663E-032
  -1.4900000000000000E-002     1.8026550624288584E-031
  -1.4849999999999999E-002     3.3092752657569664E-031
  -1.4800000000000001E-002     4.4726863814991243E-031
  -1.4749999999999999E-002     4.8542444588159163E-031
  -1.4700000000000001E-002     4.0688872921027686E-031
  -1.4650000000000000E-002     1.9186755859244300E-031
  -1.4599999999999998E-002    -1.4783023831159139E-031
  -1.4550000000000000E-002    -5.6066450449227096E-031
  -1.4499999999999999E-002    -9.5636304250374840E-031
  -1.4450000000000001E-002    -1.2190271704660979E-030
  -1.4400000000000000E-002    -1.2324487871466385E-030
  -1.4349999999999998E-002    -9.1388222453696658E-031
  -1.4300000000000000E-002    -2.4863044017532689E-031
  -1.4249999999999999E-002     6.8480235727174284E-031
  -1.4200000000000001E-002     1.7093617082022633E-030
  -1.4149999999999999E-002     2.5711769436057338E-030
  -1.4099999999999998E-002     2.9894741750178578E-030
  -1.4050000000000000E-002     2.7276560746863816E-030
  -1.3999999999999999E-002     1.6705415697941837E-030
  -1.3950000000000001E-002    -1.1266454709908539E-031
  -1.3899999999999999E-002    -2.3407417240396744E-030
  -1.3850000000000001E-002    -4.5439380273518173E-030
  -1.3800000000000000E-002    -6.1434876251407028E-030
  -1.3749999999999998E-002    -6.5777509338212317E-030
  -1.3700000000000000E-002    -5.4512451993255853E-030
  -1.3649999999999999E-002    -2.6724132171578554E-030
  -1.3600000000000001E-002     1.4571014236101304E-030
  -1.3550000000000000E-002     6.2329115681513069E-030
  -1.3499999999999998E-002     1.0634704883370540E-029
  -1.3450000000000000E-002     1.3505528034471535E-029
  -1.3399999999999999E-002     1.3797622429806288E-029
  -1.3350000000000001E-002     1.0840202603220858E-029
  -1.3299999999999999E-002     4.5735485281281711E-030
  -1.3249999999999998E-002    -4.3071048853411337E-030
  -1.3200000000000000E-002    -1.4344446000374926E-029
  -1.3149999999999998E-002    -2.3475807197512409E-029
  -1.3100000000000001E-002    -2.9354204360295828E-029
  -1.3049999999999999E-002    -2.9803346987003016E-029
  -1.3000000000000001E-002    -2.3344720944847880E-029
  -1.2950000000000000E-002    -9.7060518609714345E-030
  -1.2899999999999998E-002     9.8005278921862502E-030
  -1.2850000000000000E-002     3.2148816999926811E-029
  -1.2799999999999999E-002     5.2820517145543694E-029