  -4.0000000000000001E-002     0.0000000000000000     
  -3.9949999999999999E-002     0.0000000000000000     
  -3.9899999999999998E-002     0.0000000000000000     
  -3.9850000000000003E-002     0.0000000000000000     
  -3.9800000000000002E-002     0.0000000000000000     
  -3.9750000000000001E-002     0.0000000000000000     
  -3.9699999999999999E-002     0.0000000000000000     
  -3.9649999999999998E-002     0.0000000000000000     
  -3.9600000000000003E-002     0.0000000000000000     
  -3.9550000000000002E-002     0.0000000000000000     
  -3.9500000000000000E-002     0.0000000000000000     
  -3.9449999999999999E-002     0.0000000000000000     
  -3.9399999999999998E-002     0.0000000000000000     
  -3.9350000000000003E-002     0.0000000000000000     
  -3.9300000000000002E-002     0.0000000000000000     
  -3.9250000000000000E-002     0.0000000000000000     
  -3.9199999999999999E-002     0.0000000000000000     
  -3.9150000000000004E-002     0.0000000000000000     
  -3.9100000000000003E-002     0.0000000000000000     
  -3.9050000000000001E-002     0.0000000000000000     
  -3.9000000000000000E-002     0.0000000000000000     
  -3.8949999999999999E-002     0.0000000000000000     
  -3.8900000000000004E-002     0.0000000000000000     
  -3.8850000000000003E-002     0.0000000000000000     
  -3.8800000000000001E-002     0.0000000000000000     
  -3.8750000000000000E-002     0.0000000000000000     
  -3.8699999999999998E-002     0.0000000000000000     
  -3.8650000000000004E-002     0.0000000000000000     
  -3.8600000000000002E-002     0.0000000000000000     
  -3.8550000000000001E-002     0.0000000000000000     
  -3.8500000000000000E-002     0.0000000000000000     
  -3.8449999999999998E-002     0.0000000000000000     
  -3.8400000000000004E-002     0.0000000000000000     
  -3.8350000000000002E-002     0.0000000000000000     
  -3.8300000000000001E-002     0.0000000000000000     
  -3.8249999999999999E-002     0.0000000000000000     
  -3.8199999999999998E-002     0.0000000000000000     
  -3.8150000000000003E-002     0.0000000000000000     
  -3.8100000000000002E-002     0.0000000000000000     
  -3.8050000000000000E-002     0.0000000000000000     
  -3.7999999999999999E-002     0.0000000000000000     
  -3.7949999999999998E-002     0.0000000000000000     
  -3.7900000000000003E-002     0.0000000000000000     
  -3.7850000000000002E-002     0.0000000000000000     
  -3.7800000000000000E-002     0.0000000000000000     
  -3.7749999999999999E-002     0.0000000000000000     
  -3.7699999999999997E-002     0.0000000000000000     
  -3.7650000000000003E-002     0.0000000000000000     
  -3.7600000000000001E-002     0.0000000000000000     
  -3.7550000000000000E-002     0.0000000000000000     
  -3.7499999999999999E-002     0.0000000000000000     
  -3.7449999999999997E-002     0.0000000000000000     
  -3.7400000000000003E-002     0.0000000000000000     
  -3.7350000000000001E-002     0.0000000000000000     
  -3.7300000000000000E-002     0.0000000000000000     
  -3.7249999999999998E-002     0.0000000000000000     
  -3.7200000000000004E-002    -1.1422786535004896E-039
  -3.7150000000000002E-002    -2.5188930762365642E-039
  -3.7100000000000001E-002    -3.9086629087788956E-039
  -3.7050000000000000E-002    -1.8491641260323703E-039
  -3.6999999999999998E-002     1.0032593739761785E-038
  -3.6950000000000004E-002     3.6592701244185496E-038
  -3.6900000000000002E-002     7.8358657019620460E-038
  -3.6850000000000001E-002     1.1784342016470241E-037
  -3.6799999999999999E-002     5.9809996454170968E-038
  -3.6749999999999998E-002    -1.9243746785725615E-037
  -3.6700000000000003E-002    -7.3336506927432751E-037
  -3.6650000000000002E-002    -1.5470231840556553E-036
  -3.6600000000000001E-002    -2.3717977404275095E-036
  -3.6549999999999999E-002    -2.4810275097516030E-036
  -3.6499999999999998E-002    -6.5591013818022920E-037
  -3.6450000000000003E-002     4.5228966277113803E-036
  -3.6400000000000002E-002     1.3809091443412137E-035
  -3.6350000000000000E-002     2.5802230771628062E-035
  -3.6299999999999999E-002     3.5217048262297324E-035
  -3.6249999999999998E-002     3.1919591233330444E-035
  -3.6200000000000003E-002     2.3122662445977742E-036
  -3.6150000000000002E-002    -6.5334150914589765E-035
  -3.6100000000000000E-002    -1.7107969613233350E-034
  -3.6049999999999999E-002    -2.9098160878902686E-034
  -3.6000000000000004E-002    -3.6755318417094088E-034
  -3.5950000000000003E-002    -3.1124273110579956E-034
  -3.5900000000000001E-002    -2.1419631558863715E-035
  -3.5850000000000000E-002     5.6899603247312446E-034
  -3.5799999999999998E-002     1.4305011492193826E-033
  -3.5750000000000004E-002     2.3730428442365441E-033
  -3.5700000000000003E-002     3.0091322864731115E-033
  -3.5650000000000001E-002     2.7760453100210373E-033
  -3.5600000000000000E-002     1.0441506726440386E-033
  -3.5549999999999998E-002    -2.6739953720230552E-033
  -3.5500000000000004E-002    -8.4162567228527600E-033
  -3.5450000000000002E-002    -1.5392131423401606E-032
  -3.5400000000000001E-002    -2.1605141936348030E-032
  -3.5349999999999999E-002    -2.3635797189396033E-032
  -3.5299999999999998E-002    -1.6874596360921004E-032
  -3.5250000000000004E-002     3.3880906265375267E-033
  -3.5200000000000002E-002     3.9647225432382955E-032
  -3.5150000000000001E-002     8.8674580640592694E-032
  -3.5099999999999999E-002     1.3774785257893575E-031
  -3.5049999999999998E-002     1.6281167427052195E-031
  -3.5000000000000003E-002     1.3177114579124512E-031
  -3.4950000000000002E-002     1.5776694217388363E-032
  -3.4900000000000000E-002    -1.9146499017818391E-031
  -3.4849999999999999E-002    -4.5190876664609771E-031
  -3.4799999999999998E-002    -6.7119828643726399E-031
  -3.4750000000000003E-002    -7.1262306959880493E-031
  -3.4700000000000002E-002    -4.4864428552687975E-031
  -3.4650000000000000E-002     1.5504419817935569E-031
  -3.4599999999999999E-002     9.5481280020584084E-031
  -3.4549999999999997E-002     1.6014118739598547E-030
  -3.4500000000000003E-002     1.6319557558623109E-030
  -3.4450000000000001E-002     7.0823823527887703E-031
  -3.4400000000000000E-002    -1.0551109584671309E-030
  -3.4349999999999999E-002    -2.8362901329498279E-030
  -3.4299999999999997E-002    -3.1626182427788395E-030
  -3.4250000000000003E-002    -4.7614272552070264E-031
  -3.4200000000000001E-002     5.7977339260994877E-030
  -3.4150000000000000E-002     1.4035996735464300E-029
  -3.4099999999999998E-002     1.9776135178411845E-029
  -3.4049999999999997E-002     1.6496767445157246E-029
  -3.4000000000000002E-002    -1.6709262559960203E-030
  -3.3950000000000001E-002    -3.5699851208966866E-029
  -3.3900000000000000E-002    -7.7538227312893332E-029
  -3.3849999999999998E-002    -1.0873748883207205E-028
  -3.3799999999999997E-002    -1.0442326843125104E-028
  -3.3750000000000002E-002    -4.3482653418521140E-029
  -3.3700000000000001E-002     7.7433319026296876E-029
  -3.3649999999999999E-002     2.3217350188773586E-028
  -3.3599999999999998E-002     3.6370728877026760E-028
  -3.3550000000000003E-002     3.9933751293221795E-028
  -3.3500000000000002E-002     2.8205646233994186E-028
  -3.3450000000000001E-002     7.6442652751353935E-030
  -3.3399999999999999E-002    -3.5163172108992912E-028
  -3.3349999999999998E-002    -6.5726469208514277E-028
  -3.3300000000000003E-002    -7.5856116438323667E-028
  -3.3250000000000002E-002    -5.7792440443071852E-028
  -3.3200000000000000E-002    -1.8857233662915748E-028
  -3.3149999999999999E-002     1.6954251151341659E-028
  -3.3099999999999997E-002     1.7902091557279625E-028
  -3.3050000000000003E-002    -3.6137055497559882E-028
  -3.3000000000000002E-002    -1.3075492750192058E-027
  -3.2950000000000000E-002    -2.0360968196015083E-027
  -3.2899999999999999E-002    -1.5505453801041762E-027
  -3.2850000000000004E-002     1.0936807869097937E-027
  -3.2800000000000003E-002     6.1179351165878557E-027
  -3.2750000000000001E-002     1.2363388917572541E-026
  -3.2700000000000000E-002     1.7044863568187423E-026
  -3.2649999999999998E-002     1.6290569872395112E-026
  -3.2600000000000004E-002     6.6003679666669634E-027
  -3.2550000000000003E-002    -1.3078527173510467E-026
  -3.2500000000000001E-002    -3.9435513539486585E-026
  -3.2450000000000000E-002    -6.4099259333798836E-026
  -3.2399999999999998E-002    -7.5074386463154573E-026
  -3.2350000000000004E-002    -6.0557615243813860E-026
  -3.2300000000000002E-002    -1.4318717631324745E-026
  -3.2250000000000001E-002     5.9231911955738173E-026
  -3.2199999999999999E-002     1.4270575748018283E-025
  -3.2149999999999998E-002     2.0811630167293405E-025
  -3.2100000000000004E-002     2.2446432517153521E-025
  -3.2050000000000002E-002     1.6884470237885610E-025
  -3.2000000000000001E-002     3.7394213812066462E-026
  -3.1949999999999999E-002    -1.4842492386851260E-025
  -3.1899999999999998E-002    -3.4368876961476131E-025
  -3.1850000000000003E-002    -4.9070725035889332E-025
  -3.1800000000000002E-002    -5.3563718152115578E-025
  -3.1750000000000000E-002    -4.4528785044150559E-025
  -3.1699999999999999E-002    -2.1789343998934509E-025
  -3.1649999999999998E-002     1.1595197514696292E-025
  -3.1600000000000003E-002     5.0148910013298639E-025
  -3.1550000000000002E-002     8.7198566808113665E-025
  -3.1500000000000000E-002     1.1580672304218472E-024
  -3.1449999999999999E-002     1.2899391938750196E-024
  -3.1399999999999997E-002     1.1946133495163458E-024
  -3.1350000000000003E-002     7.9720947770394934E-025
  -3.1300000000000001E-002     3.8294256436889449E-026
  -3.1250000000000000E-002    -1.0858191811378520E-024
  -3.1199999999999999E-002    -2.4662835030669056E-024
  -3.1150000000000001E-002    -3.8321395489889044E-024
  -3.1100000000000003E-002    -4.7438918183617589E-024
  -3.1050000000000001E-002    -4.6638609045693984E-024
  -3.1000000000000000E-002    -3.1146792363897108E-024
  -3.0949999999999998E-002     1.0149480924937505E-025
  -3.0900000000000000E-002     4.6923624048081145E-024
  -3.0850000000000002E-002     9.7678732807822189E-024
  -3.0800000000000001E-002     1.3920172564593211E-023
  -3.0750000000000000E-002     1.5524203009694520E-023
  -3.0699999999999998E-002     1.3210571167140142E-023
  -3.0650000000000000E-002     6.3801933134976309E-024
  -3.0600000000000002E-002    -4.4153991507664817E-024
  -3.0550000000000001E-002    -1.7384676011708368E-023
  -3.0499999999999999E-002    -2.9765766549824168E-023
  -3.0449999999999998E-002    -3.8395133813552702E-023
  -3.0400000000000000E-002    -4.0401884697771822E-023
  -3.0350000000000002E-002    -3.3813445539462158E-023
  -3.0300000000000001E-002    -1.7920773575183189E-023
  -3.0249999999999999E-002     6.6039203019513617E-024
  -3.0200000000000001E-002     3.7689671419550209E-023
  -3.0150000000000000E-002     7.1740166351857073E-023
  -3.0100000000000002E-002     1.0329589645583453E-022
  -3.0050000000000000E-002     1.2465970234449950E-022
  -2.9999999999999999E-002     1.2599798965652140E-022
  -2.9950000000000001E-002     9.6629670293060663E-023
  -2.9899999999999999E-002     2.8062844855099776E-023
  -2.9850000000000002E-002    -8.1281144832642228E-023
  -2.9800000000000000E-002    -2.2071847334835300E-022
  -2.9749999999999999E-002    -3.6344062720626564E-022
  -2.9700000000000001E-002    -4.6683529731962918E-022
  -2.9650000000000003E-002    -4.7928842275890519E-022
  -2.9600000000000001E-002    -3.5411148773040834E-022
  -2.9550000000000000E-002    -6.8527710720874309E-023
  -2.9499999999999998E-002     3.5737181142237393E-022
  -2.9450000000000000E-002     8.4895546190787242E-022
  -2.9400000000000003E-002     1.2799999234292652E-021
  -2.9350000000000001E-002     1.4948258676460809E-021
  -2.9300000000000000E-002     1.3486898735836495E-021
  -2.9249999999999998E-002     7.5854675186343154E-022
  -2.9200000000000000E-002    -2.4990644835382470E-022
  -2.9150000000000002E-002    -1.5159112190978563E-021
  -2.9100000000000001E-002    -2.7527306244156978E-021
  -2.9049999999999999E-002    -3.5987557338854148E-021
  -2.8999999999999998E-002    -3.7049954630448738E-021
  -2.8950000000000000E-002    -2.8401977872003273E-021
  -2.8900000000000002E-002    -9.8527174373664133E-022
  -2.8850000000000001E-002     1.6134965293770065E-021
  -2.8799999999999999E-002     4.4556981641321027E-021
  -2.8749999999999998E-002     6.8701495365688432E-021
  -2.8700000000000000E-002     8.1579001487702722E-021
  -2.8650000000000002E-002     7.7639807052186140E-021
  -2.8600000000000000E-002     5.4360462164710946E-021
  -2.8549999999999999E-002     1.3286030327108454E-021
  -2.8500000000000001E-002    -3.9762056420674025E-021
  -2.8450000000000000E-002    -9.5400335521752205E-021
  -2.8400000000000002E-002    -1.4218923304525013E-020
  -2.8350000000000000E-002    -1.6863417523771094E-020
  -2.8299999999999999E-002    -1.6531746565161359E-020
  -2.8250000000000001E-002    -1.2682947678711598E-020
  -2.8200000000000003E-002    -5.3263729273644597E-021
  -2.8150000000000001E-002     4.8865775095838421E-021
  -2.8100000000000000E-002     1.6639088720942760E-020
  -2.8049999999999999E-002     2.8008528598756825E-020
  -2.8000000000000001E-002     3.6631398827369688E-020
  -2.7950000000000003E-002     3.9998574978183606E-020
  -2.7900000000000001E-002     3.5892849449838147E-020
  -2.7850000000000000E-002     2.2946239795510642E-020
  -2.7799999999999998E-002     1.2402079161026797E-021
  -2.7750000000000000E-002    -2.7188189854677557E-020
  -2.7700000000000002E-002    -5.8114872716425201E-020
  -2.7650000000000001E-002    -8.5354528330918390E-020
  -2.7600000000000000E-002    -1.0156740850771469E-019
  -2.7549999999999998E-002    -9.9648749667297450E-020
  -2.7500000000000000E-002    -7.4534958063384026E-020
  -2.7450000000000002E-002    -2.5086570294604679E-020
  -2.7400000000000001E-002     4.4421768875553381E-020
  -2.7349999999999999E-002     1.2370959349844322E-019
  -2.7299999999999998E-002     1.9720988695179092E-019
  -2.7250000000000000E-002     2.4628700260522718E-019
  -2.7200000000000002E-002     2.5281235027941289E-019
  -2.7150000000000001E-002     2.0358673142113097E-019
  -2.7099999999999999E-002     9.4767691931424257E-020
  -2.7049999999999998E-002    -6.4745516525995654E-020
  -2.7000000000000000E-002    -2.5202450387830336E-019
  -2.6950000000000002E-002    -4.3174756250845461E-019
  -2.6900000000000000E-002    -5.6111506778484393E-019
  -2.6849999999999999E-002    -5.9774295034866486E-019
  -2.6800000000000001E-002    -5.0947893465720226E-019
  -2.6749999999999999E-002    -2.8438092704803960E-019
  -2.6700000000000002E-002     6.1396867913066510E-020
  -2.6650000000000000E-002     4.8017288545340531E-019
  -2.6599999999999999E-002     8.9571371908657665E-019
  -2.6550000000000001E-002     1.2135818297224139E-018
  -2.6500000000000003E-002     1.3383256567459353E-018
  -2.6450000000000001E-002     1.1952005056247494E-018
  -2.6400000000000000E-002     7.5240874691051939E-019
  -2.6349999999999998E-002     3.8684049356152529E-020
  -2.6300000000000000E-002    -8.4911921608604367E-019
  -2.6250000000000002E-002    -1.7526265722709106E-018
  -2.6200000000000001E-002    -2.4744339157463944E-018
  -2.6150000000000000E-002    -2.8146758125696814E-018
  -2.6099999999999998E-002    -2.6160003923636114E-018
  -2.6050000000000000E-002    -1.8080249286858618E-018
  -2.6000000000000002E-002    -4.4069779980075065E-019
  -2.5950000000000001E-002     1.3033615270244193E-018
  -2.5899999999999999E-002     3.1242080349967493E-018
  -2.5849999999999998E-002     4.6488525174220910E-018
  -2.5800000000000000E-002     5.4991495557617039E-018
  -2.5750000000000002E-002     5.3717803927151315E-018
  -2.5700000000000001E-002     4.1145340093712018E-018
  -2.5649999999999999E-002     1.7819900511896422E-018
  -2.5599999999999998E-002    -1.3436897524687941E-018
  -2.5550000000000000E-002    -4.7752172432118337E-018
  -2.5500000000000002E-002    -7.8861227695319688E-018
  -2.5450000000000000E-002    -1.0011897569479749E-017
  -2.5399999999999999E-002    -1.0570825061617572E-017
  -2.5349999999999998E-002    -9.1845312003075744E-018
  -2.5300000000000000E-002    -5.7772566939229382E-018
  -2.5250000000000002E-002    -6.3511197194670578E-019
  -2.5200000000000000E-002     5.5885060241611649E-018
  -2.5149999999999999E-002     1.1928561704509487E-017
  -2.5100000000000001E-002     1.7224800962296121E-017
  -2.5049999999999999E-002     2.0290674176120186E-017
  -2.5000000000000001E-002     2.0118121435401874E-017
  -2.4950000000000000E-002     1.6093159928442678E-017
  -2.4899999999999999E-002     8.1892742367680376E-018
  -2.4850000000000001E-002    -2.9001018087675359E-018
  -2.4800000000000003E-002    -1.5729779450912284E-017
  -2.4750000000000001E-002    -2.8205002688639316E-017
  -2.4700000000000000E-002    -3.7834856260401172E-017
  -2.4649999999999998E-002    -4.2127936894665472E-017
  -2.4600000000000000E-002    -3.9087981188198964E-017
  -2.4550000000000002E-002    -2.7732147528079151E-017
  -2.4500000000000001E-002    -8.5271268323234197E-018
  -2.4450000000000000E-002     1.6372655016320445E-017
  -2.4399999999999998E-002     4.3186585612793232E-017
  -2.4350000000000000E-002     6.6928945310787805E-017
  -2.4299999999999999E-002     8.2182192837569172E-017
  -2.4250000000000001E-002     8.4133347159002535E-017
  -2.4199999999999999E-002     6.9704343269320461E-017
  -2.4150000000000001E-002     3.8549605802638092E-017
  -2.4100000000000000E-002    -6.3238033210504759E-018
  -2.4049999999999998E-002    -5.8523326084759579E-017
  -2.4000000000000000E-002    -1.0894596955451798E-016
  -2.3949999999999999E-002    -1.4714944261858812E-016
  -2.3900000000000001E-002    -1.6325398131845697E-016
  -2.3850000000000000E-002    -1.5006597076001663E-016
  -2.3800000000000002E-002    -1.0501528205730372E-016
  -2.3750000000000000E-002    -3.1469935958632310E-017
  -2.3699999999999999E-002     6.0945965650159605E-017
  -2.3650000000000001E-002     1.5725541166538452E-016
  -2.3599999999999999E-002     2.3925752091452420E-016
  -2.3550000000000001E-002     2.8863515294114815E-016
  -2.3500000000000000E-002     2.9055809955726176E-016
  -2.3449999999999999E-002     2.3712949823337663E-016
  -2.3400000000000001E-002     1.2996526231950457E-016
  -2.3349999999999999E-002    -1.8725176118018237E-017
  -2.3300000000000001E-002    -1.8697241815224254E-016
  -2.3250000000000000E-002    -3.4588446315237298E-016
  -2.3199999999999998E-002    -4.6419397624166423E-016
  -2.3150000000000000E-002    -5.1385327901467413E-016
  -2.3099999999999999E-002    -4.7573456337049254E-016
  -2.3050000000000001E-002    -3.4436887328537209E-016
  -2.3000000000000000E-002    -1.3072313099672527E-016
  -2.2950000000000002E-002     1.3771753253570744E-016
  -2.2900000000000000E-002     4.1986993307562339E-016
  -2.2849999999999999E-002     6.6676250783852206E-016
  -2.2800000000000001E-002     8.2930299084038904E-016
  -2.2749999999999999E-002     8.6694453984171054E-016
  -2.2700000000000001E-002     7.5584012650550243E-016
  -2.2650000000000000E-002     4.9504441693112937E-016
  -2.2599999999999999E-002     1.0953069932106016E-016
  -2.2550000000000001E-002    -3.5080061019902407E-016
  -2.2499999999999999E-002    -8.1638247815166617E-016
  -2.2450000000000001E-002    -1.2071386733725793E-015
  -2.2400000000000000E-002    -1.4445409601230882E-015
  -2.2349999999999998E-002    -1.4650268013909833E-015
  -2.2300000000000000E-002    -1.2328464135791299E-015
  -2.2249999999999999E-002    -7.5022766156965018E-016
  -2.2200000000000001E-002    -6.2822517885527017E-017
  -2.2150000000000000E-002     7.4122261398090231E-016
  -2.2100000000000002E-002     1.5395296638894787E-015
  -2.2050000000000000E-002     2.1910321759024743E-015
  -2.1999999999999999E-002     2.5575105515176981E-015
  -2.1950000000000001E-002     2.5285038190824199E-015
  -2.1899999999999999E-002     2.0458042375649405E-015
  -2.1850000000000001E-002     1.1229804123815276E-015
  -2.1800000000000000E-002    -1.4467811184540298E-016
  -2.1749999999999999E-002    -1.5835554186832540E-015
  -2.1700000000000001E-002    -2.9603849811348783E-015
  -2.1649999999999999E-002    -4.0155094971051768E-015
  -2.1600000000000001E-002    -4.5069701633292667E-015
  -2.1550000000000000E-002    -4.2587533579482858E-015
  -2.1499999999999998E-002    -3.2044384186994657E-015
  -2.1450000000000000E-002    -1.4168518537329772E-015
  -2.1399999999999999E-002     8.8441181315488765E-016
  -2.1350000000000001E-002     3.3525799202880941E-015
  -2.1299999999999999E-002     5.5606442097942931E-015
  -2.1250000000000002E-002     7.0703976774196923E-015
  -2.1200000000000000E-002     7.5131019191025834E-015
  -2.1149999999999999E-002     6.6675977326507936E-015
  -2.1100000000000001E-002     4.5203610961659062E-015
  -2.1049999999999999E-002     1.2937297939352001E-015
  -2.1000000000000001E-002    -2.5667962826836651E-015
  -2.0950000000000000E-002    -6.4482904043379134E-015
  -2.0899999999999998E-002    -9.6631924928388969E-015
  -2.0850000000000000E-002    -1.1565532956836645E-014
  -2.0799999999999999E-002    -1.1671328751687895E-014
  -2.0750000000000001E-002    -9.7614791300671017E-015
  -2.0700000000000000E-002    -5.9469851130712920E-015
  -2.0649999999999998E-002    -6.8169872241998253E-016
  -2.0600000000000000E-002     5.2838653927001924E-015
  -2.0549999999999999E-002     1.1004099846090471E-014
  -2.0500000000000001E-002     1.5481853078789056E-014
  -2.0449999999999999E-002     1.7832533494190664E-014
  -2.0400000000000001E-002     1.7442687130648873E-014
  -2.0350000000000000E-002     1.4096352897674067E-014
  -2.0299999999999999E-002     8.0463283863498343E-015
  -2.0250000000000001E-002     1.5042546624265274E-017
  -2.0199999999999999E-002    -8.8801143251058681E-015
  -2.0150000000000001E-002    -1.7270718861725092E-014
  -2.0100000000000000E-002    -2.3733350935766874E-014
  -2.0049999999999998E-002    -2.7011683394913447E-014
  -2.0000000000000000E-002    -2.6232870442030275E-014
  -1.9949999999999999E-002    -2.1084930867587033E-014
  -1.9900000000000001E-002    -1.1924641437196677E-014
  -1.9850000000000000E-002     2.0726592160909309E-016
  -1.9799999999999998E-002     1.3675770062710936E-014
  -1.9750000000000000E-002     2.6444296176124274E-014
  -1.9699999999999999E-002     3.6353337339721879E-014
  -1.9650000000000001E-002     4.1452646269955831E-014
  -1.9599999999999999E-002     4.0342096937219498E-014
  -1.9550000000000001E-002     3.2468230634267432E-014
  -1.9500000000000000E-002     1.8322485476279346E-014
  -1.9449999999999999E-002    -5.0556337241920098E-016
  -1.9400000000000001E-002    -2.1450192359765749E-014
  -1.9349999999999999E-002    -4.1272403048567743E-014
  -1.9300000000000001E-002    -5.6519040548435291E-014
  -1.9250000000000000E-002    -6.4082280816011664E-014
  -1.9199999999999998E-002    -6.1776373716832559E-014
  -1.9150000000000000E-002    -4.8832353859714048E-014
  -1.9099999999999999E-002    -2.6210500873835722E-014
  -1.9050000000000001E-002     3.3513295729287361E-015
  -1.9000000000000000E-002     3.5598660857763181E-014
  -1.8949999999999998E-002     6.5324471999132678E-014
  -1.8900000000000000E-002     8.7172422217448160E-014
  -1.8849999999999999E-002     9.6561795408148333E-014
  -1.8800000000000001E-002     9.0578923802270659E-014
  -1.8749999999999999E-002     6.8667429931934930E-014
  -1.8700000000000001E-002     3.2968785547948283E-014
  -1.8650000000000000E-002    -1.1785492703425745E-014
  -1.8599999999999998E-002    -5.8854021895844150E-014
  -1.8550000000000001E-002    -1.0047588643229975E-013
  -1.8499999999999999E-002    -1.2912714924504557E-013
  -1.8450000000000001E-002    -1.3883871594795724E-013
  -1.8400000000000000E-002    -1.2634462720704772E-013
  -1.8349999999999998E-002    -9.1845513181286725E-014
  -1.8300000000000000E-002    -3.9228743732959955E-014
  -1.8249999999999999E-002     2.4324536519039434E-014
  -1.8200000000000001E-002     8.9310433532119716E-014
  -1.8149999999999999E-002     1.4531449075873394E-013
  -1.8100000000000002E-002     1.8264825628726926E-013
  -1.8050000000000000E-002     1.9394982231725433E-013
  -1.7999999999999999E-002     1.7548780610764854E-013
  -1.7950000000000001E-002     1.2795232287625680E-013
  -1.7899999999999999E-002     5.6593132143503649E-014
  -1.7850000000000001E-002    -2.9334787808502629E-014
  -1.7800000000000000E-002    -1.1775535639613040E-013
  -1.7749999999999998E-002    -1.9542958987282582E-013
  -1.7700000000000000E-002    -2.4986295537359189E-013
  -1.7649999999999999E-002    -2.7119873053173699E-013
  -1.7600000000000001E-002    -2.5383064941184476E-013
  -1.7550000000000000E-002    -1.9749557682394869E-013
  -1.7499999999999998E-002    -1.0766673029645807E-013
  -1.7450000000000000E-002     4.8521907635463679E-015
  -1.7399999999999999E-002     1.2513221862516061E-013
  -1.7350000000000001E-002     2.3601807512826453E-013
  -1.7299999999999999E-002     3.2051067809700965E-013
  -1.7250000000000001E-002     3.6433274999261207E-013
  -1.7200000000000000E-002     3.5831504842658828E-013
  -1.7149999999999999E-002     3.0022307442322748E-013
  -1.7100000000000001E-002     1.9567887562700309E-013
  -1.7049999999999999E-002     5.7929252396380120E-014
  -1.7000000000000001E-002    -9.3635600273750413E-014
  -1.6950000000000000E-002    -2.3611522683867142E-013
  -1.6899999999999998E-002    -3.4657859266716410E-013
  -1.6850000000000000E-002    -4.0589766516579842E-013
  -1.6799999999999999E-002    -4.0231717218660286E-013
  -1.6750000000000001E-002    -3.3410852798900304E-013
  -1.6700000000000000E-002    -2.1073847045314922E-013
  -1.6649999999999998E-002    -5.2180688487578152E-014
  -1.6600000000000000E-002     1.1370795556626713E-013
  -1.6549999999999999E-002     2.5548303390549409E-013
  -1.6500000000000001E-002     3.4348143825046970E-013
  -1.6449999999999999E-002     3.5540598200885006E-013
  -1.6400000000000001E-002     2.8114154733702837E-013
  -1.6350000000000000E-002     1.2586308486990674E-013
  -1.6299999999999999E-002    -8.9280806117785660E-014
  -1.6250000000000001E-002    -3.2924913741378575E-013
  -1.6199999999999999E-002    -5.4982720663816995E-013
  -1.6150000000000001E-002    -7.0437607468314462E-013
  -1.6100000000000000E-002    -7.5160649051259771E-013
  -1.6049999999999998E-002    -6.6313004823889224E-013
  -1.6000000000000000E-002    -4.2951033424530505E-013
  -1.5949999999999999E-002    -6.3732334032829153E-014
  -1.5900000000000001E-002     3.9859821175882973E-013
  -1.5850000000000000E-002     9.0249538394066324E-013
  -1.5799999999999998E-002     1.3798878553739057E-012
  -1.5750000000000000E-002     1.7580910191550170E-012
  -1.5699999999999999E-002     1.9692387864848292E-012
  -1.5650000000000001E-002     1.9593296663851495E-012
  -1.5599999999999999E-002     1.6956240551368307E-012
  -1.5550000000000001E-002     1.1714243619594294E-012
  -1.5500000000000000E-002     4.0769359473101127E-013
  -1.5449999999999998E-002    -5.4855379535930946E-013
  -1.5400000000000000E-002    -1.6286891611156356E-012
  -1.5349999999999999E-002    -2.7489688707306675E-012
  -1.5300000000000001E-002    -3.8181038564736611E-012
  -1.5250000000000000E-002    -4.7448159633338494E-012
  -1.5199999999999998E-002    -5.4443711350546211E-012
  -1.5150000000000000E-002    -5.8432538148860073E-012
  -1.5099999999999999E-002    -5.8814224102137438E-012
  -1.5050000000000001E-002    -5.5118993160715926E-012
  -1.4999999999999999E-002    -4.6978211569445671E-012
  -1.4949999999999998E-002    -3.4074216799686960E-012
  -1.4900000000000000E-002    -1.6077499472381440E-012
  -1.4849999999999999E-002     7.4179133404337961E-013
  -1.4800000000000001E-002     3.6948603314345112E-012
  -1.4749999999999999E-002     7.3212982675563189E-012
  -1.4700000000000001E-002     1.1706932473789943E-011
  -1.4650000000000000E-002     1.6949387659367915E-011
  -1.4599999999999998E-002     2.3149882296402532E-011
  -1.4550000000000000E-002     3.0401682800315616E-011
  -1.4499999999999999E-002     3.8776588833275075E-011
  -1.4450000000000001E-002     4.8311421201915743E-011
  -1.4400000000000000E-002     5.8996833827988746E-011
  -1.4349999999999998E-002     7.0770643727765130E-011
  -1.4300000000000000E-002     8.3517458314727999E-011
  -1.4249999999999999E-002     9.7075493622222775E-011
  -1.4200000000000001E-002     1.1125019468044725E-010
  -1.4149999999999999E-002     1.2583331121917564E-010
  -1.4099999999999998E-002     1.4062474364126674E-010
  -1.4050000000000000E-002     1.5545423054662245E-010
  -1.3999999999999999E-002     1.7019926636211177E-010
  -1.3950000000000001E-002     1.8479649215119573E-010
  -1.3899999999999999E-002     1.9924456170256778E-010
  -1.3850000000000001E-002     2.1359816479723726E-010
  -1.3800000000000000E-002     2.2795391743500625E-010
  -1.3749999999999998E-002     2.4243067165658086E-010
  -1.3700000000000000E-002     2.5714731291608328E-010
  -1.3649999999999999E-002     2.7220169487007521E-010
  -1.3600000000000001E-002     2.8765436713733321E-010
  -1.3550000000000000E-002     3.0351939535126017E-010
  -1.3499999999999998E-002     3.1976389344401797E-010
  -1.3450000000000000E-002     3.3631584157409959E-010
  -1.3399999999999999E-002     3.5307918318692440E-010
  -1.3350000000000001E-002     3.6995285622261580E-010
  -1.3299999999999999E-002     3.8685109725994654E-010
  -1.3249999999999998E-002     4.0372134974429039E-010
  -1.3200000000000000E-002     4.2055702951413959E-010
  -1.3149999999999998E-002     4.3740324095793545E-010
  -1.3100000000000001E-002     4.5435452879214053E-010
  -1.3049999999999999E-002     4.7154486815065192E-010
  -1.3000000000000001E-002     4.8913224049063266E-010
  -1.2950000000000000E-002     5.0727919736336054E-010
  -1.2899999999999998E-002     5.2613300833094111E-010
  -1.2850000000000000E-002     5.4580797534318284E-010
  -1.2799999999999999E-002     5.6637230923328188E-010