  -4.0000000000000001E-002     0.0000000000000000     
  -3.9949999999999999E-002     0.0000000000000000     
  -3.9899999999999998E-002     0.0000000000000000     
  -3.9850000000000003E-002     0.0000000000000000     
  -3.9800000000000002E-002     0.0000000000000000     
  -3.9750000000000001E-002     0.0000000000000000     
  -3.9699999999999999E-002     0.0000000000000000     
  -3.9649999999999998E-002     0.0000000000000000     
  -3.9600000000000003E-002     0.0000000000000000     
  -3.9550000000000002E-002     0.0000000000000000     
  -3.9500000000000000E-002     0.0000000000000000     
  -3.9449999999999999E-002     0.0000000000000000     
  -3.9399999999999998E-002     0.0000000000000000     
  -3.9350000000000003E-002     0.0000000000000000     
  -3.9300000000000002E-002     0.0000000000000000     
  -3.9250000000000000E-002     0.0000000000000000     
  -3.9199999999999999E-002     0.0000000000000000     
  -3.9150000000000004E-002     0.0000000000000000     
  -3.9100000000000003E-002     0.0000000000000000     
  -3.9050000000000001E-002     0.0000000000000000     
  -3.9000000000000000E-002     0.0000000000000000     
  -3.8949999999999999E-002     0.0000000000000000     
  -3.8900000000000004E-002     0.0000000000000000     
  -3.8850000000000003E-002     0.0000000000000000     
  -3.8800000000000001E-002     0.0000000000000000     
  -3.8750000000000000E-002     0.0000000000000000     
  -3.8699999999999998E-002     0.0000000000000000     
  -3.8650000000000004E-002     0.0000000000000000     
  -3.8600000000000002E-002     0.0000000000000000     
  -3.8550000000000001E-002     0.0000000000000000     
  -3.8500000000000000E-002     0.0000000000000000     
  -3.8449999999999998E-002     0.0000000000000000     
  -3.8400000000000004E-002     0.0000000000000000     
  -3.8350000000000002E-002     0.0000000000000000     
  -3.8300000000000001E-002     0.0000000000000000     
  -3.8249999999999999E-002     0.0000000000000000     
  -3.8199999999999998E-002     0.0000000000000000     
  -3.8150000000000003E-002     0.0000000000000000     
  -3.8100000000000002E-002     0.0000000000000000     
  -3.8050000000000000E-002     0.0000000000000000     
  -3.7999999999999999E-002     0.0000000000000000     
  -3.7949999999999998E-002     0.0000000000000000     
  -3.7900000000000003E-002     0.0000000000000000     
  -3.7850000000000002E-002     0.0000000000000000     
  -3.7800000000000000E-002     0.0000000000000000     
  -3.7749999999999999E-002     0.0000000000000000     
  -3.7699999999999997E-002     0.0000000000000000     
  -3.7650000000000003E-002     0.0000000000000000     
  -3.7600000000000001E-002     0.0000000000000000     
  -3.7550000000000000E-002     0.0000000000000000     
  -3.7499999999999999E-002     0.0000000000000000     
  -3.7449999999999997E-002     0.0000000000000000     
  -3.7400000000000003E-002     0.0000000000000000     
  -3.7350000000000001E-002     0.0000000000000000     
  -3.7300000000000000E-002     0.0000000000000000     
  -3.7249999999999998E-002     0.0000000000000000     
  -3.7200000000000004E-002     0.0000000000000000     
  -3.7150000000000002E-002     0.0000000000000000     
  -3.7100000000000001E-002     0.0000000000000000     
  -3.7050000000000000E-002     0.0000000000000000     
  -3.6999999999999998E-002     0.0000000000000000     
  -3.6950000000000004E-002     0.0000000000000000     
  -3.6900000000000002E-002     0.0000000000000000     
  -3.6850000000000001E-002     0.0000000000000000     
  -3.6799999999999999E-002     0.0000000000000000     
  -3.6749999999999998E-002     0.0000000000000000     
  -3.6700000000000003E-002     0.0000000000000000     
  -3.6650000000000002E-002     0.0000000000000000     
  -3.6600000000000001E-002     0.0000000000000000     
  -3.6549999999999999E-002     0.0000000000000000     
  -3.6499999999999998E-002     0.0000000000000000     
  -3.6450000000000003E-002     0.0000000000000000     
  -3.6400000000000002E-002     0.0000000000000000     
  -3.6350000000000000E-002     0.0000000000000000     
  -3.6299999999999999E-002     0.0000000000000000     
  -3.6249999999999998E-002     0.0000000000000000     
  -3.6200000000000003E-002     0.0000000000000000     
  -3.6150000000000002E-002     0.0000000000000000     
  -3.6100000000000000E-002     0.0000000000000000     
  -3.6049999999999999E-002     0.0000000000000000     
  -3.6000000000000004E-002     0.0000000000000000     
  -3.5950000000000003E-002     0.0000000000000000     
  -3.5900000000000001E-002     0.0000000000000000     
  -3.5850000000000000E-002     0.0000000000000000     
  -3.5799999999999998E-002     0.0000000000000000     
  -3.5750000000000004E-002     0.0000000000000000     
  -3.5700000000000003E-002     0.0000000000000000     
  -3.5650000000000001E-002     0.0000000000000000     
  -3.5600000000000000E-002     0.0000000000000000     
  -3.5549999999999998E-002     0.0000000000000000     
  -3.5500000000000004E-002     0.0000000000000000     
  -3.5450000000000002E-002     0.0000000000000000     
  -3.5400000000000001E-002     0.0000000000000000     
  -3.5349999999999999E-002     0.0000000000000000     
  -3.5299999999999998E-002     0.0000000000000000     
  -3.5250000000000004E-002     0.0000000000000000     
  -3.5200000000000002E-002     0.0000000000000000     
  -3.5150000000000001E-002     0.0000000000000000     
  -3.5099999999999999E-002     0.0000000000000000     
  -3.5049999999999998E-002     0.0000000000000000     
  -3.5000000000000003E-002     0.0000000000000000     
  -3.4950000000000002E-002     0.0000000000000000     
  -3.4900000000000000E-002     0.0000000000000000     
  -3.4849999999999999E-002     0.0000000000000000     
  -3.4799999999999998E-002     0.0000000000000000     
  -3.4750000000000003E-002     0.0000000000000000     
  -3.4700000000000002E-002     0.0000000000000000     
  -3.4650000000000000E-002     0.0000000000000000     
  -3.4599999999999999E-002     0.0000000000000000     
  -3.4549999999999997E-002     0.0000000000000000     
  -3.4500000000000003E-002     0.0000000000000000     
  -3.4450000000000001E-002     0.0000000000000000     
  -3.4400000000000000E-002     0.0000000000000000     
  -3.4349999999999999E-002     0.0000000000000000     
  -3.4299999999999997E-002     0.0000000000000000     
  -3.4250000000000003E-002     0.0000000000000000     
  -3.4200000000000001E-002     0.0000000000000000     
  -3.4150000000000000E-002     0.0000000000000000     
  -3.4099999999999998E-002     0.0000000000000000     
  -3.4049999999999997E-002     0.0000000000000000     
  -3.4000000000000002E-002     0.0000000000000000     
  -3.3950000000000001E-002     0.0000000000000000     
  -3.3900000000000000E-002     0.0000000000000000     
  -3.3849999999999998E-002     0.0000000000000000     
  -3.3799999999999997E-002     0.0000000000000000     
  -3.3750000000000002E-002     0.0000000000000000     
  -3.3700000000000001E-002     0.0000000000000000     
  -3.3649999999999999E-002     0.0000000000000000     
  -3.3599999999999998E-002     0.0000000000000000     
  -3.3550000000000003E-002     0.0000000000000000     
  -3.3500000000000002E-002     0.0000000000000000     
  -3.3450000000000001E-002     0.0000000000000000     
  -3.3399999999999999E-002     0.0000000000000000     
  -3.3349999999999998E-002     0.0000000000000000     
  -3.3300000000000003E-002     0.0000000000000000     
  -3.3250000000000002E-002     0.0000000000000000     
  -3.3200000000000000E-002     0.0000000000000000     
  -3.3149999999999999E-002     0.0000000000000000     
  -3.3099999999999997E-002     0.0000000000000000     
  -3.3050000000000003E-002     0.0000000000000000     
  -3.3000000000000002E-002     0.0000000000000000     
  -3.2950000000000000E-002     0.0000000000000000     
  -3.2899999999999999E-002     0.0000000000000000     
  -3.2850000000000004E-002     0.0000000000000000     
  -3.2800000000000003E-002     0.0000000000000000     
  -3.2750000000000001E-002     0.0000000000000000     
  -3.2700000000000000E-002     0.0000000000000000     
  -3.2649999999999998E-002     0.0000000000000000     
  -3.2600000000000004E-002     0.0000000000000000     
  -3.2550000000000003E-002     0.0000000000000000     
  -3.2500000000000001E-002     0.0000000000000000     
  -3.2450000000000000E-002     0.0000000000000000     
  -3.2399999999999998E-002     0.0000000000000000     
  -3.2350000000000004E-002     0.0000000000000000     
  -3.2300000000000002E-002     0.0000000000000000     
  -3.2250000000000001E-002     0.0000000000000000     
  -3.2199999999999999E-002     0.0000000000000000     
  -3.2149999999999998E-002     0.0000000000000000     
  -3.2100000000000004E-002     0.0000000000000000     
  -3.2050000000000002E-002     0.0000000000000000     
  -3.2000000000000001E-002     0.0000000000000000     
  -3.1949999999999999E-002     0.0000000000000000     
  -3.1899999999999998E-002     0.0000000000000000     
  -3.1850000000000003E-002     0.0000000000000000     
  -3.1800000000000002E-002     0.0000000000000000     
  -3.1750000000000000E-002     0.0000000000000000     
  -3.1699999999999999E-002     0.0000000000000000     
  -3.1649999999999998E-002     0.0000000000000000     
  -3.1600000000000003E-002     0.0000000000000000     
  -3.1550000000000002E-002     0.0000000000000000     
  -3.1500000000000000E-002     0.0000000000000000     
  -3.1449999999999999E-002     0.0000000000000000     
  -3.1399999999999997E-002     0.0000000000000000     
  -3.1350000000000003E-002     0.0000000000000000     
  -3.1300000000000001E-002     0.0000000000000000     
  -3.1250000000000000E-002     0.0000000000000000     
  -3.1199999999999999E-002     0.0000000000000000     
  -3.1150000000000001E-002     0.0000000000000000     
  -3.1100000000000003E-002     0.0000000000000000     
  -3.1050000000000001E-002     0.0000000000000000     
  -3.1000000000000000E-002     0.0000000000000000     
  -3.0949999999999998E-002     0.0000000000000000     
  -3.0900000000000000E-002     0.0000000000000000     
  -3.0850000000000002E-002     0.0000000000000000     
  -3.0800000000000001E-002     0.0000000000000000     
  -3.0750000000000000E-002     0.0000000000000000     
  -3.0699999999999998E-002     0.0000000000000000     
  -3.0650000000000000E-002     0.0000000000000000     
  -3.0600000000000002E-002     0.0000000000000000     
  -3.0550000000000001E-002     0.0000000000000000     
  -3.0499999999999999E-002     0.0000000000000000     
  -3.0449999999999998E-002     0.0000000000000000     
  -3.0400000000000000E-002     0.0000000000000000     
  -3.0350000000000002E-002     0.0000000000000000     
  -3.0300000000000001E-002     0.0000000000000000     
  -3.0249999999999999E-002     0.0000000000000000     
  -3.0200000000000001E-002     0.0000000000000000     
  -3.0150000000000000E-002     0.0000000000000000     
  -3.0100000000000002E-002     0.0000000000000000     
  -3.0050000000000000E-002     0.0000000000000000     
  -2.9999999999999999E-002     0.0000000000000000     
  -2.9950000000000001E-002     0.0000000000000000     
  -2.9899999999999999E-002     0.0000000000000000     
  -2.9850000000000002E-002     0.0000000000000000     
  -2.9800000000000000E-002     0.0000000000000000     
  -2.9749999999999999E-002     0.0000000000000000     
  -2.9700000000000001E-002     0.0000000000000000     
  -2.9650000000000003E-002     0.0000000000000000     
  -2.9600000000000001E-002     0.0000000000000000     
  -2.9550000000000000E-002     0.0000000000000000     
  -2.9499999999999998E-002     0.0000000000000000     
  -2.9450000000000000E-002     0.0000000000000000     
  -2.9400000000000003E-002     0.0000000000000000     
  -2.9350000000000001E-002     0.0000000000000000     
  -2.9300000000000000E-002     0.0000000000000000     
  -2.9249999999999998E-002     0.0000000000000000     
  -2.9200000000000000E-002     0.0000000000000000     
  -2.9150000000000002E-002     0.0000000000000000     
  -2.9100000000000001E-002     0.0000000000000000     
  -2.9049999999999999E-002     0.0000000000000000     
  -2.8999999999999998E-002     0.0000000000000000     
  -2.8950000000000000E-002     0.0000000000000000     
  -2.8900000000000002E-002     0.0000000000000000     
  -2.8850000000000001E-002     0.0000000000000000     
  -2.8799999999999999E-002     0.0000000000000000     
  -2.8749999999999998E-002     0.0000000000000000     
  -2.8700000000000000E-002     0.0000000000000000     
  -2.8650000000000002E-002     0.0000000000000000     
  -2.8600000000000000E-002     0.0000000000000000     
  -2.8549999999999999E-002     0.0000000000000000     
  -2.8500000000000001E-002     0.0000000000000000     
  -2.8450000000000000E-002     0.0000000000000000     
  -2.8400000000000002E-002     0.0000000000000000     
  -2.8350000000000000E-002     0.0000000000000000     
  -2.8299999999999999E-002     0.0000000000000000     
  -2.8250000000000001E-002     0.0000000000000000     
  -2.8200000000000003E-002     0.0000000000000000     
  -2.8150000000000001E-002     0.0000000000000000     
  -2.8100000000000000E-002     0.0000000000000000     
  -2.8049999999999999E-002     0.0000000000000000     
  -2.8000000000000001E-002     0.0000000000000000     
  -2.7950000000000003E-002     0.0000000000000000     
  -2.7900000000000001E-002     0.0000000000000000     
  -2.7850000000000000E-002     0.0000000000000000     
  -2.7799999999999998E-002     0.0000000000000000     
  -2.7750000000000000E-002     0.0000000000000000     
  -2.7700000000000002E-002     0.0000000000000000     
  -2.7650000000000001E-002     0.0000000000000000     
  -2.7600000000000000E-002     0.0000000000000000     
  -2.7549999999999998E-002     0.0000000000000000     
  -2.7500000000000000E-002     0.0000000000000000     
  -2.7450000000000002E-002     0.0000000000000000     
  -2.7400000000000001E-002     0.0000000000000000     
  -2.7349999999999999E-002     0.0000000000000000     
  -2.7299999999999998E-002     0.0000000000000000     
  -2.7250000000000000E-002     0.0000000000000000     
  -2.7200000000000002E-002     0.0000000000000000     
  -2.7150000000000001E-002     0.0000000000000000     
  -2.7099999999999999E-002     0.0000000000000000     
  -2.7049999999999998E-002     0.0000000000000000     
  -2.7000000000000000E-002     0.0000000000000000     
  -2.6950000000000002E-002     0.0000000000000000     
  -2.6900000000000000E-002     0.0000000000000000     
  -2.6849999999999999E-002     0.0000000000000000     
  -2.6800000000000001E-002     0.0000000000000000     
  -2.6749999999999999E-002     0.0000000000000000     
  -2.6700000000000002E-002     0.0000000000000000     
  -2.6650000000000000E-002     0.0000000000000000     
  -2.6599999999999999E-002     0.0000000000000000     
  -2.6550000000000001E-002     0.0000000000000000     
  -2.6500000000000003E-002     0.0000000000000000     
  -2.6450000000000001E-002     0.0000000000000000     
  -2.6400000000000000E-002     0.0000000000000000     
  -2.6349999999999998E-002     0.0000000000000000     
  -2.6300000000000000E-002     0.0000000000000000     
  -2.6250000000000002E-002     0.0000000000000000     
  -2.6200000000000001E-002     0.0000000000000000     
  -2.6150000000000000E-002     0.0000000000000000     
  -2.6099999999999998E-002     0.0000000000000000     
  -2.6050000000000000E-002     0.0000000000000000     
  -2.6000000000000002E-002     0.0000000000000000     
  -2.5950000000000001E-002     0.0000000000000000     
  -2.5899999999999999E-002     0.0000000000000000     
  -2.5849999999999998E-002     0.0000000000000000     
  -2.5800000000000000E-002     0.0000000000000000     
  -2.5750000000000002E-002     0.0000000000000000     
  -2.5700000000000001E-002     0.0000000000000000     
  -2.5649999999999999E-002     0.0000000000000000     
  -2.5599999999999998E-002     0.0000000000000000     
  -2.5550000000000000E-002     0.0000000000000000     
  -2.5500000000000002E-002     0.0000000000000000     
  -2.5450000000000000E-002     0.0000000000000000     
  -2.5399999999999999E-002     0.0000000000000000     
  -2.5349999999999998E-002     0.0000000000000000     
  -2.5300000000000000E-002     0.0000000000000000     
  -2.5250000000000002E-002     0.0000000000000000     
  -2.5200000000000000E-002     0.0000000000000000     
  -2.5149999999999999E-002     0.0000000000000000     
  -2.5100000000000001E-002     0.0000000000000000     
  -2.5049999999999999E-002     0.0000000000000000     
  -2.5000000000000001E-002     0.0000000000000000     
  -2.4950000000000000E-002     0.0000000000000000     
  -2.4899999999999999E-002     0.0000000000000000     
  -2.4850000000000001E-002     0.0000000000000000     
  -2.4800000000000003E-002     0.0000000000000000     
  -2.4750000000000001E-002     0.0000000000000000     
  -2.4700000000000000E-002     0.0000000000000000     
  -2.4649999999999998E-002     0.0000000000000000     
  -2.4600000000000000E-002     0.0000000000000000     
  -2.4550000000000002E-002     0.0000000000000000     
  -2.4500000000000001E-002     0.0000000000000000     
  -2.4450000000000000E-002     0.0000000000000000     
  -2.4399999999999998E-002     0.0000000000000000     
  -2.4350000000000000E-002     0.0000000000000000     
  -2.4299999999999999E-002     0.0000000000000000     
  -2.4250000000000001E-002     0.0000000000000000     
  -2.4199999999999999E-002     0.0000000000000000     
  -2.4150000000000001E-002     0.0000000000000000     
  -2.4100000000000000E-002     0.0000000000000000     
  -2.4049999999999998E-002     0.0000000000000000     
  -2.4000000000000000E-002     0.0000000000000000     
  -2.3949999999999999E-002     0.0000000000000000     
  -2.3900000000000001E-002     0.0000000000000000     
  -2.3850000000000000E-002     0.0000000000000000     
  -2.3800000000000002E-002     0.0000000000000000     
  -2.3750000000000000E-002     0.0000000000000000     
  -2.3699999999999999E-002     0.0000000000000000     
  -2.3650000000000001E-002     0.0000000000000000     
  -2.3599999999999999E-002     0.0000000000000000     
  -2.3550000000000001E-002     0.0000000000000000     
  -2.3500000000000000E-002     0.0000000000000000     
  -2.3449999999999999E-002     0.0000000000000000     
  -2.3400000000000001E-002     0.0000000000000000     
  -2.3349999999999999E-002     0.0000000000000000     
  -2.3300000000000001E-002     0.0000000000000000     
  -2.3250000000000000E-002     0.0000000000000000     
  -2.3199999999999998E-002     0.0000000000000000     
  -2.3150000000000000E-002     0.0000000000000000     
  -2.3099999999999999E-002     0.0000000000000000     
  -2.3050000000000001E-002     0.0000000000000000     
  -2.3000000000000000E-002     0.0000000000000000     
  -2.2950000000000002E-002     0.0000000000000000     
  -2.2900000000000000E-002     0.0000000000000000     
  -2.2849999999999999E-002     0.0000000000000000     
  -2.2800000000000001E-002     0.0000000000000000     
  -2.2749999999999999E-002     0.0000000000000000     
  -2.2700000000000001E-002     0.0000000000000000     
  -2.2650000000000000E-002     0.0000000000000000     
  -2.2599999999999999E-002     0.0000000000000000     
  -2.2550000000000001E-002     0.0000000000000000     
  -2.2499999999999999E-002     0.0000000000000000     
  -2.2450000000000001E-002     0.0000000000000000     
  -2.2400000000000000E-002     0.0000000000000000     
  -2.2349999999999998E-002     0.0000000000000000     
  -2.2300000000000000E-002     3.5295154936754151E-040
  -2.2249999999999999E-002     8.8576983377891838E-040
  -2.2200000000000001E-002     1.2299927616207085E-039
  -2.2150000000000000E-002     7.8360696899840339E-040
  -2.2100000000000002E-002    -1.0728643274246415E-039
  -2.2050000000000000E-002    -3.1884742196926927E-039
  -2.1999999999999999E-002    -5.2811927016399109E-039
  -2.1950000000000001E-002    -5.0909322389165965E-039
  -2.1899999999999999E-002    -2.3037807032499044E-039
  -2.1850000000000001E-002     3.5742553758801152E-039
  -2.1800000000000000E-002     1.0145986345644360E-038
  -2.1749999999999999E-002     1.5306895343008924E-038
  -2.1700000000000001E-002     1.6110694720889757E-038
  -2.1649999999999999E-002     1.4009732382813194E-038
  -2.1600000000000001E-002     4.3631512268026072E-039
  -2.1550000000000000E-002    -7.1063350472187551E-039
  -2.1499999999999998E-002    -2.1320063663576680E-038
  -2.1450000000000000E-002    -5.2209261776395365E-038
  -2.1399999999999999E-002    -9.0812179331393339E-038
  -2.1350000000000001E-002    -1.2086114332792079E-037
  -2.1299999999999999E-002    -9.0400963167371764E-038
  -2.1250000000000002E-002    -1.0123678476425204E-038
  -2.1200000000000000E-002     1.1438976952415208E-037
  -2.1149999999999999E-002     2.5737736943718810E-037
  -2.1100000000000001E-002     3.8288745167790948E-037
  -2.1049999999999999E-002     4.1745504479949630E-037
  -2.1000000000000001E-002     3.0273197576026859E-037
  -2.0950000000000000E-002     1.9604795568394767E-038
  -2.0899999999999998E-002    -3.8356257894019019E-037
  -2.0850000000000000E-002    -8.0504162165108897E-037
  -2.0799999999999999E-002    -1.0916366180831856E-036
  -2.0750000000000001E-002    -1.0908993027371736E-036
  -2.0700000000000000E-002    -7.0393903694195264E-037
  -2.0649999999999998E-002     5.6409476204161303E-038
  -2.0600000000000000E-002     1.0468310010631080E-036
  -2.0549999999999999E-002     2.0080454139595983E-036
  -2.0500000000000001E-002     2.6256460606068161E-036
  -2.0449999999999999E-002     2.6182740853813438E-036
  -2.0400000000000001E-002     1.8289372962375770E-036
  -2.0350000000000000E-002     2.9796844060538565E-037
  -2.0299999999999999E-002    -1.7162640295911665E-036
  -2.0250000000000001E-002    -3.7754612262090488E-036
  -2.0199999999999999E-002    -5.3507972316279651E-036
  -2.0150000000000001E-002    -5.9578852688294462E-036
  -2.0100000000000000E-002    -5.2600992397879542E-036
  -2.0049999999999998E-002    -3.1609676289175541E-036
  -2.0000000000000000E-002     1.7117623778506977E-037
  -1.9949999999999999E-002     4.3273586962522690E-036
  -1.9900000000000001E-002     8.7072712196470784E-036
  -1.9850000000000000E-002     1.2559022510217687E-035
  -1.9799999999999998E-002     1.4995181110628086E-035
  -1.9750000000000000E-002     1.5007620372883479E-035
  -1.9699999999999999E-002     1.1550110794171865E-035
  -1.9650000000000001E-002     3.7690193292256396E-036
  -1.9599999999999999E-002    -8.5663369862758570E-036
  -1.9550000000000001E-002    -2.4483568218849994E-035
  -1.9500000000000000E-002    -4.1259646369378498E-035
  -1.9449999999999999E-002    -5.4215715669445816E-035
  -1.9400000000000001E-002    -5.7204801352858843E-035
  -1.9349999999999999E-002    -4.4031240320744717E-035
  -1.9300000000000001E-002    -1.0752530945317537E-035
  -1.9250000000000000E-002     4.1610490307496380E-035
  -1.9199999999999998E-002     1.0485589097534764E-034
  -1.9150000000000000E-002     1.6302235094639749E-034
  -1.9099999999999999E-002     1.9447214866235100E-034
  -1.9050000000000001E-002     1.7705356558578487E-034
  -1.9000000000000000E-002     9.5728760678878869E-035
  -1.8949999999999998E-002    -4.9155179280595912E-035
  -1.8900000000000000E-002    -2.3574883807759782E-034
  -1.8849999999999999E-002    -4.1979786450643070E-034
  -1.8800000000000001E-002    -5.4121782531727704E-034
  -1.8749999999999999E-002    -5.3849008291503897E-034
  -1.8700000000000001E-002    -3.6853337837493847E-034
  -1.8650000000000000E-002    -2.7010740695781080E-035
  -1.8599999999999998E-002     4.3768888990555573E-034
  -1.8550000000000001E-002     9.2338739796133832E-034
  -1.8499999999999999E-002     1.2900547053572237E-033
  -1.8450000000000001E-002     1.3922434029844721E-033
  -1.8400000000000000E-002     1.1219501062083456E-033
  -1.8349999999999998E-002     4.5098230718074156E-034
  -1.8300000000000000E-002    -5.4040754596322739E-034
  -1.8249999999999999E-002    -1.6603371413267590E-033
  -1.8200000000000001E-002    -2.6337028052672520E-033
  -1.8149999999999999E-002    -3.1598663546415357E-033
  -1.8100000000000002E-002    -2.9882958558080070E-033
  -1.8050000000000000E-002    -1.9941422972972876E-033
  -1.7999999999999999E-002    -2.3371206958681771E-034
  -1.7950000000000001E-002     2.0365230759939481E-033
  -1.7899999999999999E-002     4.3853363429600848E-033
  -1.7850000000000001E-002     6.2740017672058827E-033
  -1.7800000000000000E-002     7.1535973447555911E-033
  -1.7749999999999998E-002     6.5754056443578455E-033
  -1.7700000000000000E-002     4.2973085810388292E-033
  -1.7649999999999999E-002     3.7235326062551049E-034
  -1.7600000000000001E-002    -4.7909631171511088E-033
  -1.7550000000000000E-002    -1.0407085292420791E-032
  -1.7499999999999998E-002    -1.5345449702786802E-032
  -1.7450000000000000E-002    -1.8237632837866180E-032
  -1.7399999999999999E-002    -1.7682785094495438E-032
  -1.7350000000000001E-002    -1.2562831245007430E-032
  -1.7299999999999999E-002    -2.4476816375321563E-033
  -1.7250000000000001E-002     1.1979128789429514E-032
  -1.7200000000000000E-002     2.8600172345157588E-032
  -1.7149999999999999E-002     4.3815193248330114E-032
  -1.7100000000000001E-002     5.2925497080743114E-032
  -1.7049999999999999E-002     5.1042884026693453E-032
  -1.7000000000000001E-002     3.4471366421875998E-032
  -1.6950000000000000E-002     2.3171756575681535E-033
  -1.6899999999999998E-002    -4.2107842281143747E-032
  -1.6850000000000000E-002    -9.0638938834174001E-032
  -1.6799999999999999E-002    -1.3088272223361396E-031
  -1.6750000000000001E-002    -1.4839951762616698E-031
  -1.6700000000000000E-002    -1.3031775861617875E-031
  -1.6649999999999998E-002    -6.9737456079346889E-032
  -1.6600000000000000E-002     3.0197134652493125E-032
  -1.6549999999999999E-002     1.5393666745650355E-031
  -1.6500000000000001E-002     2.7415010080774054E-031
  -1.6449999999999999E-002     3.5605265145974316E-031
  -1.6400000000000001E-002     3.6521953228582671E-031
  -1.6350000000000000E-002     2.7753863507360876E-031
  -1.6299999999999999E-002     8.8950652595972920E-032
  -1.6250000000000001E-002    -1.7791388064171306E-031
  -1.6199999999999999E-002    -4.7288675591597360E-031
  -1.6150000000000001E-002    -7.2484581352666285E-031
  -1.6100000000000000E-002    -8.5562751075337966E-031
  -1.6049999999999998E-002    -7.9910035480768338E-031
  -1.6000000000000000E-002    -5.2138483383708668E-031
  -1.5949999999999999E-002    -3.7135683237684785E-032
  -1.5900000000000001E-002     5.8308399173513541E-031
  -1.5850000000000000E-002     1.2178808642529411E-030
  -1.5799999999999998E-002     1.7135982418695552E-030
  -1.5750000000000000E-002     1.9143352115182332E-030
  -1.5699999999999999E-002     1.6984542014243905E-030
  -1.5650000000000001E-002     1.0144878582993668E-030
  -1.5599999999999999E-002    -9.1475223162057958E-032
  -1.5550000000000001E-002    -1.4642092473947479E-030
  -1.5500000000000000E-002    -2.8488689699984877E-030
  -1.5449999999999998E-002    -3.9238491766216981E-030
  -1.5400000000000000E-002    -4.3554810208650589E-030
  -1.5349999999999999E-002    -3.8689103311251545E-030
  -1.5300000000000001E-002    -2.3252330645352193E-030
  -1.5250000000000000E-002     2.0904052406701231E-031
  -1.5199999999999998E-002     3.4171612935742910E-030
  -1.5150000000000000E-002     6.7298746173896118E-030
  -1.5099999999999999E-002     9.3809790059400798E-030
  -1.5050000000000001E-002     1.0528358914916563E-029
  -1.4999999999999999E-002     9.4348533743394416E-030
  -1.4949999999999998E-002     5.6854309974207685E-030
  -1.4900000000000000E-002    -6.0223631873031140E-031
  -1.4849999999999999E-002    -8.6320976588761283E-030
  -1.4800000000000001E-002    -1.6911960449845791E-029
  -1.4749999999999999E-002    -2.3414560510172730E-029
  -1.4700000000000001E-002    -2.5936264697182828E-029
  -1.4650000000000000E-002    -2.2622320162672870E-029
  -1.4599999999999998E-002    -1.2568829452513743E-029
  -1.4550000000000000E-002     3.6410559891542585E-030
  -1.4499999999999999E-002     2.3637239599534325E-029
  -1.4450000000000001E-002     4.3356540635943383E-029
  -1.4400000000000000E-002     5.7624249033906342E-029
  -1.4349999999999998E-002     6.1207175971201330E-029
  -1.4300000000000000E-002     5.0184381052852217E-029
  -1.4249999999999999E-002     2.3349206822339497E-029
  -1.4200000000000001E-002    -1.6730597587396252E-029
  -1.4149999999999999E-002    -6.3372828843983253E-029
  -1.4099999999999998E-002    -1.0643911156387279E-028
  -1.4050000000000000E-002    -1.3406871771210392E-028
  -1.3999999999999999E-002    -1.3529520731065488E-028
  -1.3950000000000001E-002    -1.0307302682948757E-028
  -1.3899999999999999E-002    -3.7025775286169756E-029
  -1.3850000000000001E-002     5.4852864841665808E-029
  -1.3800000000000000E-002     1.5621196394331434E-028
  -1.3749999999999998E-002     2.4444284586443572E-028
  -1.3700000000000000E-002     2.9479371936794108E-028
  -1.3649999999999999E-002     2.8591706320846686E-028
  -1.3600000000000001E-002     2.0580583120649077E-028
  -1.3550000000000000E-002     5.6778711631112369E-029
  -1.3499999999999998E-002    -1.4185806672582004E-028
  -1.3450000000000000E-002    -3.5456799973110809E-028
  -1.3399999999999999E-002    -5.3428474546507807E-028
  -1.3350000000000001E-002    -6.3079337432741634E-028
  -1.3299999999999999E-002    -6.0166197769440441E-028
  -1.3249999999999998E-002    -4.2380948297124142E-028
  -1.3200000000000000E-002    -1.0326830332559775E-028
  -1.3149999999999998E-002     3.1942357386185685E-028
  -1.3100000000000001E-002     7.7038148094609846E-028
  -1.3049999999999999E-002     1.1513467044607909E-027
  -1.3000000000000001E-002     1.3563396721312207E-027
  -1.2950000000000000E-002     1.2941488304256936E-027
  -1.2899999999999998E-002     9.1305698834498252E-028
  -1.2850000000000000E-002     2.2276200867697396E-028
  -1.2799999999999999E-002    -6.9227341702937938E-028