  -4.0000000000000001E-002     0.0000000000000000     
  -3.9949999999999999E-002     0.0000000000000000     
  -3.9899999999999998E-002     0.0000000000000000     
  -3.9850000000000003E-002     0.0000000000000000     
  -3.9800000000000002E-002     0.0000000000000000     
  -3.9750000000000001E-002     0.0000000000000000     
  -3.9699999999999999E-002     0.0000000000000000     
  -3.9649999999999998E-002     0.0000000000000000     
  -3.9600000000000003E-002     0.0000000000000000     
  -3.9550000000000002E-002     0.0000000000000000     
  -3.9500000000000000E-002     0.0000000000000000     
  -3.9449999999999999E-002     0.0000000000000000     
  -3.9399999999999998E-002     0.0000000000000000     
  -3.9350000000000003E-002     0.0000000000000000     
  -3.9300000000000002E-002     0.0000000000000000     
  -3.9250000000000000E-002     0.0000000000000000     
  -3.9199999999999999E-002     0.0000000000000000     
  -3.9150000000000004E-002     0.0000000000000000     
  -3.9100000000000003E-002     0.0000000000000000     
  -3.9050000000000001E-002     0.0000000000000000     
  -3.9000000000000000E-002     0.0000000000000000     
  -3.8949999999999999E-002     0.0000000000000000     
  -3.8900000000000004E-002     0.0000000000000000     
  -3.8850000000000003E-002     0.0000000000000000     
  -3.8800000000000001E-002     0.0000000000000000     
  -3.8750000000000000E-002     0.0000000000000000     
  -3.8699999999999998E-002     0.0000000000000000     
  -3.8650000000000004E-002     0.0000000000000000     
  -3.8600000000000002E-002     0.0000000000000000     
  -3.8550000000000001E-002     0.0000000000000000     
  -3.8500000000000000E-002     0.0000000000000000     
  -3.8449999999999998E-002     0.0000000000000000     
  -3.8400000000000004E-002     0.0000000000000000     
  -3.8350000000000002E-002     0.0000000000000000     
  -3.8300000000000001E-002     0.0000000000000000     
  -3.8249999999999999E-002     0.0000000000000000     
  -3.8199999999999998E-002     0.0000000000000000     
  -3.8150000000000003E-002     0.0000000000000000     
  -3.8100000000000002E-002     0.0000000000000000     
  -3.8050000000000000E-002     0.0000000000000000     
  -3.7999999999999999E-002     0.0000000000000000     
  -3.7949999999999998E-002     0.0000000000000000     
  -3.7900000000000003E-002     0.0000000000000000     
  -3.7850000000000002E-002     0.0000000000000000     
  -3.7800000000000000E-002     0.0000000000000000     
  -3.7749999999999999E-002     0.0000000000000000     
  -3.7699999999999997E-002     0.0000000000000000     
  -3.7650000000000003E-002     0.0000000000000000     
  -3.7600000000000001E-002     0.0000000000000000     
  -3.7550000000000000E-002     0.0000000000000000     
  -3.7499999999999999E-002     0.0000000000000000     
  -3.7449999999999997E-002     0.0000000000000000     
  -3.7400000000000003E-002     0.0000000000000000     
  -3.7350000000000001E-002     0.0000000000000000     
  -3.7300000000000000E-002     0.0000000000000000     
  -3.7249999999999998E-002     0.0000000000000000     
  -3.7200000000000004E-002     0.0000000000000000     
  -3.7150000000000002E-002     0.0000000000000000     
  -3.7100000000000001E-002     0.0000000000000000     
  -3.7050000000000000E-002     0.0000000000000000     
  -3.6999999999999998E-002     0.0000000000000000     
  -3.6950000000000004E-002     0.0000000000000000     
  -3.6900000000000002E-002     0.0000000000000000     
  -3.6850000000000001E-002     0.0000000000000000     
  -3.6799999999999999E-002     0.0000000000000000     
  -3.6749999999999998E-002     0.0000000000000000     
  -3.6700000000000003E-002     0.0000000000000000     
  -3.6650000000000002E-002     0.0000000000000000     
  -3.6600000000000001E-002     0.0000000000000000     
  -3.6549999999999999E-002     0.0000000000000000     
  -3.6499999999999998E-002     0.0000000000000000     
  -3.6450000000000003E-002     0.0000000000000000     
  -3.6400000000000002E-002     0.0000000000000000     
  -3.6350000000000000E-002     0.0000000000000000     
  -3.6299999999999999E-002     0.0000000000000000     
  -3.6249999999999998E-002     0.0000000000000000     
  -3.6200000000000003E-002     0.0000000000000000     
  -3.6150000000000002E-002     0.0000000000000000     
  -3.6100000000000000E-002     0.0000000000000000     
  -3.6049999999999999E-002     0.0000000000000000     
  -3.6000000000000004E-002     0.0000000000000000     
  -3.5950000000000003E-002     0.0000000000000000     
  -3.5900000000000001E-002     0.0000000000000000     
  -3.5850000000000000E-002     0.0000000000000000     
  -3.5799999999999998E-002     0.0000000000000000     
  -3.5750000000000004E-002     0.0000000000000000     
  -3.5700000000000003E-002     0.0000000000000000     
  -3.5650000000000001E-002     0.0000000000000000     
  -3.5600000000000000E-002     0.0000000000000000     
  -3.5549999999999998E-002     0.0000000000000000     
  -3.5500000000000004E-002     0.0000000000000000     
  -3.5450000000000002E-002     0.0000000000000000     
  -3.5400000000000001E-002     0.0000000000000000     
  -3.5349999999999999E-002     0.0000000000000000     
  -3.5299999999999998E-002     0.0000000000000000     
  -3.5250000000000004E-002     0.0000000000000000     
  -3.5200000000000002E-002     0.0000000000000000     
  -3.5150000000000001E-002     0.0000000000000000     
  -3.5099999999999999E-002     0.0000000000000000     
  -3.5049999999999998E-002     0.0000000000000000     
  -3.5000000000000003E-002     0.0000000000000000     
  -3.4950000000000002E-002     0.0000000000000000     
  -3.4900000000000000E-002     0.0000000000000000     
  -3.4849999999999999E-002     0.0000000000000000     
  -3.4799999999999998E-002     0.0000000000000000     
  -3.4750000000000003E-002     0.0000000000000000     
  -3.4700000000000002E-002     0.0000000000000000     
  -3.4650000000000000E-002     0.0000000000000000     
  -3.4599999999999999E-002     0.0000000000000000     
  -3.4549999999999997E-002     0.0000000000000000     
  -3.4500000000000003E-002     0.0000000000000000     
  -3.4450000000000001E-002     0.0000000000000000     
  -3.4400000000000000E-002     0.0000000000000000     
  -3.4349999999999999E-002     0.0000000000000000     
  -3.4299999999999997E-002     0.0000000000000000     
  -3.4250000000000003E-002     0.0000000000000000     
  -3.4200000000000001E-002     0.0000000000000000     
  -3.4150000000000000E-002     0.0000000000000000     
  -3.4099999999999998E-002     0.0000000000000000     
  -3.4049999999999997E-002     0.0000000000000000     
  -3.4000000000000002E-002     0.0000000000000000     
  -3.3950000000000001E-002     0.0000000000000000     
  -3.3900000000000000E-002     0.0000000000000000     
  -3.3849999999999998E-002     0.0000000000000000     
  -3.3799999999999997E-002     0.0000000000000000     
  -3.3750000000000002E-002     0.0000000000000000     
  -3.3700000000000001E-002     0.0000000000000000     
  -3.3649999999999999E-002     0.0000000000000000     
  -3.3599999999999998E-002     0.0000000000000000     
  -3.3550000000000003E-002     0.0000000000000000     
  -3.3500000000000002E-002     0.0000000000000000     
  -3.3450000000000001E-002     0.0000000000000000     
  -3.3399999999999999E-002     0.0000000000000000     
  -3.3349999999999998E-002     0.0000000000000000     
  -3.3300000000000003E-002     0.0000000000000000     
  -3.3250000000000002E-002     0.0000000000000000     
  -3.3200000000000000E-002     0.0000000000000000     
  -3.3149999999999999E-002     0.0000000000000000     
  -3.3099999999999997E-002     0.0000000000000000     
  -3.3050000000000003E-002     0.0000000000000000     
  -3.3000000000000002E-002     0.0000000000000000     
  -3.2950000000000000E-002     0.0000000000000000     
  -3.2899999999999999E-002     0.0000000000000000     
  -3.2850000000000004E-002     0.0000000000000000     
  -3.2800000000000003E-002     0.0000000000000000     
  -3.2750000000000001E-002     0.0000000000000000     
  -3.2700000000000000E-002     0.0000000000000000     
  -3.2649999999999998E-002     0.0000000000000000     
  -3.2600000000000004E-002     0.0000000000000000     
  -3.2550000000000003E-002     0.0000000000000000     
  -3.2500000000000001E-002     0.0000000000000000     
  -3.2450000000000000E-002    -2.1313707207838594E-040
  -3.2399999999999998E-002    -4.8707803262175925E-040
  -3.2350000000000004E-002    -2.6710573858881972E-040
  -3.2300000000000002E-002     6.4371203726623369E-040
  -3.2250000000000001E-002     2.6107560219783683E-039
  -3.2199999999999999E-002     4.1232142187311467E-039
  -3.2149999999999998E-002     4.2310511153239454E-039
  -3.2100000000000004E-002     4.9258435935125572E-041
  -3.2050000000000002E-002    -7.7829794272514051E-039
  -3.2000000000000001E-002    -3.6987389325529986E-038
  -3.1949999999999999E-002    -7.0146422625554480E-038
  -3.1899999999999998E-002    -8.8365670708987814E-038
  -3.1850000000000003E-002    -5.4392978189264142E-038
  -3.1800000000000002E-002     5.4557351396644491E-038
  -3.1750000000000000E-002     2.1774051005098184E-037
  -3.1699999999999999E-002     3.8417496383647179E-037
  -3.1649999999999998E-002     4.9216792628675339E-037
  -3.1600000000000003E-002     4.5727142674200310E-037
  -3.1550000000000002E-002     2.0578964605386923E-037
  -3.1500000000000000E-002    -3.0463003001249670E-037
  -3.1449999999999999E-002    -1.0433293536201569E-036
  -3.1399999999999997E-002    -1.8789198098534962E-036
  -3.1350000000000003E-002    -2.5603431531653187E-036
  -3.1300000000000001E-002    -2.7251622868803281E-036
  -3.1250000000000000E-002    -1.9564011905121231E-036
  -3.1199999999999999E-002     9.8968793338044017E-038
  -3.1150000000000001E-002     3.5461084900857388E-036
  -3.1100000000000003E-002     8.0191792344467972E-036
  -3.1050000000000001E-002     1.2483912525665277E-035
  -3.1000000000000000E-002     1.5176398796295045E-035
  -3.0949999999999998E-002     1.3819546613497880E-035
  -3.0900000000000000E-002     6.2258283947152725E-036
  -3.0850000000000002E-002    -8.7094289169524573E-036
  -3.0800000000000001E-002    -2.9813676184873549E-035
  -3.0750000000000000E-002    -5.2661955293118438E-035
  -3.0699999999999998E-002    -6.9411494449900110E-035
  -3.0650000000000000E-002    -7.0017772891886420E-035
  -3.0600000000000002E-002    -4.5091469578020230E-035
  -3.0550000000000001E-002     9.9669517994160312E-036
  -3.0499999999999999E-002     9.0690267758012309E-035
  -3.0449999999999998E-002     1.8088147127813928E-034
  -3.0400000000000000E-002     2.5340049929648242E-034
  -3.0350000000000002E-002     2.7548993415415801E-034
  -3.0300000000000001E-002     2.1817780325646495E-034
  -3.0249999999999999E-002     6.7399488946670608E-035
  -3.0200000000000001E-002    -1.6692411593840380E-034
  -3.0150000000000000E-002    -4.4763198325035122E-034
  -3.0100000000000002E-002    -7.1484588499571916E-034
  -3.0050000000000000E-002    -8.9701367458296358E-034
  -2.9999999999999999E-002    -9.2412084945256887E-034
  -2.9950000000000001E-002    -7.3780262225600912E-034
  -2.9899999999999999E-002    -2.9590187877080951E-034
  -2.9850000000000002E-002     4.2477009403077106E-034
  -2.9800000000000000E-002     1.4171259738863271E-033
  -2.9749999999999999E-002     2.6119297808639874E-033
  -2.9700000000000001E-002     3.8218561091425255E-033
  -2.9650000000000003E-002     4.6783380984706788E-033
  -2.9600000000000001E-002     4.6047831068621251E-033
  -2.9550000000000000E-002     2.8890333606009926E-033
  -2.9499999999999998E-002    -1.0889437332846014E-033
  -2.9450000000000000E-002    -7.4665685026407006E-033
  -2.9400000000000003E-002    -1.5428312807285425E-032
  -2.9350000000000001E-002    -2.2847308480938728E-032
  -2.9300000000000000E-002    -2.6308715799362505E-032
  -2.9249999999999998E-002    -2.1769785452718856E-032
  -2.9200000000000000E-002    -5.9549021416414818E-033
  -2.9150000000000002E-002     2.1716758822195682E-032
  -2.9100000000000001E-002     5.7247910926107605E-032
  -2.9049999999999999E-002     9.1105827366769752E-032
  -2.8999999999999998E-002     1.0912460352372020E-031
  -2.8950000000000000E-002     9.5849553639262787E-032
  -2.8900000000000002E-002     4.0121126118801036E-032
  -2.8850000000000001E-002    -5.8367075006543827E-032
  -2.8799999999999999E-002    -1.8379059678870740E-031
  -2.8749999999999998E-002    -3.0290179972854922E-031
  -2.8700000000000000E-002    -3.6992733750650222E-031
  -2.8650000000000002E-002    -3.3825328932273744E-031
  -2.8600000000000000E-002    -1.7704606211370584E-031
  -2.8549999999999999E-002     1.1161990617100422E-031
  -2.8500000000000001E-002     4.8125915877602499E-031
  -2.8450000000000000E-002     8.4110032025298621E-031
  -2.8400000000000002E-002     1.0713998274784857E-030
  -2.8350000000000000E-002     1.0530719733655043E-030
  -2.8299999999999999E-002     7.0554896219970958E-031
  -2.8250000000000001E-002     2.2585223717210906E-032
  -2.8200000000000003E-002    -9.0567712073124255E-031
  -2.8150000000000001E-002    -1.8936761937416050E-030
  -2.8100000000000000E-002    -2.6879067249242101E-030
  -2.8049999999999999E-002    -3.0169317367778012E-030
  -2.8000000000000001E-002    -2.6535439848902144E-030
  -2.7950000000000003E-002    -1.4757567098812260E-030
  -2.7900000000000001E-002     4.8514991589530969E-031
  -2.7850000000000000E-002     3.0164802061710982E-030
  -2.7799999999999998E-002     5.7178455072045424E-030
  -2.7750000000000000E-002     8.0172733299932348E-030
  -2.7700000000000002E-002     9.2143005362871363E-030
  -2.7650000000000001E-002     8.5626339483980808E-030
  -2.7600000000000000E-002     5.4108622807510992E-030
  -2.7549999999999998E-002    -5.8532065560885636E-031
  -2.7500000000000000E-002    -9.1894201368817880E-030
  -2.7450000000000002E-002    -1.9302239684853595E-029
  -2.7400000000000001E-002    -2.8778106346399823E-029
  -2.7349999999999999E-002    -3.4486732782167118E-029
  -2.7299999999999998E-002    -3.2767962701197233E-029
  -2.7250000000000000E-002    -2.0358590412367442E-029
  -2.7200000000000002E-002     4.2756936433221514E-030
  -2.7150000000000001E-002     3.9474013852045506E-029
  -2.7099999999999999E-002     7.9256945870495219E-029
  -2.7049999999999998E-002     1.1314799230144092E-028
  -2.7000000000000000E-002     1.2749325975765203E-028
  -2.6950000000000002E-002     1.0854736012628031E-028
  -2.6900000000000000E-002     4.7070343286326288E-029
  -2.6849999999999999E-002    -5.6487348764099314E-029
  -2.6800000000000001E-002    -1.8776326452345886E-028
  -2.6749999999999999E-002    -3.1711471280956504E-028
  -2.6700000000000002E-002    -4.0280119143170089E-028
  -2.6650000000000000E-002    -3.9954346876602478E-028
  -2.6599999999999999E-002    -2.7177470347767995E-028
  -2.6550000000000001E-002    -9.0325244829997512E-030
  -2.6500000000000003E-002     3.6077009066559306E-028
  -2.6450000000000001E-002     7.6536546860685850E-028
  -2.6400000000000000E-002     1.0941192272436830E-027
  -2.6349999999999998E-002     1.2184301089448281E-027
  -2.6300000000000000E-002     1.0251657036358200E-027
  -2.6250000000000002E-002     4.5707411898019588E-028
  -2.6200000000000001E-002    -4.5016799057664434E-028
  -2.6150000000000000E-002    -1.5469639303244871E-027
  -2.6099999999999998E-002    -2.5765954273978413E-027
  -2.6050000000000000E-002    -3.2165718521487917E-027
  -2.6000000000000002E-002    -3.1526998384634810E-027
  -2.5950000000000001E-002    -2.1735037976533566E-027
  -2.5899999999999999E-002    -2.6291988275346262E-028
  -2.5849999999999998E-002     2.3364367929989731E-027
  -2.5800000000000000E-002     5.1159109071179853E-027
  -2.5750000000000002E-002     7.3664184435433835E-027
  -2.5700000000000001E-002     8.3174339952653222E-027
  -2.5649999999999999E-002     7.3291861206725964E-027
  -2.5599999999999998E-002     4.0985976733648445E-027
  -2.5550000000000000E-002    -1.1727097041036634E-027
  -2.5500000000000002E-002    -7.7005901809718077E-027
  -2.5450000000000000E-002    -1.4169799006230285E-026
  -2.5399999999999999E-002    -1.8928654601400562E-026
  -2.5349999999999998E-002    -2.0308902798592626E-026
  -2.5300000000000000E-002    -1.7021032715503713E-026
  -2.5250000000000002E-002    -8.5512694299375365E-027
  -2.5200000000000000E-002     4.5247382086692257E-027
  -2.5149999999999999E-002     2.0392820970628225E-026
  -2.5100000000000001E-002     3.6079702747636952E-026
  -2.5049999999999999E-002     4.7796850405917660E-026
  -2.5000000000000001E-002     5.1548753483098741E-026
  -2.4950000000000000E-002     4.3962470823245864E-026
  -2.4899999999999999E-002     2.3244610719694338E-026
  -2.4850000000000001E-002    -9.8860818843633381E-027
  -2.4800000000000003E-002    -5.1501274547824164E-026
  -2.4750000000000001E-002    -9.4255757699967737E-026
  -2.4700000000000000E-002    -1.2792881815622358E-025
  -2.4649999999999998E-002    -1.4090383913341697E-025
  -2.4600000000000000E-002    -1.2260964417440947E-025
  -2.4550000000000002E-002    -6.6681138901804212E-026
  -2.4500000000000001E-002     2.5733040116241403E-026
  -2.4450000000000000E-002     1.4339985409736177E-025
  -2.4399999999999998E-002     2.6422837269507916E-025
  -2.4350000000000000E-002     3.5726598978299965E-025
  -2.4299999999999999E-002     3.8799489318279357E-025
  -2.4250000000000001E-002     3.2665770661075827E-025
  -2.4199999999999999E-002     1.5829891709379362E-025
  -2.4150000000000001E-002    -1.0782200337605062E-025
  -2.4100000000000000E-002    -4.3246458435525456E-025
  -2.4049999999999998E-002    -7.4727507191361956E-025
  -2.4000000000000000E-002    -9.6429568266364893E-025
  -2.3949999999999999E-002    -9.9418991935373280E-025
  -2.3900000000000001E-002    -7.7067225862653528E-025
  -2.3850000000000000E-002    -2.7599885616276549E-025
  -2.3800000000000002E-002     4.3949605564074200E-025
  -2.3750000000000000E-002     1.2511529780318558E-024
  -2.3699999999999999E-002     1.9725905324347097E-024
  -2.3650000000000001E-002     2.3888306761728305E-024
  -2.3599999999999999E-002     2.3062263873965252E-024
  -2.3550000000000001E-002     1.6097755746518876E-024
  -2.3500000000000000E-002     3.1402824668283372E-025
  -2.3449999999999999E-002    -1.4077490421293259E-024
  -2.3400000000000001E-002    -3.2290919947966059E-024
  -2.3349999999999999E-002    -4.7170339828417864E-024
  -2.3300000000000001E-002    -5.4169252249055001E-024
  -2.3250000000000000E-002    -4.9617283494737192E-024
  -2.3199999999999998E-002    -3.1831238084709717E-024
  -2.3150000000000000E-002    -1.9699331499291504E-025
  -2.3099999999999999E-002     3.5627757582860076E-024
  -2.3050000000000001E-002     7.3801417758463733E-024
  -2.3000000000000000E-002     1.0366725048186794E-023
  -2.2950000000000002E-002     1.1633210426934373E-023
  -2.2900000000000000E-002     1.0493899365005254E-023
  -2.2849999999999999E-002     6.6642156646649123E-024
  -2.2800000000000001E-002     4.0655013816664200E-025
  -2.2749999999999999E-002    -7.4157639626240013E-024
  -2.2700000000000001E-002    -1.5403461010903995E-023
  -2.2650000000000000E-002    -2.1812659079198060E-023
  -2.2599999999999999E-002    -2.4856295428171895E-023
  -2.2550000000000001E-002    -2.3075887810202211E-023
  -2.2499999999999999E-002    -1.5723874780509640E-023
  -2.2450000000000001E-002    -3.0835650692492792E-024
  -2.2400000000000000E-002     1.3349833946129672E-023
  -2.2349999999999998E-002     3.0895148182702461E-023
  -2.2300000000000000E-002     4.5963926421837293E-023
  -2.2249999999999999E-002     5.4600903686831305E-023
  -2.2200000000000001E-002     5.3245463654040035E-023
  -2.2150000000000000E-002     3.9615334888147364E-023
  -2.2100000000000002E-002     1.3556695046813046E-023
  -2.2050000000000000E-002    -2.2337718236262846E-023
  -2.1999999999999999E-002    -6.2552648525544588E-023
  -2.1950000000000001E-002    -9.9092406016780276E-023
  -2.1899999999999999E-002    -1.2262693313248599E-022
  -2.1850000000000001E-002    -1.2428503097885480E-022
  -2.1800000000000000E-002    -9.7859954852677178E-023
  -2.1749999999999999E-002    -4.2015582411916267E-023
  -2.1700000000000001E-002     3.8047537241046054E-023
  -2.1649999999999999E-002     1.3003582782378845E-022
  -2.1600000000000001E-002     2.1557448155113030E-022
  -2.1550000000000000E-002     2.7298073056413252E-022
  -2.1499999999999998E-002     2.8159762635199421E-022
  -2.1450000000000000E-002     2.2703251910715189E-022
  -2.1399999999999999E-002     1.0623465667836026E-022
  -2.1350000000000001E-002    -6.8897601410693109E-023
  -2.1299999999999999E-002    -2.7065395649367829E-022
  -2.1250000000000002E-002    -4.5829433941904620E-022
  -2.1200000000000000E-002    -5.8467610960647665E-022
  -2.1149999999999999E-002    -6.0600507385930432E-022
  -2.1100000000000001E-002    -4.9303676154616998E-022
  -2.1049999999999999E-002    -2.4131367009606924E-022
  -2.1000000000000001E-002     1.2227015989291358E-022
  -2.0950000000000000E-002     5.3895724495570032E-022
  -2.0899999999999998E-002     9.2505868833589211E-022
  -2.0850000000000000E-002     1.1861890145619563E-021
  -2.0799999999999999E-002     1.2368706812304969E-021
  -2.0750000000000001E-002     1.0219277358330545E-021
  -2.0700000000000000E-002     5.3500562247443043E-022
  -2.0649999999999998E-002    -1.7058494492473165E-022
  -2.0600000000000000E-002    -9.8253961816401900E-022
  -2.0549999999999999E-002    -1.7435687509942602E-021
  -2.0500000000000001E-002    -2.2778283495338667E-021
  -2.0449999999999999E-002    -2.4259413041696915E-021
  -2.0400000000000001E-002    -2.0823227728107561E-021
  -2.0350000000000000E-002    -1.2271318083465995E-021
  -2.0299999999999999E-002     5.4729307554141291E-023
  -2.0250000000000001E-002     1.5734501561523480E-021
  -2.0199999999999999E-002     3.0557593922059781E-021
  -2.0150000000000001E-002     4.1867804936643721E-021
  -2.0100000000000000E-002     4.6669285935734085E-021
  -2.0049999999999998E-002     4.2749218937315761E-021
  -2.0000000000000000E-002     2.9256758204091523E-021
  -1.9949999999999999E-002     7.1130490933254070E-022
  -1.9900000000000001E-002    -2.0851305604655234E-021
  -1.9850000000000000E-002    -5.0101848285826634E-021
  -1.9799999999999998E-002    -7.4970175845547911E-021
  -1.9750000000000000E-002    -8.9548857180409777E-021
  -1.9699999999999999E-002    -8.8807461921206989E-021
  -1.9650000000000001E-002    -6.9765179080865524E-021
  -1.9599999999999999E-002    -3.2509584449017658E-021
  -1.9550000000000001E-002     1.9168580640077278E-021
  -1.9500000000000000E-002     7.7737262252650110E-021
  -1.9449999999999999E-002     1.3263040688930965E-020
  -1.9400000000000001E-002     1.7173761874632908E-020
  -1.9349999999999999E-002     1.8356119589741868E-020
  -1.9300000000000001E-002     1.5975337106427125E-020
  -1.9250000000000000E-002     9.7588117558306269E-021
  -1.9199999999999998E-002     1.8176142187230045E-022
  -1.9150000000000000E-002    -1.1464439685355537E-020
  -1.9099999999999999E-002    -2.3165041312177232E-020
  -1.9050000000000001E-002    -3.2454236525414747E-020
  -1.9000000000000000E-002    -3.6848927808479342E-020
  -1.8949999999999998E-002    -3.4384340755722516E-020
  -1.8900000000000000E-002    -2.4154147250673581E-020
  -1.8849999999999999E-002    -6.7341510421767982E-021
  -1.8800000000000001E-002     1.5631900169952103E-020
  -1.8749999999999999E-002     3.9177382752141017E-020
  -1.8700000000000001E-002     5.9125278924664657E-020
  -1.8650000000000000E-002     7.0527517687219743E-020
  -1.8599999999999998E-002     6.9307322194467142E-020
  -1.8550000000000001E-002     5.3310368076724022E-020
  -1.8499999999999999E-002     2.3131711654464100E-020
  -1.8450000000000001E-002    -1.7506156984109279E-020
  -1.8400000000000000E-002    -6.1987461973170110E-020
  -1.8349999999999998E-002    -1.0170386173802319E-019
  -1.8300000000000000E-002    -1.2753702953403166E-019
  -1.8249999999999999E-002    -1.3169701991514976E-019
  -1.8200000000000001E-002    -1.0957752437594570E-019
  -1.8149999999999999E-002    -6.1235621385422588E-020
  -1.8100000000000002E-002     7.8728292146093036E-021
  -1.8050000000000000E-002     8.7164106305003537E-020
  -1.7999999999999999E-002     1.6229051922088895E-019
  -1.7950000000000001E-002     2.1746898352449633E-019
  -1.7899999999999999E-002     2.3843330628940809E-019
  -1.7850000000000001E-002     2.1550173663819348E-019
  -1.7800000000000000E-002     1.4616846932353905E-019
  -1.7749999999999998E-002     3.6651825920554501E-020
  -1.7700000000000000E-002    -9.8032655374443826E-020
  -1.7649999999999999E-002    -2.3567593413015341E-019
  -1.7600000000000001E-002    -3.5006830277134653E-019
  -1.7550000000000000E-002    -4.1539327661562435E-019
  -1.7499999999999998E-002    -4.1117148570432707E-019
  -1.7450000000000000E-002    -3.2692846547862742E-019
  -1.7399999999999999E-002    -1.6570374396345268E-019
  -1.7350000000000001E-002     5.4394729082407887E-020
  -1.7299999999999999E-002     3.0116026754640213E-019
  -1.7250000000000001E-002     5.3199896790223955E-019
  -1.7200000000000000E-002     7.0016017528891546E-019
  -1.7149999999999999E-002     7.6278798848439694E-019
  -1.7100000000000001E-002     6.8965152078905035E-019
  -1.7049999999999999E-002     4.7107993693683826E-019
  -1.7000000000000001E-002     1.2348464834160639E-019
  -1.6950000000000000E-002    -3.0902732430590714E-019
  -1.6899999999999998E-002    -7.5802341030077707E-019
  -1.6850000000000000E-002    -1.1394472881536501E-018
  -1.6799999999999999E-002    -1.3670391662084552E-018
  -1.6750000000000001E-002    -1.3687978138315856E-018
  -1.6700000000000000E-002    -1.1038330860397602E-018
  -1.6649999999999998E-002    -5.7630553190326572E-019
  -1.6600000000000000E-002     1.5696012143691041E-019
  -1.6549999999999999E-002     9.8801495292101176E-019
  -1.6500000000000001E-002     1.7699841256396183E-018
  -1.6449999999999999E-002     2.3394959872330433E-018
  -1.6400000000000001E-002     2.5466626849085943E-018
  -1.6350000000000000E-002     2.2878084345112598E-018
  -1.6299999999999999E-002     1.5346220339864029E-018
  -1.6250000000000001E-002     3.5299860831074926E-019
  -1.6199999999999999E-002    -1.0942062565690367E-018
  -1.6150000000000001E-002    -2.5638738024143052E-018
  -1.6100000000000000E-002    -3.7685804275938999E-018
  -1.6049999999999998E-002    -4.4274993657219587E-018
  -1.6000000000000000E-002    -4.3240678692310418E-018
  -1.5949999999999999E-002    -3.3595329169380760E-018
  -1.5900000000000001E-002    -1.5907126188660467E-018
  -1.5850000000000000E-002     7.5810174614658198E-019
  -1.5799999999999998E-002     3.3152218654306016E-018
  -1.5750000000000000E-002     5.6139719312776390E-018
  -1.5699999999999999E-002     7.1712134993281536E-018
  -1.5650000000000001E-002     7.5796785994001074E-018
  -1.5599999999999999E-002     6.5975270956539982E-018
  -1.5550000000000001E-002     4.2171543698329749E-018
  -1.5500000000000000E-002     6.9733873114373038E-019
  -1.5449999999999998E-002    -3.4517636891015451E-018
  -1.5400000000000000E-002    -7.5332902291202989E-018
  -1.5349999999999999E-002    -1.0771323410597738E-017
  -1.5300000000000001E-002    -1.2446085625651229E-017
  -1.5250000000000000E-002    -1.2034637861803625E-017
  -1.5199999999999998E-002    -9.3318811266648183E-018
  -1.5150000000000000E-002    -4.5278072908750672E-018
  -1.5099999999999999E-002     1.7776269105665183E-018
  -1.5050000000000001E-002     8.6315142989533862E-018
  -1.4999999999999999E-002     1.4854932504889850E-017
  -1.4949999999999998E-002     1.9225670103571024E-017
  -1.4900000000000000E-002     2.0691631790405101E-017
  -1.4849999999999999E-002     1.8581752932638361E-017
  -1.4800000000000001E-002     1.2777719763135154E-017
  -1.4749999999999999E-002     3.8116473683229153E-018
  -1.4700000000000001E-002    -7.1374059129566336E-018
  -1.4650000000000000E-002    -1.8361965378901197E-017
  -1.4599999999999998E-002    -2.7856060116124040E-017
  -1.4550000000000000E-002    -3.3633109015978856E-017
  -1.4499999999999999E-002    -3.4089097727523304E-017
  -1.4450000000000001E-002    -2.8353202828209786E-017
  -1.4400000000000000E-002    -1.6560106684878455E-017
  -1.4349999999999998E-002     1.8919696314227807E-020
  -1.4300000000000000E-002     1.9034252212172108E-017
  -1.4249999999999999E-002     3.7326659764775500E-017
  -1.4200000000000001E-002     5.1391534954970275E-017
  -1.4149999999999999E-002     5.7983275121766915E-017
  -1.4099999999999998E-002     5.4767584300699297E-017
  -1.4050000000000000E-002     4.0903615754850078E-017
  -1.3999999999999999E-002     1.7431661280464280E-017
  -1.3950000000000001E-002    -1.2640845590744747E-017
  -1.3899999999999999E-002    -4.4619779314000315E-017
  -1.3850000000000001E-002    -7.2773383450410687E-017
  -1.3800000000000000E-002    -9.1278613022846696E-017
  -1.3749999999999998E-002    -9.5322842757370413E-017
  -1.3700000000000000E-002    -8.2166592951979245E-017
  -1.3649999999999999E-002    -5.1952491146922005E-017
  -1.3600000000000001E-002    -8.0664704133323628E-018
  -1.3550000000000000E-002     4.3079979219448400E-017
  -1.3499999999999998E-002     9.2879126570863567E-017
  -1.3450000000000000E-002     1.3188347522028601E-016
  -1.3399999999999999E-002     1.5149016960615418E-016
  -1.3350000000000001E-002     1.4566617881088520E-016
  -1.3299999999999999E-002     1.1238671468265229E-016
  -1.3249999999999998E-002     5.4479332870799542E-017
  -1.3200000000000000E-002    -2.0350839357837968E-017
  -1.3149999999999998E-002    -1.0040486664479510E-016
  -1.3100000000000001E-002    -1.7170883355127080E-016
  -1.3049999999999999E-002    -2.2032946276997206E-016
  -1.3000000000000001E-002    -2.3491575258454642E-016
  -1.2950000000000000E-002    -2.0902270360631320E-016
  -1.2899999999999998E-002    -1.4277604521291242E-016
  -1.2850000000000000E-002    -4.3520627003536966E-017
  -1.2799999999999999E-002     7.4751597861812795E-017