  -4.0000000000000001E-002     0.0000000000000000     
  -3.9949999999999999E-002     0.0000000000000000     
  -3.9899999999999998E-002     0.0000000000000000     
  -3.9850000000000003E-002     0.0000000000000000     
  -3.9800000000000002E-002     0.0000000000000000     
  -3.9750000000000001E-002     0.0000000000000000     
  -3.9699999999999999E-002     0.0000000000000000     
  -3.9649999999999998E-002     0.0000000000000000     
  -3.9600000000000003E-002     0.0000000000000000     
  -3.9550000000000002E-002     0.0000000000000000     
  -3.9500000000000000E-002     0.0000000000000000     
  -3.9449999999999999E-002     0.0000000000000000     
  -3.9399999999999998E-002     0.0000000000000000     
  -3.9350000000000003E-002     0.0000000000000000     
  -3.9300000000000002E-002     0.0000000000000000     
  -3.9250000000000000E-002     0.0000000000000000     
  -3.9199999999999999E-002     0.0000000000000000     
  -3.9150000000000004E-002     0.0000000000000000     
  -3.9100000000000003E-002     0.0000000000000000     
  -3.9050000000000001E-002     0.0000000000000000     
  -3.9000000000000000E-002     0.0000000000000000     
  -3.8949999999999999E-002     0.0000000000000000     
  -3.8900000000000004E-002     0.0000000000000000     
  -3.8850000000000003E-002     0.0000000000000000     
  -3.8800000000000001E-002     0.0000000000000000     
  -3.8750000000000000E-002     0.0000000000000000     
  -3.8699999999999998E-002     0.0000000000000000     
  -3.8650000000000004E-002     0.0000000000000000     
  -3.8600000000000002E-002     0.0000000000000000     
  -3.8550000000000001E-002     0.0000000000000000     
  -3.8500000000000000E-002     0.0000000000000000     
  -3.8449999999999998E-002     0.0000000000000000     
  -3.8400000000000004E-002     0.0000000000000000     
  -3.8350000000000002E-002     0.0000000000000000     
  -3.8300000000000001E-002     0.0000000000000000     
  -3.8249999999999999E-002     0.0000000000000000     
  -3.8199999999999998E-002     0.0000000000000000     
  -3.8150000000000003E-002     0.0000000000000000     
  -3.8100000000000002E-002     0.0000000000000000     
  -3.8050000000000000E-002     0.0000000000000000     
  -3.7999999999999999E-002     0.0000000000000000     
  -3.7949999999999998E-002     0.0000000000000000     
  -3.7900000000000003E-002     0.0000000000000000     
  -3.7850000000000002E-002     0.0000000000000000     
  -3.7800000000000000E-002     0.0000000000000000     
  -3.7749999999999999E-002     0.0000000000000000     
  -3.7699999999999997E-002     0.0000000000000000     
  -3.7650000000000003E-002     0.0000000000000000     
  -3.7600000000000001E-002     0.0000000000000000     
  -3.7550000000000000E-002     0.0000000000000000     
  -3.7499999999999999E-002     0.0000000000000000     
  -3.7449999999999997E-002     0.0000000000000000     
  -3.7400000000000003E-002     0.0000000000000000     
  -3.7350000000000001E-002     0.0000000000000000     
  -3.7300000000000000E-002     0.0000000000000000     
  -3.7249999999999998E-002     0.0000000000000000     
  -3.7200000000000004E-002     0.0000000000000000     
  -3.7150000000000002E-002     0.0000000000000000     
  -3.7100000000000001E-002     0.0000000000000000     
  -3.7050000000000000E-002     0.0000000000000000     
  -3.6999999999999998E-002     0.0000000000000000     
  -3.6950000000000004E-002     0.0000000000000000     
  -3.6900000000000002E-002     0.0000000000000000     
  -3.6850000000000001E-002     0.0000000000000000     
  -3.6799999999999999E-002     0.0000000000000000     
  -3.6749999999999998E-002     0.0000000000000000     
  -3.6700000000000003E-002     0.0000000000000000     
  -3.6650000000000002E-002     0.0000000000000000     
  -3.6600000000000001E-002     0.0000000000000000     
  -3.6549999999999999E-002     0.0000000000000000     
  -3.6499999999999998E-002     0.0000000000000000     
  -3.6450000000000003E-002     0.0000000000000000     
  -3.6400000000000002E-002     0.0000000000000000     
  -3.6350000000000000E-002     0.0000000000000000     
  -3.6299999999999999E-002     0.0000000000000000     
  -3.6249999999999998E-002     0.0000000000000000     
  -3.6200000000000003E-002     0.0000000000000000     
  -3.6150000000000002E-002     0.0000000000000000     
  -3.6100000000000000E-002     0.0000000000000000     
  -3.6049999999999999E-002     0.0000000000000000     
  -3.6000000000000004E-002     0.0000000000000000     
  -3.5950000000000003E-002     0.0000000000000000     
  -3.5900000000000001E-002     0.0000000000000000     
  -3.5850000000000000E-002     0.0000000000000000     
  -3.5799999999999998E-002     0.0000000000000000     
  -3.5750000000000004E-002     0.0000000000000000     
  -3.5700000000000003E-002     0.0000000000000000     
  -3.5650000000000001E-002     0.0000000000000000     
  -3.5600000000000000E-002     0.0000000000000000     
  -3.5549999999999998E-002     0.0000000000000000     
  -3.5500000000000004E-002     0.0000000000000000     
  -3.5450000000000002E-002     0.0000000000000000     
  -3.5400000000000001E-002     0.0000000000000000     
  -3.5349999999999999E-002     0.0000000000000000     
  -3.5299999999999998E-002     0.0000000000000000     
  -3.5250000000000004E-002     0.0000000000000000     
  -3.5200000000000002E-002     0.0000000000000000     
  -3.5150000000000001E-002     0.0000000000000000     
  -3.5099999999999999E-002     0.0000000000000000     
  -3.5049999999999998E-002     0.0000000000000000     
  -3.5000000000000003E-002     0.0000000000000000     
  -3.4950000000000002E-002     0.0000000000000000     
  -3.4900000000000000E-002     0.0000000000000000     
  -3.4849999999999999E-002     0.0000000000000000     
  -3.4799999999999998E-002     0.0000000000000000     
  -3.4750000000000003E-002     0.0000000000000000     
  -3.4700000000000002E-002     0.0000000000000000     
  -3.4650000000000000E-002     0.0000000000000000     
  -3.4599999999999999E-002     0.0000000000000000     
  -3.4549999999999997E-002     0.0000000000000000     
  -3.4500000000000003E-002     0.0000000000000000     
  -3.4450000000000001E-002     0.0000000000000000     
  -3.4400000000000000E-002     0.0000000000000000     
  -3.4349999999999999E-002     0.0000000000000000     
  -3.4299999999999997E-002     0.0000000000000000     
  -3.4250000000000003E-002     0.0000000000000000     
  -3.4200000000000001E-002     0.0000000000000000     
  -3.4150000000000000E-002     0.0000000000000000     
  -3.4099999999999998E-002     0.0000000000000000     
  -3.4049999999999997E-002     0.0000000000000000     
  -3.4000000000000002E-002     0.0000000000000000     
  -3.3950000000000001E-002     0.0000000000000000     
  -3.3900000000000000E-002     0.0000000000000000     
  -3.3849999999999998E-002     0.0000000000000000     
  -3.3799999999999997E-002     0.0000000000000000     
  -3.3750000000000002E-002     0.0000000000000000     
  -3.3700000000000001E-002     0.0000000000000000     
  -3.3649999999999999E-002     0.0000000000000000     
  -3.3599999999999998E-002     0.0000000000000000     
  -3.3550000000000003E-002     0.0000000000000000     
  -3.3500000000000002E-002     0.0000000000000000     
  -3.3450000000000001E-002     0.0000000000000000     
  -3.3399999999999999E-002     0.0000000000000000     
  -3.3349999999999998E-002     0.0000000000000000     
  -3.3300000000000003E-002     0.0000000000000000     
  -3.3250000000000002E-002     0.0000000000000000     
  -3.3200000000000000E-002     0.0000000000000000     
  -3.3149999999999999E-002     0.0000000000000000     
  -3.3099999999999997E-002     0.0000000000000000     
  -3.3050000000000003E-002     0.0000000000000000     
  -3.3000000000000002E-002     0.0000000000000000     
  -3.2950000000000000E-002     0.0000000000000000     
  -3.2899999999999999E-002     0.0000000000000000     
  -3.2850000000000004E-002     0.0000000000000000     
  -3.2800000000000003E-002     0.0000000000000000     
  -3.2750000000000001E-002     0.0000000000000000     
  -3.2700000000000000E-002     0.0000000000000000     
  -3.2649999999999998E-002     0.0000000000000000     
  -3.2600000000000004E-002     0.0000000000000000     
  -3.2550000000000003E-002     0.0000000000000000     
  -3.2500000000000001E-002     0.0000000000000000     
  -3.2450000000000000E-002     0.0000000000000000     
  -3.2399999999999998E-002     0.0000000000000000     
  -3.2350000000000004E-002     0.0000000000000000     
  -3.2300000000000002E-002     0.0000000000000000     
  -3.2250000000000001E-002     0.0000000000000000     
  -3.2199999999999999E-002     0.0000000000000000     
  -3.2149999999999998E-002     0.0000000000000000     
  -3.2100000000000004E-002     0.0000000000000000     
  -3.2050000000000002E-002     0.0000000000000000     
  -3.2000000000000001E-002     0.0000000000000000     
  -3.1949999999999999E-002     0.0000000000000000     
  -3.1899999999999998E-002     0.0000000000000000     
  -3.1850000000000003E-002     0.0000000000000000     
  -3.1800000000000002E-002     0.0000000000000000     
  -3.1750000000000000E-002     0.0000000000000000     
  -3.1699999999999999E-002     0.0000000000000000     
  -3.1649999999999998E-002     0.0000000000000000     
  -3.1600000000000003E-002     0.0000000000000000     
  -3.1550000000000002E-002     0.0000000000000000     
  -3.1500000000000000E-002     0.0000000000000000     
  -3.1449999999999999E-002     0.0000000000000000     
  -3.1399999999999997E-002     0.0000000000000000     
  -3.1350000000000003E-002     0.0000000000000000     
  -3.1300000000000001E-002     0.0000000000000000     
  -3.1250000000000000E-002     0.0000000000000000     
  -3.1199999999999999E-002     0.0000000000000000     
  -3.1150000000000001E-002     0.0000000000000000     
  -3.1100000000000003E-002     0.0000000000000000     
  -3.1050000000000001E-002     0.0000000000000000     
  -3.1000000000000000E-002     0.0000000000000000     
  -3.0949999999999998E-002     0.0000000000000000     
  -3.0900000000000000E-002     0.0000000000000000     
  -3.0850000000000002E-002     0.0000000000000000     
  -3.0800000000000001E-002     0.0000000000000000     
  -3.0750000000000000E-002     0.0000000000000000     
  -3.0699999999999998E-002     0.0000000000000000     
  -3.0650000000000000E-002     0.0000000000000000     
  -3.0600000000000002E-002     0.0000000000000000     
  -3.0550000000000001E-002     0.0000000000000000     
  -3.0499999999999999E-002     0.0000000000000000     
  -3.0449999999999998E-002     0.0000000000000000     
  -3.0400000000000000E-002     0.0000000000000000     
  -3.0350000000000002E-002     0.0000000000000000     
  -3.0300000000000001E-002     0.0000000000000000     
  -3.0249999999999999E-002     0.0000000000000000     
  -3.0200000000000001E-002     0.0000000000000000     
  -3.0150000000000000E-002     0.0000000000000000     
  -3.0100000000000002E-002     0.0000000000000000     
  -3.0050000000000000E-002     0.0000000000000000     
  -2.9999999999999999E-002     0.0000000000000000     
  -2.9950000000000001E-002     0.0000000000000000     
  -2.9899999999999999E-002     0.0000000000000000     
  -2.9850000000000002E-002     0.0000000000000000     
  -2.9800000000000000E-002     0.0000000000000000     
  -2.9749999999999999E-002     0.0000000000000000     
  -2.9700000000000001E-002     0.0000000000000000     
  -2.9650000000000003E-002     0.0000000000000000     
  -2.9600000000000001E-002     0.0000000000000000     
  -2.9550000000000000E-002     0.0000000000000000     
  -2.9499999999999998E-002     0.0000000000000000     
  -2.9450000000000000E-002     0.0000000000000000     
  -2.9400000000000003E-002     0.0000000000000000     
  -2.9350000000000001E-002     0.0000000000000000     
  -2.9300000000000000E-002     0.0000000000000000     
  -2.9249999999999998E-002     0.0000000000000000     
  -2.9200000000000000E-002     0.0000000000000000     
  -2.9150000000000002E-002     0.0000000000000000     
  -2.9100000000000001E-002     0.0000000000000000     
  -2.9049999999999999E-002     0.0000000000000000     
  -2.8999999999999998E-002     0.0000000000000000     
  -2.8950000000000000E-002     0.0000000000000000     
  -2.8900000000000002E-002     0.0000000000000000     
  -2.8850000000000001E-002     0.0000000000000000     
  -2.8799999999999999E-002     0.0000000000000000     
  -2.8749999999999998E-002     0.0000000000000000     
  -2.8700000000000000E-002     0.0000000000000000     
  -2.8650000000000002E-002     0.0000000000000000     
  -2.8600000000000000E-002     0.0000000000000000     
  -2.8549999999999999E-002     0.0000000000000000     
  -2.8500000000000001E-002     0.0000000000000000     
  -2.8450000000000000E-002     0.0000000000000000     
  -2.8400000000000002E-002     0.0000000000000000     
  -2.8350000000000000E-002     0.0000000000000000     
  -2.8299999999999999E-002     0.0000000000000000     
  -2.8250000000000001E-002     0.0000000000000000     
  -2.8200000000000003E-002     0.0000000000000000     
  -2.8150000000000001E-002     0.0000000000000000     
  -2.8100000000000000E-002     0.0000000000000000     
  -2.8049999999999999E-002     0.0000000000000000     
  -2.8000000000000001E-002     0.0000000000000000     
  -2.7950000000000003E-002     0.0000000000000000     
  -2.7900000000000001E-002     0.0000000000000000     
  -2.7850000000000000E-002     0.0000000000000000     
  -2.7799999999999998E-002     0.0000000000000000     
  -2.7750000000000000E-002     0.0000000000000000     
  -2.7700000000000002E-002     0.0000000000000000     
  -2.7650000000000001E-002     0.0000000000000000     
  -2.7600000000000000E-002     0.0000000000000000     
  -2.7549999999999998E-002     0.0000000000000000     
  -2.7500000000000000E-002     0.0000000000000000     
  -2.7450000000000002E-002     0.0000000000000000     
  -2.7400000000000001E-002    -1.2861547850830841E-039
  -2.7349999999999999E-002    -2.5775396590955385E-039
  -2.7299999999999998E-002    -1.3495354663289423E-039
  -2.7250000000000000E-002     9.1146728089167466E-040
  -2.7200000000000002E-002     3.7518681676835074E-039
  -2.7150000000000001E-002     3.4524247307758794E-039
  -2.7099999999999999E-002     0.0000000000000000     
  -2.7049999999999998E-002    -2.1589518510510586E-039
  -2.7000000000000000E-002     0.0000000000000000     
  -2.6950000000000002E-002     6.4323478919218607E-039
  -2.6900000000000000E-002    -3.7809102871049086E-040
  -2.6849999999999999E-002    -1.1498236266817829E-038
  -2.6800000000000001E-002    -1.5598605188169898E-038
  -2.6749999999999999E-002     0.0000000000000000     
  -2.6700000000000002E-002    -3.6948351959913323E-038
  -2.6650000000000000E-002    -1.2168392155620300E-037
  -2.6599999999999999E-002    -2.0919129962365787E-037
  -2.6550000000000001E-002    -2.0734850010458714E-037
  -2.6500000000000003E-002    -4.8172711853943187E-038
  -2.6450000000000001E-002     2.6297701291293953E-037
  -2.6400000000000000E-002     6.5300209084283319E-037
  -2.6349999999999998E-002     9.9234948186899545E-037
  -2.6300000000000000E-002     1.1078915983947264E-036
  -2.6250000000000002E-002     8.2767313530457762E-037
  -2.6200000000000001E-002     4.1435099394840821E-038
  -2.6150000000000000E-002    -1.2248178717988565E-036
  -2.6099999999999998E-002    -2.7435473202560608E-036
  -2.6050000000000000E-002    -3.9990648830256652E-036
  -2.6000000000000002E-002    -4.3391489991831797E-036
  -2.5950000000000001E-002    -3.1175926311027487E-036
  -2.5899999999999999E-002    -1.1696042196915945E-039
  -2.5849999999999998E-002     4.7130214090962580E-036
  -2.5800000000000000E-002     9.9159224872823866E-036
  -2.5750000000000002E-002     1.3782031169037468E-035
  -2.5700000000000001E-002     1.4211030125962491E-035
  -2.5649999999999999E-002     9.5536939473385521E-036
  -2.5599999999999998E-002    -5.7221713150283473E-037
  -2.5550000000000000E-002    -1.4666813722657765E-035
  -2.5500000000000002E-002    -2.9229181226054684E-035
  -2.5450000000000000E-002    -3.9332960354620558E-035
  -2.5399999999999999E-002    -3.9904918209858120E-035
  -2.5349999999999998E-002    -2.7460599490232610E-035
  -2.5300000000000000E-002    -1.8008142563669628E-036
  -2.5250000000000002E-002     3.2964741850385243E-035
  -2.5200000000000000E-002     6.8630854735467558E-035
  -2.5149999999999999E-002     9.4579308754616340E-035
  -2.5100000000000001E-002     1.0063806919500029E-034
  -2.5049999999999999E-002     8.0289357457322699E-035
  -2.5000000000000001E-002     3.3113174799886683E-035
  -2.4950000000000000E-002    -3.4490048124282054E-035
  -2.4899999999999999E-002    -1.1061891698972563E-034
  -2.4850000000000001E-002    -1.8067052277308831E-034
  -2.4800000000000003E-002    -2.3033062668006726E-034
  -2.4750000000000001E-002    -2.4733470637993462E-034
  -2.4700000000000000E-002    -2.2129206300556080E-034
  -2.4649999999999998E-002    -1.4227674953781483E-034
  -2.4600000000000000E-002    -4.0818079560915626E-037
  -2.4550000000000002E-002     2.1063539735261814E-034
  -2.4500000000000001E-002     4.8418640727052949E-034
  -2.4450000000000000E-002     7.8625234688472217E-034
  -2.4399999999999998E-002     1.0417230051126765E-033
  -2.4350000000000000E-002     1.1307159483057252E-033
  -2.4299999999999999E-002     9.0598833152367353E-034
  -2.4250000000000001E-002     2.3846543000479477E-034
  -2.4199999999999999E-002    -9.1213522715376322E-034
  -2.4150000000000001E-002    -2.4192078032461989E-033
  -2.4100000000000000E-002    -3.9356816114401386E-033
  -2.4049999999999998E-002    -4.9040244700375098E-033
  -2.4000000000000000E-002    -4.6616135097547650E-033
  -2.3949999999999999E-002    -2.6479009307244802E-033
  -2.3900000000000001E-002     1.3209361370344147E-033
  -2.3850000000000000E-002     6.7894729663875536E-033
  -2.3800000000000002E-002     1.2524728916532657E-032
  -2.3750000000000000E-002     1.6614451512927132E-032
  -2.3699999999999999E-002     1.6868914475899981E-032
  -2.3650000000000001E-002     1.1501916181859857E-032
  -2.3599999999999999E-002    -5.1528732016562902E-035
  -2.3550000000000001E-002    -1.6431748383924662E-032
  -2.3500000000000000E-002    -3.4068654864654983E-032
  -2.3449999999999999E-002    -4.7573336831705351E-032
  -2.3400000000000001E-002    -5.0910607192944173E-032
  -2.3349999999999999E-002    -3.9209052293616901E-032
  -2.3300000000000001E-002    -1.0791221779756636E-032
  -2.3250000000000000E-002     3.1201961952061176E-032
  -2.3199999999999998E-002     7.8266333619357150E-032
  -2.3150000000000000E-002     1.1756786488193121E-031
  -2.3099999999999999E-002     1.3465950947151024E-031
  -2.3050000000000001E-002     1.1745763377643392E-031
  -2.3000000000000000E-002     6.0543670412200519E-032
  -2.2950000000000002E-002    -3.1458956366267298E-032
  -2.2900000000000000E-002    -1.4265455468357541E-031
  -2.2849999999999999E-002    -2.4759320088822752E-031
  -2.2800000000000001E-002    -3.1600168633604514E-031
  -2.2749999999999999E-002    -3.1973773727469267E-031
  -2.2700000000000001E-002    -2.4046649275984811E-031
  -2.2650000000000000E-002    -7.6226727615974874E-032
  -2.2599999999999999E-002     1.5478508086947418E-031
  -2.2550000000000001E-002     4.1428931032027034E-031
  -2.2499999999999999E-002     6.4812357668485549E-031
  -2.2450000000000001E-002     7.9409980955476202E-031
  -2.2400000000000000E-002     7.9260914084365760E-031
  -2.2349999999999998E-002     5.9895346336771682E-031
  -2.2300000000000000E-002     1.9638940641661699E-031
  -2.2249999999999999E-002    -3.9136216940228621E-031
  -2.2200000000000001E-002    -1.0901715882524036E-030
  -2.2150000000000000E-002    -1.7714881584097345E-030
  -2.2100000000000002E-002    -2.2590032238802386E-030
  -2.2050000000000000E-002    -2.3511437035626850E-030
  -2.1999999999999999E-002    -1.8627672674110560E-030
  -2.1950000000000001E-002    -6.8458761872545638E-031
  -2.1899999999999999E-002     1.1488840386515174E-030
  -2.1850000000000001E-002     3.4010728684419936E-030
  -2.1800000000000000E-002     5.6099254426642490E-030
  -2.1749999999999999E-002     7.1254515962905653E-030
  -2.1700000000000001E-002     7.2256225266808674E-030
  -2.1649999999999999E-002     5.3084113448019081E-030
  -2.1600000000000001E-002     1.1297511360093067E-030
  -2.1550000000000000E-002    -4.9723469659989834E-030
  -2.1499999999999998E-002    -1.1947901931340571E-029
  -2.1450000000000000E-002    -1.8080325773996753E-029
  -2.1399999999999999E-002    -2.1260617602322407E-029
  -2.1350000000000001E-002    -1.9487754066197695E-029
  -2.1299999999999999E-002    -1.1516981763009433E-029
  -2.1250000000000002E-002     2.4980996348623347E-030
  -2.1200000000000000E-002     2.0573933151291388E-029
  -2.1149999999999999E-002     3.8879608479194567E-029
  -2.1100000000000001E-002     5.2270977529039826E-029
  -2.1049999999999999E-002     5.5383345419462822E-029
  -2.1000000000000001E-002     4.4119821805035730E-029
  -2.0950000000000000E-002     1.7206121405134828E-029
  -2.0899999999999998E-002    -2.2627013117100723E-029
  -2.0850000000000000E-002    -6.8277165386373171E-029
  -2.0799999999999999E-002    -1.0903659556081623E-028
  -2.0750000000000001E-002    -1.3255947890779053E-028
  -2.0700000000000000E-002    -1.2777454159068684E-028
  -2.0649999999999998E-002    -8.8167990622600977E-029
  -2.0600000000000000E-002    -1.4638779698922264E-029
  -2.0549999999999999E-002     8.2918960692875017E-029
  -2.0500000000000001E-002     1.8598220369751404E-028
  -2.0449999999999999E-002     2.7001733769118044E-028
  -2.0400000000000001E-002     3.0914779176326631E-028
  -2.0350000000000000E-002     2.8214121230883884E-028
  -2.0299999999999999E-002     1.7856019186407554E-028
  -2.0250000000000001E-002     3.7048881680173350E-030
  -2.0199999999999999E-002    -2.1897399561088534E-028
  -2.0150000000000001E-002    -4.4899061673824534E-028
  -2.0100000000000000E-002    -6.3392162015005982E-028
  -2.0049999999999998E-002    -7.1825155818426957E-028
  -2.0000000000000000E-002    -6.5498947742784615E-028
  -1.9949999999999999E-002    -4.1836887670636744E-028
  -1.9900000000000001E-002    -1.5344212801581466E-029
  -1.9850000000000000E-002     5.0679923183500339E-028
  -1.9799999999999998E-002     1.0594651647639386E-027
  -1.9750000000000000E-002     1.5207018937384510E-027
  -1.9699999999999999E-002     1.7533026726790822E-027
  -1.9650000000000001E-002     1.6323966681628062E-027
  -1.9599999999999999E-002     1.0793444095703044E-027
  -1.9550000000000001E-002     9.5907100925541971E-029
  -1.9500000000000000E-002    -1.2098200113773478E-027
  -1.9449999999999999E-002    -2.6154075253515422E-027
  -1.9400000000000001E-002    -3.8026459582164664E-027
  -1.9349999999999999E-002    -4.4072928235502877E-027
  -1.9300000000000001E-002    -4.0977068761908159E-027
  -1.9250000000000000E-002    -2.6711682084531020E-027
  -1.9199999999999998E-002    -1.4771256285421016E-028
  -1.9150000000000000E-002     3.1649417133024407E-027
  -1.9099999999999999E-002     6.6625451232573791E-027
  -1.9050000000000001E-002     9.5118173770899170E-027
  -1.9000000000000000E-002     1.0799591833938788E-026
  -1.8949999999999998E-002     9.7477524064284152E-027
  -1.8900000000000000E-002     5.9551173425930527E-027
  -1.8849999999999999E-002    -3.9126084499094773E-028
  -1.8800000000000001E-002    -8.4006440629257939E-027
  -1.8749999999999999E-002    -1.6515942488659261E-026
  -1.8700000000000001E-002    -2.2734495531684746E-026
  -1.8650000000000000E-002    -2.5001661353807254E-026
  -1.8599999999999998E-002    -2.1718088725538060E-026
  -1.8550000000000001E-002    -1.2257389616193266E-026
  -1.8499999999999999E-002     2.6358926929399765E-027
  -1.8450000000000001E-002     2.0696772635214692E-026
  -1.8400000000000000E-002     3.8332701380311809E-026
  -1.8349999999999998E-002     5.1186835841619396E-026
  -1.8300000000000000E-002     5.5013942303052176E-026
  -1.8249999999999999E-002     4.6723026670358034E-026
  -1.8200000000000001E-002     2.5372214678617347E-026
  -1.8149999999999999E-002    -7.1283896683305562E-027
  -1.8100000000000002E-002    -4.5828259398760493E-026
  -1.8050000000000000E-002    -8.3208013122001543E-026
  -1.7999999999999999E-002    -1.1033485959674280E-025
  -1.7950000000000001E-002    -1.1857908007028932E-025
  -1.7899999999999999E-002    -1.0162446321081293E-025
  -1.7850000000000001E-002    -5.7393736270626469E-026
  -1.7800000000000000E-002     1.0542638124188292E-026
  -1.7749999999999998E-002     9.2481891300738927E-026
  -1.7700000000000000E-002     1.7332692285770543E-025
  -1.7649999999999999E-002     2.3465714574195894E-025
  -1.7600000000000001E-002     2.5799438410967758E-025
  -1.7550000000000000E-002     2.2885111113874384E-025
  -1.7499999999999998E-002     1.4088877189424157E-025
  -1.7450000000000000E-002    -6.7527706695127643E-028
  -1.7399999999999999E-002    -1.7733794220648336E-025
  -1.7350000000000001E-002    -3.5807156118288650E-025
  -1.7299999999999999E-002    -5.0307037101476067E-025
  -1.7250000000000001E-002    -5.7045318206090599E-025
  -1.7200000000000000E-002    -5.2521732073402721E-025
  -1.7149999999999999E-002    -3.4901804103176029E-025
  -1.7100000000000001E-002    -4.8743864363116694E-026
  -1.7049999999999999E-002     3.3844811913784653E-025
  -1.7000000000000001E-002     7.4580159626867279E-025
  -1.6950000000000000E-002     1.0847480129356195E-024
  -1.6899999999999998E-002     1.2599016021757576E-024
  -1.6850000000000000E-002     1.1896207010751853E-024
  -1.6799999999999999E-002     8.2868318436626586E-025
  -1.6750000000000001E-002     1.8817253492894225E-025
  -1.6700000000000000E-002    -6.5294653155255660E-025
  -1.6649999999999998E-002    -1.5494811092663179E-024
  -1.6600000000000000E-002    -2.3078197342678633E-024
  -1.6549999999999999E-002    -2.7196083901439082E-024
  -1.6500000000000001E-002    -2.6070509858249166E-024
  -1.6449999999999999E-002    -1.8717596909536465E-024
  -1.6400000000000001E-002    -5.3632474282907534E-025
  -1.6350000000000000E-002     1.2329514116679664E-024
  -1.6299999999999999E-002     3.1317829823453468E-024
  -1.6250000000000001E-002     4.7570557198209028E-024
  -1.6199999999999999E-002     5.6775294630148121E-024
  -1.6150000000000001E-002     5.5264022372045276E-024
  -1.6100000000000000E-002     4.0989572260243317E-024
  -1.6049999999999998E-002     1.4339434538001793E-024
  -1.6000000000000000E-002    -2.1431961792087507E-024
  -1.5949999999999999E-002    -6.0327318306657014E-024
  -1.5900000000000001E-002    -9.4370291210715718E-024
  -1.5850000000000000E-002    -1.1496560586141890E-023
  -1.5799999999999998E-002    -1.1467175194730662E-023
  -1.5750000000000000E-002    -8.9077549338673191E-024
  -1.5699999999999999E-002    -3.8393620675012140E-024
  -1.5650000000000001E-002     3.1641587441503375E-024
  -1.5599999999999999E-002     1.0987012860114583E-023
  -1.5550000000000001E-002     1.8101267398338528E-023
  -1.5500000000000000E-002     2.2811414666994060E-023
  -1.5449999999999998E-002     2.3584564418641818E-023
  -1.5400000000000000E-002     1.9413548717486087E-023
  -1.5349999999999999E-002     1.0142951704464743E-023
  -1.5300000000000001E-002    -3.3183507472139804E-024
  -1.5250000000000000E-002    -1.8966554835744001E-023
  -1.5199999999999998E-002    -3.3898916749984375E-023
  -1.5150000000000000E-002    -4.4743216820381902E-023
  -1.5099999999999999E-002    -4.8279923421702826E-023
  -1.5050000000000001E-002    -4.2166677188197725E-023
  -1.4999999999999999E-002    -2.5632876319347510E-023
  -1.4949999999999998E-002     1.1332908082031171E-026
  -1.4900000000000000E-002     3.1202715432466504E-023
  -1.4849999999999999E-002     6.2402216292182272E-023
  -1.4800000000000001E-002     8.6862643191279970E-023
  -1.4749999999999999E-002     9.7829935316350450E-023
  -1.4700000000000001E-002     9.0012298588649428E-023
  -1.4650000000000000E-002     6.1054357883492903E-023
  -1.4599999999999998E-002     1.2692212566131074E-023
  -1.4550000000000000E-002    -4.8737484242637246E-023
  -1.4499999999999999E-002    -1.1269038018763177E-022
  -1.4450000000000001E-002    -1.6582041590447731E-022
  -1.4400000000000000E-002    -1.9430720588620740E-022
  -1.4349999999999998E-002    -1.8678610332166459E-022
  -1.4300000000000000E-002    -1.3735725241005952E-022
  -1.4249999999999999E-002    -4.8021340661932826E-023
  -1.4200000000000001E-002     7.0120095840556565E-023
  -1.4149999999999999E-002     1.9742141709567241E-022
  -1.4099999999999998E-002     3.0824244347432990E-022
  -1.4050000000000000E-002     3.7532877603469932E-022
  -1.3999999999999999E-002     3.7542153844816690E-022
  -1.3950000000000001E-002     2.9510315954809673E-022
  -1.3899999999999999E-002     1.3564294862687200E-022
  -1.3850000000000001E-002    -8.4409748215704484E-023
  -1.3800000000000000E-002    -3.2987877753105528E-022
  -1.3749999999999998E-002    -5.5332999246745251E-022
  -1.3700000000000000E-002    -7.0290346570574526E-022
  -1.3649999999999999E-002    -7.3256252661703197E-022
  -1.3600000000000001E-002    -6.1300362794778716E-022
  -1.3550000000000000E-002    -3.4101765204177300E-022
  -1.3499999999999998E-002     5.4968215855344628E-023
  -1.3450000000000000E-002     5.1502872947473951E-022
  -1.3399999999999999E-002     9.5454648869296972E-022
  -1.3350000000000001E-002     1.2774437925268527E-021
  -1.3299999999999999E-002     1.3942144588351955E-021
  -1.3249999999999998E-002     1.2418477025886744E-021
  -1.3200000000000000E-002     8.0183352632763135E-022
  -1.3149999999999998E-002     1.1217144172860859E-022
  -1.3100000000000001E-002    -7.3017488373776682E-022
  -1.3049999999999999E-002    -1.5785987986618343E-021
  -1.3000000000000001E-002    -2.2581405752118651E-021
  -1.2950000000000000E-002    -2.5965222323975877E-021
  -1.2899999999999998E-002    -2.4602991308371196E-021
  -1.2850000000000000E-002    -1.7896138528537466E-021
  -1.2799999999999999E-002    -6.2413617151028941E-022