  -4.0000000000000001E-002     0.0000000000000000     
  -3.9949999999999999E-002     0.0000000000000000     
  -3.9899999999999998E-002     0.0000000000000000     
  -3.9850000000000003E-002     0.0000000000000000     
  -3.9800000000000002E-002     0.0000000000000000     
  -3.9750000000000001E-002     0.0000000000000000     
  -3.9699999999999999E-002     0.0000000000000000     
  -3.9649999999999998E-002     0.0000000000000000     
  -3.9600000000000003E-002     0.0000000000000000     
  -3.9550000000000002E-002     0.0000000000000000     
  -3.9500000000000000E-002     0.0000000000000000     
  -3.9449999999999999E-002     0.0000000000000000     
  -3.9399999999999998E-002     0.0000000000000000     
  -3.9350000000000003E-002     0.0000000000000000     
  -3.9300000000000002E-002     0.0000000000000000     
  -3.9250000000000000E-002     0.0000000000000000     
  -3.9199999999999999E-002     0.0000000000000000     
  -3.9150000000000004E-002     0.0000000000000000     
  -3.9100000000000003E-002     0.0000000000000000     
  -3.9050000000000001E-002     0.0000000000000000     
  -3.9000000000000000E-002     0.0000000000000000     
  -3.8949999999999999E-002     0.0000000000000000     
  -3.8900000000000004E-002     0.0000000000000000     
  -3.8850000000000003E-002     0.0000000000000000     
  -3.8800000000000001E-002     0.0000000000000000     
  -3.8750000000000000E-002     0.0000000000000000     
  -3.8699999999999998E-002     0.0000000000000000     
  -3.8650000000000004E-002     0.0000000000000000     
  -3.8600000000000002E-002     0.0000000000000000     
  -3.8550000000000001E-002     0.0000000000000000     
  -3.8500000000000000E-002     0.0000000000000000     
  -3.8449999999999998E-002     0.0000000000000000     
  -3.8400000000000004E-002     0.0000000000000000     
  -3.8350000000000002E-002     0.0000000000000000     
  -3.8300000000000001E-002     0.0000000000000000     
  -3.8249999999999999E-002     0.0000000000000000     
  -3.8199999999999998E-002     0.0000000000000000     
  -3.8150000000000003E-002     0.0000000000000000     
  -3.8100000000000002E-002     0.0000000000000000     
  -3.8050000000000000E-002     0.0000000000000000     
  -3.7999999999999999E-002     0.0000000000000000     
  -3.7949999999999998E-002     0.0000000000000000     
  -3.7900000000000003E-002     0.0000000000000000     
  -3.7850000000000002E-002     0.0000000000000000     
  -3.7800000000000000E-002     0.0000000000000000     
  -3.7749999999999999E-002     0.0000000000000000     
  -3.7699999999999997E-002     0.0000000000000000     
  -3.7650000000000003E-002     0.0000000000000000     
  -3.7600000000000001E-002     0.0000000000000000     
  -3.7550000000000000E-002     0.0000000000000000     
  -3.7499999999999999E-002     0.0000000000000000     
  -3.7449999999999997E-002     0.0000000000000000     
  -3.7400000000000003E-002     0.0000000000000000     
  -3.7350000000000001E-002     0.0000000000000000     
  -3.7300000000000000E-002     0.0000000000000000     
  -3.7249999999999998E-002     0.0000000000000000     
  -3.7200000000000004E-002     0.0000000000000000     
  -3.7150000000000002E-002     0.0000000000000000     
  -3.7100000000000001E-002     0.0000000000000000     
  -3.7050000000000000E-002     0.0000000000000000     
  -3.6999999999999998E-002     0.0000000000000000     
  -3.6950000000000004E-002     0.0000000000000000     
  -3.6900000000000002E-002     0.0000000000000000     
  -3.6850000000000001E-002     0.0000000000000000     
  -3.6799999999999999E-002     0.0000000000000000     
  -3.6749999999999998E-002     0.0000000000000000     
  -3.6700000000000003E-002     0.0000000000000000     
  -3.6650000000000002E-002     0.0000000000000000     
  -3.6600000000000001E-002     0.0000000000000000     
  -3.6549999999999999E-002     0.0000000000000000     
  -3.6499999999999998E-002     0.0000000000000000     
  -3.6450000000000003E-002     0.0000000000000000     
  -3.6400000000000002E-002     0.0000000000000000     
  -3.6350000000000000E-002     0.0000000000000000     
  -3.6299999999999999E-002     0.0000000000000000     
  -3.6249999999999998E-002     0.0000000000000000     
  -3.6200000000000003E-002     0.0000000000000000     
  -3.6150000000000002E-002     0.0000000000000000     
  -3.6100000000000000E-002     0.0000000000000000     
  -3.6049999999999999E-002     0.0000000000000000     
  -3.6000000000000004E-002     0.0000000000000000     
  -3.5950000000000003E-002     0.0000000000000000     
  -3.5900000000000001E-002     0.0000000000000000     
  -3.5850000000000000E-002     0.0000000000000000     
  -3.5799999999999998E-002     0.0000000000000000     
  -3.5750000000000004E-002     0.0000000000000000     
  -3.5700000000000003E-002     0.0000000000000000     
  -3.5650000000000001E-002     0.0000000000000000     
  -3.5600000000000000E-002     0.0000000000000000     
  -3.5549999999999998E-002     0.0000000000000000     
  -3.5500000000000004E-002     0.0000000000000000     
  -3.5450000000000002E-002     0.0000000000000000     
  -3.5400000000000001E-002     0.0000000000000000     
  -3.5349999999999999E-002     0.0000000000000000     
  -3.5299999999999998E-002     0.0000000000000000     
  -3.5250000000000004E-002     0.0000000000000000     
  -3.5200000000000002E-002     0.0000000000000000     
  -3.5150000000000001E-002     0.0000000000000000     
  -3.5099999999999999E-002     0.0000000000000000     
  -3.5049999999999998E-002     0.0000000000000000     
  -3.5000000000000003E-002     0.0000000000000000     
  -3.4950000000000002E-002     0.0000000000000000     
  -3.4900000000000000E-002     0.0000000000000000     
  -3.4849999999999999E-002     0.0000000000000000     
  -3.4799999999999998E-002     0.0000000000000000     
  -3.4750000000000003E-002     0.0000000000000000     
  -3.4700000000000002E-002     0.0000000000000000     
  -3.4650000000000000E-002     0.0000000000000000     
  -3.4599999999999999E-002     0.0000000000000000     
  -3.4549999999999997E-002     0.0000000000000000     
  -3.4500000000000003E-002     0.0000000000000000     
  -3.4450000000000001E-002     0.0000000000000000     
  -3.4400000000000000E-002     0.0000000000000000     
  -3.4349999999999999E-002     0.0000000000000000     
  -3.4299999999999997E-002     0.0000000000000000     
  -3.4250000000000003E-002     0.0000000000000000     
  -3.4200000000000001E-002     0.0000000000000000     
  -3.4150000000000000E-002     0.0000000000000000     
  -3.4099999999999998E-002     0.0000000000000000     
  -3.4049999999999997E-002     0.0000000000000000     
  -3.4000000000000002E-002     0.0000000000000000     
  -3.3950000000000001E-002     0.0000000000000000     
  -3.3900000000000000E-002     0.0000000000000000     
  -3.3849999999999998E-002     0.0000000000000000     
  -3.3799999999999997E-002     0.0000000000000000     
  -3.3750000000000002E-002     0.0000000000000000     
  -3.3700000000000001E-002     0.0000000000000000     
  -3.3649999999999999E-002     0.0000000000000000     
  -3.3599999999999998E-002     0.0000000000000000     
  -3.3550000000000003E-002     0.0000000000000000     
  -3.3500000000000002E-002     0.0000000000000000     
  -3.3450000000000001E-002     0.0000000000000000     
  -3.3399999999999999E-002     0.0000000000000000     
  -3.3349999999999998E-002     0.0000000000000000     
  -3.3300000000000003E-002     0.0000000000000000     
  -3.3250000000000002E-002     0.0000000000000000     
  -3.3200000000000000E-002     0.0000000000000000     
  -3.3149999999999999E-002     0.0000000000000000     
  -3.3099999999999997E-002     0.0000000000000000     
  -3.3050000000000003E-002     0.0000000000000000     
  -3.3000000000000002E-002     0.0000000000000000     
  -3.2950000000000000E-002     0.0000000000000000     
  -3.2899999999999999E-002     0.0000000000000000     
  -3.2850000000000004E-002     0.0000000000000000     
  -3.2800000000000003E-002     0.0000000000000000     
  -3.2750000000000001E-002     0.0000000000000000     
  -3.2700000000000000E-002     0.0000000000000000     
  -3.2649999999999998E-002     0.0000000000000000     
  -3.2600000000000004E-002     0.0000000000000000     
  -3.2550000000000003E-002     0.0000000000000000     
  -3.2500000000000001E-002     0.0000000000000000     
  -3.2450000000000000E-002     0.0000000000000000     
  -3.2399999999999998E-002     0.0000000000000000     
  -3.2350000000000004E-002     0.0000000000000000     
  -3.2300000000000002E-002     0.0000000000000000     
  -3.2250000000000001E-002     0.0000000000000000     
  -3.2199999999999999E-002     0.0000000000000000     
  -3.2149999999999998E-002     0.0000000000000000     
  -3.2100000000000004E-002     0.0000000000000000     
  -3.2050000000000002E-002     0.0000000000000000     
  -3.2000000000000001E-002     0.0000000000000000     
  -3.1949999999999999E-002     0.0000000000000000     
  -3.1899999999999998E-002     0.0000000000000000     
  -3.1850000000000003E-002     0.0000000000000000     
  -3.1800000000000002E-002     0.0000000000000000     
  -3.1750000000000000E-002     0.0000000000000000     
  -3.1699999999999999E-002     0.0000000000000000     
  -3.1649999999999998E-002     0.0000000000000000     
  -3.1600000000000003E-002     0.0000000000000000     
  -3.1550000000000002E-002     0.0000000000000000     
  -3.1500000000000000E-002     0.0000000000000000     
  -3.1449999999999999E-002     0.0000000000000000     
  -3.1399999999999997E-002     0.0000000000000000     
  -3.1350000000000003E-002     0.0000000000000000     
  -3.1300000000000001E-002     0.0000000000000000     
  -3.1250000000000000E-002     0.0000000000000000     
  -3.1199999999999999E-002     0.0000000000000000     
  -3.1150000000000001E-002     0.0000000000000000     
  -3.1100000000000003E-002     0.0000000000000000     
  -3.1050000000000001E-002     0.0000000000000000     
  -3.1000000000000000E-002     0.0000000000000000     
  -3.0949999999999998E-002     0.0000000000000000     
  -3.0900000000000000E-002     0.0000000000000000     
  -3.0850000000000002E-002     0.0000000000000000     
  -3.0800000000000001E-002     0.0000000000000000     
  -3.0750000000000000E-002     0.0000000000000000     
  -3.0699999999999998E-002     0.0000000000000000     
  -3.0650000000000000E-002     0.0000000000000000     
  -3.0600000000000002E-002     0.0000000000000000     
  -3.0550000000000001E-002     0.0000000000000000     
  -3.0499999999999999E-002     0.0000000000000000     
  -3.0449999999999998E-002     0.0000000000000000     
  -3.0400000000000000E-002     0.0000000000000000     
  -3.0350000000000002E-002     0.0000000000000000     
  -3.0300000000000001E-002     0.0000000000000000     
  -3.0249999999999999E-002     0.0000000000000000     
  -3.0200000000000001E-002     0.0000000000000000     
  -3.0150000000000000E-002    -1.8938979986179450E-039
  -3.0100000000000002E-002    -4.1168785312624876E-039
  -3.0050000000000000E-002    -2.7238746307671129E-039
  -2.9999999999999999E-002     1.9139792889444851E-039
  -2.9950000000000001E-002     9.6986759649921021E-039
  -2.9899999999999999E-002     1.7081716349460914E-038
  -2.9850000000000002E-002     1.8374879087056358E-038
  -2.9800000000000000E-002     1.0880917694829597E-038
  -2.9749999999999999E-002    -1.1180046261377431E-038
  -2.9700000000000001E-002    -3.8771346330673779E-038
  -2.9650000000000003E-002    -6.3718258970165578E-038
  -2.9600000000000001E-002    -7.0091715032915129E-038
  -2.9550000000000000E-002    -6.9827767130995773E-038
  -2.9499999999999998E-002    -4.1986172936968522E-038
  -2.9450000000000000E-002    -8.7928768749115250E-039
  -2.9400000000000003E-002     3.0649219901257285E-038
  -2.9350000000000001E-002     7.8673177239574930E-038
  -2.9300000000000000E-002     1.4872614158976705E-037
  -2.9249999999999998E-002     2.3501554471969224E-037
  -2.9200000000000000E-002     3.2381030087263828E-037
  -2.9150000000000002E-002     3.4087344917548612E-037
  -2.9100000000000001E-002     2.0122150462658471E-037
  -2.9049999999999999E-002    -1.7082471738694283E-037
  -2.8999999999999998E-002    -7.4546190586736624E-037
  -2.8950000000000000E-002    -1.3694470133417230E-036
  -2.8900000000000002E-002    -1.7586768882126011E-036
  -2.8850000000000001E-002    -1.5717123980800854E-036
  -2.8799999999999999E-002    -5.5207947132218547E-037
  -2.8749999999999998E-002     1.3009676231531891E-036
  -2.8700000000000000E-002     3.6001830861646293E-036
  -2.8650000000000002E-002     5.5571177873522255E-036
  -2.8600000000000000E-002     6.1492732425189251E-036
  -2.8549999999999999E-002     4.4756054571201508E-036
  -2.8500000000000001E-002     2.1855853532100646E-037
  -2.8450000000000000E-002    -5.9593819154979562E-036
  -2.8400000000000002E-002    -1.2298040076779566E-035
  -2.8350000000000000E-002    -1.6271989952103655E-035
  -2.8299999999999999E-002    -1.5406813945820725E-035
  -2.8250000000000001E-002    -8.3844395784763513E-036
  -2.8200000000000003E-002     3.9718465734473441E-036
  -2.8150000000000001E-002     1.8345256796294064E-035
  -2.8100000000000000E-002     2.9614466789746745E-035
  -2.8049999999999999E-002     3.2624755003373730E-035
  -2.8000000000000001E-002     2.4552758157498250E-035
  -2.7950000000000003E-002     6.8848447420953086E-036
  -2.7900000000000001E-002    -1.4155141665941502E-035
  -2.7850000000000000E-002    -2.9526940263002045E-035
  -2.7799999999999998E-002    -3.1503285684576201E-035
  -2.7750000000000000E-002    -1.8597297141357568E-035
  -2.7700000000000002E-002     1.1797741643932747E-036
  -2.7650000000000001E-002     1.1375264865788901E-035
  -2.7600000000000000E-002    -6.0840547792999334E-036
  -2.7549999999999998E-002    -5.9417060614931253E-035
  -2.7500000000000000E-002    -1.3515441319626511E-034
  -2.7450000000000002E-002    -1.9264190821072724E-034
  -2.7400000000000001E-002    -1.7154415906769078E-034
  -2.7349999999999999E-002    -1.5391712174708695E-035
  -2.7299999999999998E-002     2.9283485009224555E-034
  -2.7250000000000000E-002     6.9557678340877210E-034
  -2.7200000000000002E-002     1.0448154003278455E-033
  -2.7150000000000001E-002     1.1241044507204789E-033
  -2.7099999999999999E-002     7.1767431989610335E-034
  -2.7049999999999998E-002    -2.8287778175725534E-034
  -2.7000000000000000E-002    -1.7667640013979489E-033
  -2.6950000000000002E-002    -3.3377594760827378E-033
  -2.6900000000000000E-002    -4.3470317565876339E-033
  -2.6849999999999999E-002    -4.0576200495730951E-033
  -2.6800000000000001E-002    -1.9277942660199889E-033
  -2.6749999999999999E-002     2.0590208409801446E-033
  -2.6700000000000002E-002     7.1428330227961652E-033
  -2.6650000000000000E-002     1.1758596580594310E-032
  -2.6599999999999999E-002     1.3838557779064072E-032
  -2.6550000000000001E-002     1.1454478616525466E-032
  -2.6500000000000003E-002     3.6661800815461381E-033
  -2.6450000000000001E-002    -8.6983755310374888E-033
  -2.6400000000000000E-002    -2.2683991495515897E-032
  -2.6349999999999998E-002    -3.3579245906117631E-032
  -2.6300000000000000E-002    -3.6135498418163615E-032
  -2.6250000000000002E-002    -2.6440527062974105E-032
  -2.6200000000000001E-002    -3.9118950490230991E-033
  -2.6150000000000000E-002     2.7361141265515700E-032
  -2.6099999999999998E-002     5.8691505799711304E-032
  -2.6050000000000000E-002     7.8717539038725853E-032
  -2.6000000000000002E-002     7.6984033876779373E-032
  -2.5950000000000001E-002     4.8239649406179893E-032
  -2.5899999999999999E-002    -4.0861456766283967E-033
  -2.5849999999999998E-002    -6.6896993073684149E-032
  -2.5800000000000000E-002    -1.2006681532780696E-031
  -2.5750000000000002E-002    -1.4263812227048454E-031
  -2.5700000000000001E-002    -1.2097819708631028E-031
  -2.5649999999999999E-002    -5.5964927218923496E-032
  -2.5599999999999998E-002     3.4175970343221340E-032
  -2.5550000000000000E-002     1.1784999970354988E-031
  -2.5500000000000002E-002     1.6104886347438609E-031
  -2.5450000000000000E-002     1.4231432125794939E-031
  -2.5399999999999999E-002     6.5951506727939243E-032
  -2.5349999999999998E-002    -3.3332335600143474E-032
  -2.5300000000000000E-002    -9.9433681244297598E-032
  -2.5250000000000002E-002    -7.7824969223709826E-032
  -2.5200000000000000E-002     5.3792196376332180E-032
  -2.5149999999999999E-002     2.5949097867815927E-031
  -2.5100000000000001E-002     4.3859794873073418E-031
  -2.5049999999999999E-002     4.4987630544008536E-031
  -2.5000000000000001E-002     1.6738085416053038E-031
  -2.4950000000000000E-002    -4.4576932881306210E-031
  -2.4899999999999999E-002    -1.2735429048428966E-030
  -2.4850000000000001E-002    -2.0276796718146541E-030
  -2.4800000000000003E-002    -2.3010876962532635E-030
  -2.4750000000000001E-002    -1.7004062448672402E-030
  -2.4700000000000000E-002    -3.1101551837833031E-032
  -2.4649999999999998E-002     2.5255554604423975E-030
  -2.4600000000000000E-002     5.3245653364077975E-030
  -2.4550000000000002E-002     7.3319324892939170E-030
  -2.4500000000000001E-002     7.3938651249494064E-030
  -2.4450000000000000E-002     4.6615350935781196E-030
  -2.4399999999999998E-002    -9.4705566124330485E-031
  -2.4350000000000000E-002    -8.4244525194168767E-030
  -2.4299999999999999E-002    -1.5671092474784295E-029
  -2.4250000000000001E-002    -1.9924494894801406E-029
  -2.4199999999999999E-002    -1.8594438270108242E-029
  -2.4150000000000001E-002    -1.0306093316741868E-029
  -2.4100000000000000E-002     4.1931848806931290E-030
  -2.4049999999999998E-002     2.1660878006302453E-029
  -2.4000000000000000E-002     3.6826613825351088E-029
  -2.3949999999999999E-002     4.3765161859007273E-029
  -2.3900000000000001E-002     3.7902134276212332E-029
  -2.3850000000000000E-002     1.8053356024143789E-029
  -2.3800000000000002E-002    -1.2280481237327291E-029
  -2.3750000000000000E-002    -4.5059917501836172E-029
  -2.3699999999999999E-002    -6.9606628278553013E-029
  -2.3650000000000001E-002    -7.5958600159390618E-029
  -2.3599999999999999E-002    -5.8728596289012886E-029
  -2.3550000000000001E-002    -2.0071590219504312E-029
  -2.3500000000000000E-002     2.9625347861060661E-029
  -2.3449999999999999E-002     7.4144164608340385E-029
  -2.3400000000000001E-002     9.6688302684306870E-029
  -2.3349999999999999E-002     8.6516400633080198E-029
  -2.3300000000000001E-002     4.4546477849934873E-029
  -2.3250000000000000E-002    -1.4670946577644125E-029
  -2.3199999999999998E-002    -6.6362014405440712E-029
  -2.3150000000000000E-002    -8.4261382264867890E-029
  -2.3099999999999999E-002    -5.2322303266544706E-029
  -2.3050000000000001E-002     2.4871887158030853E-029
  -2.3000000000000000E-002     1.1794112151662627E-028
  -2.2950000000000002E-002     1.7850733097840275E-028
  -2.2900000000000000E-002     1.5552018014862785E-028
  -2.2849999999999999E-002     1.8346508064467098E-029
  -2.2800000000000001E-002    -2.2117988260952251E-028
  -2.2749999999999999E-002    -4.9755877089205204E-028
  -2.2700000000000001E-002    -6.9963494066163993E-028
  -2.2650000000000000E-002    -7.0087116085371496E-028
  -2.2599999999999999E-002    -4.0678313276968205E-028
  -2.2550000000000001E-002     1.9409380724629673E-028
  -2.2499999999999999E-002     9.9496061384938222E-028
  -2.2450000000000001E-002     1.7701596612482259E-027
  -2.2400000000000000E-002     2.2203332878918530E-027
  -2.2349999999999998E-002     2.0601034792356013E-027
  -2.2300000000000000E-002     1.1279263727863812E-027
  -2.2249999999999999E-002    -5.1631252965342314E-028
  -2.2200000000000001E-002    -2.5453112125476283E-027
  -2.2150000000000000E-002    -4.4008599568810855E-027
  -2.2100000000000002E-002    -5.4216987107811292E-027
  -2.2050000000000000E-002    -5.0408202043379803E-027
  -2.1999999999999999E-002    -3.0000602168577934E-027
  -2.1950000000000001E-002     4.8864246453793086E-028
  -2.1899999999999999E-002     4.7032027985437054E-027
  -2.1850000000000001E-002     8.5327637426647969E-027
  -2.1800000000000000E-002     1.0752792876326962E-026
  -2.1749999999999999E-002     1.0391080162582202E-026
  -2.1700000000000001E-002     7.0781594103700178E-027
  -2.1649999999999999E-002     1.2614467774594369E-027
  -2.1600000000000001E-002    -5.8114926447282858E-027
  -2.1550000000000000E-002    -1.2370313993813875E-026
  -2.1499999999999998E-002    -1.6603233205550418E-026
  -2.1450000000000000E-002    -1.7204864067076723E-026
  -2.1399999999999999E-002    -1.3809629559073421E-026
  -2.1350000000000001E-002    -7.1463598144871302E-027
  -2.1299999999999999E-002     1.1692179420538814E-027
  -2.1250000000000002E-002     9.1615849621821519E-027
  -2.1200000000000000E-002     1.5169046527597192E-026
  -2.1149999999999999E-002     1.8407536242041619E-026
  -2.1100000000000001E-002     1.9174264596053088E-026
  -2.1049999999999999E-002     1.8552487630005682E-026
  -2.1000000000000001E-002     1.7673285043891749E-026
  -2.0950000000000000E-002     1.6805998103304133E-026
  -2.0899999999999998E-002     1.4699361438981073E-026
  -2.0850000000000000E-002     8.6021526273896948E-027
  -2.0799999999999999E-002    -4.7898952678429685E-027
  -2.0750000000000001E-002    -2.7558756509145710E-026
  -2.0700000000000000E-002    -5.8472605305087369E-026
  -2.0649999999999998E-002    -9.1420657621158411E-026
  -2.0600000000000000E-002    -1.1530573190830637E-025
  -2.0549999999999999E-002    -1.1605956767942722E-025
  -2.0500000000000001E-002    -8.0824593136917177E-026
  -2.0449999999999999E-002    -3.4966565832827184E-027
  -2.0400000000000001E-002     1.0998920345478598E-025
  -2.0350000000000000E-002     2.3871307248270795E-025
  -2.0299999999999999E-002     3.4808242263709855E-025
  -2.0250000000000001E-002     3.9640617600819590E-025
  -2.0199999999999999E-002     3.4618206034366636E-025
  -2.0150000000000001E-002     1.7774091312351514E-025
  -2.0100000000000000E-002    -9.8615951372394822E-026
  -2.0049999999999998E-002    -4.3644373991459323E-025
  -2.0000000000000000E-002    -7.5665203184898153E-025
  -1.9949999999999999E-002    -9.6219628069929522E-025
  -1.9900000000000001E-002    -9.6225761930133472E-025
  -1.9850000000000000E-002    -7.0075870702029481E-025
  -1.9799999999999998E-002    -1.8148267739810696E-025
  -1.9750000000000000E-002     5.1862205628280081E-025
  -1.9699999999999999E-002     1.2545405538283349E-024
  -1.9650000000000001E-002     1.8390152027037298E-024
  -1.9599999999999999E-002     2.0856114926248585E-024
  -1.9550000000000001E-002     1.8597450299150890E-024
  -1.9500000000000000E-002     1.1244316140304841E-024
  -1.9449999999999999E-002    -3.3059287417664572E-026
  -1.9400000000000001E-002    -1.4039748115849690E-024
  -1.9349999999999999E-002    -2.6935161924522702E-024
  -1.9300000000000001E-002    -3.5832649679460424E-024
  -1.9250000000000000E-002    -3.8066504394351387E-024
  -1.9199999999999998E-002    -3.2185821004973262E-024
  -1.9150000000000000E-002    -1.8406004424118271E-024
  -1.9099999999999999E-002     1.3130542830493979E-025
  -1.9050000000000001E-002     2.3592263366948222E-024
  -1.9000000000000000E-002     4.4281125471248981E-024
  -1.8949999999999998E-002     5.9260604927247125E-024
  -1.8900000000000000E-002     6.5200562447944288E-024
  -1.8849999999999999E-002     6.0104638710830424E-024
  -1.8800000000000001E-002     4.3563709449843176E-024
  -1.8749999999999999E-002     1.6748811719707847E-024
  -1.8700000000000001E-002    -1.7740438119572928E-024
  -1.8650000000000000E-002    -5.6034953701731390E-024
  -1.8599999999999998E-002    -9.3088325465010052E-024
  -1.8550000000000001E-002    -1.2275295140014645E-023
  -1.8499999999999999E-002    -1.3803020292473932E-023
  -1.8450000000000001E-002    -1.3176286042642549E-023
  -1.8400000000000000E-002    -9.7987418554259280E-024
  -1.8349999999999998E-002    -3.3957432965240267E-024
  -1.8300000000000000E-002     5.7486360081341740E-024
  -1.8249999999999999E-002     1.6588667458758295E-023
  -1.8200000000000001E-002     2.7241969678026696E-023
  -1.8149999999999999E-002     3.5134658346002478E-023
  -1.8100000000000002E-002     3.7421641303761533E-023
  -1.8050000000000000E-002     3.1663806476073811E-023
  -1.7999999999999999E-002     1.6650131859651532E-023
  -1.7950000000000001E-002    -6.8366634428279136E-024
  -1.7899999999999999E-002    -3.5564347410433618E-023
  -1.7850000000000001E-002    -6.3944543289678227E-023
  -1.7800000000000000E-002    -8.4819823281675555E-023
  -1.7749999999999998E-002    -9.0921646432441694E-023
  -1.7700000000000000E-002    -7.6769954036449354E-023
  -1.7649999999999999E-002    -4.0594774521129781E-023
  -1.7600000000000001E-002     1.4252435856356675E-023
  -1.7550000000000000E-002     7.8912449698448429E-023
  -1.7499999999999998E-002     1.4000003940224387E-022
  -1.7450000000000000E-002     1.8199024012549807E-022
  -1.7399999999999999E-002     1.9066668777228037E-022
  -1.7350000000000001E-002     1.5693326008492497E-022
  -1.7299999999999999E-002     8.0063135117728843E-023
  -1.7250000000000001E-002    -3.0552008464188122E-023
  -1.7200000000000000E-002    -1.5585043112662582E-022
  -1.7149999999999999E-002    -2.6998095905296088E-022
  -1.7100000000000001E-002    -3.4526203916250620E-022
  -1.7049999999999999E-002    -3.5829396172686801E-022
  -1.7000000000000001E-002    -2.9590299925622554E-022
  -1.6950000000000000E-002    -1.5949451521571952E-022
  -1.6899999999999998E-002     3.3358296319878738E-023
  -1.6850000000000000E-002     2.5070747721013220E-022
  -1.6799999999999999E-002     4.5128239683713160E-022
  -1.6750000000000001E-002     5.9193689820931497E-022
  -1.6700000000000000E-002     6.3607202894118286E-022
  -1.6649999999999998E-002     5.6138571836957432E-022
  -1.6600000000000000E-002     3.6543794576795417E-022
  -1.6549999999999999E-002     6.7977857966910034E-023
  -1.6500000000000001E-002    -2.9039004995788824E-022
  -1.6449999999999999E-002    -6.5299342468311454E-022
  -1.6400000000000001E-002    -9.5464795471761386E-022
  -1.6350000000000000E-002    -1.1310394930116715E-021
  -1.6299999999999999E-002    -1.1289328905801895E-021
  -1.6250000000000001E-002    -9.1622644873863405E-022
  -1.6199999999999999E-002    -4.9083356161892843E-022
  -1.6150000000000001E-002     1.1281357257843233E-022
  -1.6100000000000000E-002     8.2114727094502661E-022
  -1.6049999999999998E-002     1.5244956896058999E-021
  -1.6000000000000000E-002     2.0874201052842796E-021
  -1.5949999999999999E-002     2.3672807678337024E-021
  -1.5900000000000001E-002     2.2403929211803796E-021
  -1.5850000000000000E-002     1.6328849908699009E-021
  -1.5799999999999998E-002     5.5079046212425531E-022
  -1.5750000000000000E-002    -8.9814045263764799E-022
  -1.5699999999999999E-002    -2.4991670542308832E-021
  -1.5650000000000001E-002    -3.9486626605158613E-021
  -1.5599999999999999E-002    -4.8985334837603637E-021
  -1.5550000000000001E-002    -5.0238533954698206E-021
  -1.5500000000000000E-002    -4.1035421509538795E-021
  -1.5449999999999998E-002    -2.0975096633598297E-021
  -1.5400000000000000E-002     7.9988457303494210E-022
  -1.5349999999999999E-002     4.1493770058851583E-021
  -1.5300000000000001E-002     7.3123249602045103E-021
  -1.5250000000000000E-002     9.5540035218257670E-021
  -1.5199999999999998E-002     1.0192176512213256E-020
  -1.5150000000000000E-002     8.7644058479086748E-021
  -1.5099999999999999E-002     5.1774587929408411E-021
  -1.5050000000000001E-002    -2.0046827142134692E-022
  -1.4999999999999999E-002    -6.5372416582068069E-021
  -1.4949999999999998E-002    -1.2640376515448084E-020
  -1.4900000000000000E-002    -1.7160330354181185E-020
  -1.4849999999999999E-002    -1.8862337315417709E-020
  -1.4800000000000001E-002    -1.6914910772605594E-020
  -1.4749999999999999E-002    -1.1132063993653491E-020
  -1.4700000000000001E-002    -2.1087664631942722E-021
  -1.4650000000000000E-002     8.7939255138129319E-021
  -1.4599999999999998E-002     1.9628884008377408E-020
  -1.4550000000000000E-002     2.8188139681687581E-020
  -1.4499999999999999E-002     3.2420101047986167E-020
  -1.4450000000000001E-002     3.0861629841363918E-020
  -1.4400000000000000E-002     2.2998783625058611E-020
  -1.4349999999999998E-002     9.4787633499540673E-021
  -1.4300000000000000E-002    -7.8798757947404669E-021
  -1.4249999999999999E-002    -2.6295938224578706E-020
  -1.4200000000000001E-002    -4.2431066156770987E-020
  -1.4149999999999999E-002    -5.2934296485694735E-020
  -1.4099999999999998E-002    -5.5042772830018433E-020
  -1.4050000000000000E-002    -4.7143185243494440E-020
  -1.3999999999999999E-002    -2.9201198599222626E-020
  -1.3950000000000001E-002    -2.9794178446485816E-021
  -1.3899999999999999E-002     2.8012020798036972E-020
  -1.3850000000000001E-002     5.8858386864663312E-020
  -1.3800000000000000E-002     8.3867745573163782E-020
  -1.3749999999999998E-002     9.7434347680853876E-020
  -1.3700000000000000E-002     9.5045863711098261E-020
  -1.3649999999999999E-002     7.4298650283575625E-020
  -1.3600000000000001E-002     3.5748633892451194E-020
  -1.3550000000000000E-002    -1.6594754387677420E-020
  -1.3499999999999998E-002    -7.5312560720822501E-020
  -1.3450000000000000E-002    -1.3028669169774231E-019
  -1.3399999999999999E-002    -1.7010495630583241E-019
  -1.3350000000000001E-002    -1.8405010005139231E-019
  -1.3299999999999999E-002    -1.6440339311452058E-019
  -1.3249999999999998E-002    -1.0864944810593094E-019
  -1.3200000000000000E-002    -2.1082593241015717E-020
  -1.3149999999999998E-002     8.6676706078433045E-020
  -1.3100000000000001E-002     1.9661799639910203E-019
  -1.3049999999999999E-002     2.8684425380987226E-019
  -1.3000000000000001E-002     3.3542281101942113E-019
  -1.2950000000000000E-002     3.2500633283592346E-019
  -1.2899999999999998E-002     2.4734975661207746E-019
  -1.2850000000000000E-002     1.0669929526149866E-019
  -1.2799999999999999E-002    -7.8907575566031475E-020