  -4.0000000000000001E-002     0.0000000000000000     
  -3.9949999999999999E-002     0.0000000000000000     
  -3.9899999999999998E-002     0.0000000000000000     
  -3.9850000000000003E-002     0.0000000000000000     
  -3.9800000000000002E-002     0.0000000000000000     
  -3.9750000000000001E-002     0.0000000000000000     
  -3.9699999999999999E-002     0.0000000000000000     
  -3.9649999999999998E-002     0.0000000000000000     
  -3.9600000000000003E-002     0.0000000000000000     
  -3.9550000000000002E-002     0.0000000000000000     
  -3.9500000000000000E-002     0.0000000000000000     
  -3.9449999999999999E-002     0.0000000000000000     
  -3.9399999999999998E-002     0.0000000000000000     
  -3.9350000000000003E-002     0.0000000000000000     
  -3.9300000000000002E-002     0.0000000000000000     
  -3.9250000000000000E-002     0.0000000000000000     
  -3.9199999999999999E-002     0.0000000000000000     
  -3.9150000000000004E-002     0.0000000000000000     
  -3.9100000000000003E-002     0.0000000000000000     
  -3.9050000000000001E-002     0.0000000000000000     
  -3.9000000000000000E-002     0.0000000000000000     
  -3.8949999999999999E-002     0.0000000000000000     
  -3.8900000000000004E-002     0.0000000000000000     
  -3.8850000000000003E-002     0.0000000000000000     
  -3.8800000000000001E-002     0.0000000000000000     
  -3.8750000000000000E-002     0.0000000000000000     
  -3.8699999999999998E-002     0.0000000000000000     
  -3.8650000000000004E-002     0.0000000000000000     
  -3.8600000000000002E-002     0.0000000000000000     
  -3.8550000000000001E-002     0.0000000000000000     
  -3.8500000000000000E-002     0.0000000000000000     
  -3.8449999999999998E-002     0.0000000000000000     
  -3.8400000000000004E-002     0.0000000000000000     
  -3.8350000000000002E-002     0.0000000000000000     
  -3.8300000000000001E-002     0.0000000000000000     
  -3.8249999999999999E-002     0.0000000000000000     
  -3.8199999999999998E-002     0.0000000000000000     
  -3.8150000000000003E-002     0.0000000000000000     
  -3.8100000000000002E-002     0.0000000000000000     
  -3.8050000000000000E-002     0.0000000000000000     
  -3.7999999999999999E-002     0.0000000000000000     
  -3.7949999999999998E-002     0.0000000000000000     
  -3.7900000000000003E-002     0.0000000000000000     
  -3.7850000000000002E-002     0.0000000000000000     
  -3.7800000000000000E-002     0.0000000000000000     
  -3.7749999999999999E-002     0.0000000000000000     
  -3.7699999999999997E-002     0.0000000000000000     
  -3.7650000000000003E-002     0.0000000000000000     
  -3.7600000000000001E-002     0.0000000000000000     
  -3.7550000000000000E-002     0.0000000000000000     
  -3.7499999999999999E-002     0.0000000000000000     
  -3.7449999999999997E-002     0.0000000000000000     
  -3.7400000000000003E-002     0.0000000000000000     
  -3.7350000000000001E-002     0.0000000000000000     
  -3.7300000000000000E-002     0.0000000000000000     
  -3.7249999999999998E-002     0.0000000000000000     
  -3.7200000000000004E-002     0.0000000000000000     
  -3.7150000000000002E-002     0.0000000000000000     
  -3.7100000000000001E-002     0.0000000000000000     
  -3.7050000000000000E-002     0.0000000000000000     
  -3.6999999999999998E-002     0.0000000000000000     
  -3.6950000000000004E-002     0.0000000000000000     
  -3.6900000000000002E-002     0.0000000000000000     
  -3.6850000000000001E-002     0.0000000000000000     
  -3.6799999999999999E-002     0.0000000000000000     
  -3.6749999999999998E-002     0.0000000000000000     
  -3.6700000000000003E-002     0.0000000000000000     
  -3.6650000000000002E-002     0.0000000000000000     
  -3.6600000000000001E-002     0.0000000000000000     
  -3.6549999999999999E-002     0.0000000000000000     
  -3.6499999999999998E-002     0.0000000000000000     
  -3.6450000000000003E-002     0.0000000000000000     
  -3.6400000000000002E-002     0.0000000000000000     
  -3.6350000000000000E-002     0.0000000000000000     
  -3.6299999999999999E-002     0.0000000000000000     
  -3.6249999999999998E-002     0.0000000000000000     
  -3.6200000000000003E-002     0.0000000000000000     
  -3.6150000000000002E-002     0.0000000000000000     
  -3.6100000000000000E-002     0.0000000000000000     
  -3.6049999999999999E-002     0.0000000000000000     
  -3.6000000000000004E-002     0.0000000000000000     
  -3.5950000000000003E-002     0.0000000000000000     
  -3.5900000000000001E-002     0.0000000000000000     
  -3.5850000000000000E-002     0.0000000000000000     
  -3.5799999999999998E-002     0.0000000000000000     
  -3.5750000000000004E-002     0.0000000000000000     
  -3.5700000000000003E-002     0.0000000000000000     
  -3.5650000000000001E-002     0.0000000000000000     
  -3.5600000000000000E-002     0.0000000000000000     
  -3.5549999999999998E-002     0.0000000000000000     
  -3.5500000000000004E-002     0.0000000000000000     
  -3.5450000000000002E-002     0.0000000000000000     
  -3.5400000000000001E-002     0.0000000000000000     
  -3.5349999999999999E-002     0.0000000000000000     
  -3.5299999999999998E-002     0.0000000000000000     
  -3.5250000000000004E-002     0.0000000000000000     
  -3.5200000000000002E-002     0.0000000000000000     
  -3.5150000000000001E-002     0.0000000000000000     
  -3.5099999999999999E-002     0.0000000000000000     
  -3.5049999999999998E-002     0.0000000000000000     
  -3.5000000000000003E-002     0.0000000000000000     
  -3.4950000000000002E-002     0.0000000000000000     
  -3.4900000000000000E-002     0.0000000000000000     
  -3.4849999999999999E-002     0.0000000000000000     
  -3.4799999999999998E-002     0.0000000000000000     
  -3.4750000000000003E-002     0.0000000000000000     
  -3.4700000000000002E-002     0.0000000000000000     
  -3.4650000000000000E-002     0.0000000000000000     
  -3.4599999999999999E-002     0.0000000000000000     
  -3.4549999999999997E-002     0.0000000000000000     
  -3.4500000000000003E-002     0.0000000000000000     
  -3.4450000000000001E-002     0.0000000000000000     
  -3.4400000000000000E-002     0.0000000000000000     
  -3.4349999999999999E-002     0.0000000000000000     
  -3.4299999999999997E-002     0.0000000000000000     
  -3.4250000000000003E-002     0.0000000000000000     
  -3.4200000000000001E-002     0.0000000000000000     
  -3.4150000000000000E-002     0.0000000000000000     
  -3.4099999999999998E-002     0.0000000000000000     
  -3.4049999999999997E-002     0.0000000000000000     
  -3.4000000000000002E-002     0.0000000000000000     
  -3.3950000000000001E-002     0.0000000000000000     
  -3.3900000000000000E-002     0.0000000000000000     
  -3.3849999999999998E-002     0.0000000000000000     
  -3.3799999999999997E-002     0.0000000000000000     
  -3.3750000000000002E-002     0.0000000000000000     
  -3.3700000000000001E-002     0.0000000000000000     
  -3.3649999999999999E-002     0.0000000000000000     
  -3.3599999999999998E-002     0.0000000000000000     
  -3.3550000000000003E-002     0.0000000000000000     
  -3.3500000000000002E-002     0.0000000000000000     
  -3.3450000000000001E-002     0.0000000000000000     
  -3.3399999999999999E-002     0.0000000000000000     
  -3.3349999999999998E-002     0.0000000000000000     
  -3.3300000000000003E-002     0.0000000000000000     
  -3.3250000000000002E-002     0.0000000000000000     
  -3.3200000000000000E-002     0.0000000000000000     
  -3.3149999999999999E-002     0.0000000000000000     
  -3.3099999999999997E-002     0.0000000000000000     
  -3.3050000000000003E-002     0.0000000000000000     
  -3.3000000000000002E-002     0.0000000000000000     
  -3.2950000000000000E-002     0.0000000000000000     
  -3.2899999999999999E-002     0.0000000000000000     
  -3.2850000000000004E-002     0.0000000000000000     
  -3.2800000000000003E-002     0.0000000000000000     
  -3.2750000000000001E-002     0.0000000000000000     
  -3.2700000000000000E-002     0.0000000000000000     
  -3.2649999999999998E-002     0.0000000000000000     
  -3.2600000000000004E-002     0.0000000000000000     
  -3.2550000000000003E-002     0.0000000000000000     
  -3.2500000000000001E-002     0.0000000000000000     
  -3.2450000000000000E-002     0.0000000000000000     
  -3.2399999999999998E-002     0.0000000000000000     
  -3.2350000000000004E-002     0.0000000000000000     
  -3.2300000000000002E-002     0.0000000000000000     
  -3.2250000000000001E-002     0.0000000000000000     
  -3.2199999999999999E-002     0.0000000000000000     
  -3.2149999999999998E-002     0.0000000000000000     
  -3.2100000000000004E-002     0.0000000000000000     
  -3.2050000000000002E-002     0.0000000000000000     
  -3.2000000000000001E-002     0.0000000000000000     
  -3.1949999999999999E-002     0.0000000000000000     
  -3.1899999999999998E-002     0.0000000000000000     
  -3.1850000000000003E-002     0.0000000000000000     
  -3.1800000000000002E-002     0.0000000000000000     
  -3.1750000000000000E-002     0.0000000000000000     
  -3.1699999999999999E-002     0.0000000000000000     
  -3.1649999999999998E-002     0.0000000000000000     
  -3.1600000000000003E-002     0.0000000000000000     
  -3.1550000000000002E-002     0.0000000000000000     
  -3.1500000000000000E-002     0.0000000000000000     
  -3.1449999999999999E-002     0.0000000000000000     
  -3.1399999999999997E-002     0.0000000000000000     
  -3.1350000000000003E-002     0.0000000000000000     
  -3.1300000000000001E-002     0.0000000000000000     
  -3.1250000000000000E-002     0.0000000000000000     
  -3.1199999999999999E-002     0.0000000000000000     
  -3.1150000000000001E-002     0.0000000000000000     
  -3.1100000000000003E-002     0.0000000000000000     
  -3.1050000000000001E-002     0.0000000000000000     
  -3.1000000000000000E-002     0.0000000000000000     
  -3.0949999999999998E-002     0.0000000000000000     
  -3.0900000000000000E-002     0.0000000000000000     
  -3.0850000000000002E-002     0.0000000000000000     
  -3.0800000000000001E-002    -5.2666936670533375E-039
  -3.0750000000000000E-002    -5.2666936670533375E-039
  -3.0699999999999998E-002    -5.2666936670533375E-039
  -3.0650000000000000E-002     1.5190298117539235E-038
  -3.0600000000000002E-002     3.7150653410917510E-038
  -3.0550000000000001E-002     4.8584035687103210E-038
  -3.0499999999999999E-002     4.1751130096107149E-038
  -3.0449999999999998E-002     3.4983004041426286E-038
  -3.0400000000000000E-002     3.8953823133781617E-052
  -3.0350000000000002E-002    -5.0206975980924063E-038
  -3.0300000000000001E-002    -1.3087505062141469E-037
  -3.0249999999999999E-002    -2.4021471026344218E-037
  -3.0200000000000001E-002    -2.9472426432441448E-037
  -3.0150000000000000E-002    -2.5308424575239898E-037
  -3.0100000000000002E-002    -9.1435219779000444E-038
  -3.0050000000000000E-002     1.6641584248688671E-037
  -2.9999999999999999E-002     4.7223429687256339E-037
  -2.9950000000000001E-002     7.3078903449162332E-037
  -2.9899999999999999E-002     8.0909476997971292E-037
  -2.9850000000000002E-002     6.6519744172412511E-037
  -2.9800000000000000E-002     3.1357161431115568E-037
  -2.9749999999999999E-002    -1.1489557968613956E-037
  -2.9700000000000001E-002    -5.1427617513337720E-037
  -2.9650000000000003E-002    -7.6921681302273789E-037
  -2.9600000000000001E-002    -8.9348247289865618E-037
  -2.9550000000000000E-002    -1.0768605486230310E-036
  -2.9499999999999998E-002    -1.6572779954188841E-036
  -2.9450000000000000E-002    -2.8996705615921620E-036
  -2.9400000000000003E-002    -4.6511422157299837E-036
  -2.9350000000000001E-002    -5.9894877535168672E-036
  -2.9300000000000000E-002    -5.1433868922740872E-036
  -2.9249999999999998E-002     4.9457715341439250E-038
  -2.9200000000000000E-002     1.1024177374601362E-035
  -2.9150000000000002E-002     2.6909867269231211E-035
  -2.9100000000000001E-002     4.3144970150170606E-035
  -2.9049999999999999E-002     5.1172321440972169E-035
  -2.8999999999999998E-002     4.0163922678564246E-035
  -2.8950000000000000E-002     1.1648464069383689E-036
  -2.8900000000000002E-002    -6.6973648559805402E-035
  -2.8850000000000001E-002    -1.5181728084281180E-034
  -2.8799999999999999E-002    -2.2474004848198007E-034
  -2.8749999999999998E-002    -2.4465763876988807E-034
  -2.8700000000000000E-002    -1.6992514816724906E-034
  -2.8650000000000002E-002     2.2750958206548833E-035
  -2.8600000000000000E-002     3.1750843846712800E-034
  -2.8549999999999999E-002     6.4528643643401241E-034
  -2.8500000000000001E-002     8.8637194022306024E-034
  -2.8450000000000000E-002     8.9650972932089012E-034
  -2.8400000000000002E-002     5.5615631716253023E-034
  -2.8350000000000000E-002    -1.6804141891178145E-034
  -2.8299999999999999E-002    -1.1706102684160599E-033
  -2.8250000000000001E-002    -2.1895532321116267E-033
  -2.8200000000000003E-002    -2.8452834530844747E-033
  -2.8150000000000001E-002    -2.7423013572523323E-033
  -2.8100000000000000E-002    -1.6156588289588934E-033
  -2.8049999999999999E-002     5.2086920784349957E-034
  -2.8000000000000001E-002     3.2834891416946130E-033
  -2.7950000000000003E-002     5.9384228516910327E-033
  -2.7900000000000001E-002     7.5592550104507112E-033
  -2.7850000000000000E-002     7.2994979804554149E-033
  -2.7799999999999998E-002     4.7055595448079868E-033
  -2.7750000000000000E-002    -4.0162458276008161E-035
  -2.7700000000000002E-002    -6.0538432622433297E-033
  -2.7650000000000001E-002    -1.1920286618251523E-032
  -2.7600000000000000E-002    -1.6068770639927920E-032
  -2.7549999999999998E-002    -1.7230688390131670E-032
  -2.7500000000000000E-002    -1.4797443210466892E-032
  -2.7450000000000002E-002    -8.9158170136298904E-033
  -2.7400000000000001E-002    -2.6639548839468933E-034
  -2.7349999999999999E-002     1.0359250468026145E-032
  -2.7299999999999998E-002     2.2406571597439852E-032
  -2.7250000000000000E-002     3.5499389583381085E-032
  -2.7200000000000002E-002     4.8769348653217921E-032
  -2.7150000000000001E-002     5.9691417259719670E-032
  -2.7099999999999999E-002     6.2976009744627606E-032
  -2.7049999999999998E-002     5.0424015988709072E-032
  -2.7000000000000000E-002     1.2689500465055136E-032
  -2.6950000000000002E-002    -5.6577156977635493E-032
  -2.6900000000000000E-002    -1.5474814705226840E-031
  -2.6849999999999999E-002    -2.6427536797599088E-031
  -2.6800000000000001E-002    -3.4982328002036519E-031
  -2.6749999999999999E-002    -3.6184752215439410E-031
  -2.6700000000000002E-002    -2.4891060220756244E-031
  -2.6650000000000000E-002     2.1689560818821359E-032
  -2.6599999999999999E-002     4.3933535932674221E-031
  -2.6550000000000001E-002     9.2991588752587798E-031
  -2.6500000000000003E-002     1.3508067535110676E-030
  -2.6450000000000001E-002     1.5107321931117277E-030
  -2.6400000000000000E-002     1.2187044575330573E-030
  -2.6349999999999998E-002     3.5649593306421908E-031
  -2.6300000000000000E-002    -1.0427237168798921E-030
  -2.6250000000000002E-002    -2.7369822009003924E-030
  -2.6200000000000001E-002    -4.2702542816208476E-030
  -2.6150000000000000E-002    -5.0433349242076580E-030
  -2.6099999999999998E-002    -4.4659548581863162E-030
  -2.6050000000000000E-002    -2.1672113621250541E-030
  -2.6000000000000002E-002     1.7886972443100111E-030
  -2.5950000000000001E-002     6.7559834329496234E-030
  -2.5899999999999999E-002     1.1506643482461914E-029
  -2.5849999999999998E-002     1.4427495389017070E-029
  -2.5800000000000000E-002     1.3915114292472239E-029
  -2.5750000000000002E-002     8.9007187201651384E-030
  -2.5700000000000001E-002    -6.2867459753151449E-031
  -2.5649999999999999E-002    -1.3285654840988215E-029
  -2.5599999999999998E-002    -2.6278629759954959E-029
  -2.5550000000000000E-002    -3.5846575874460974E-029
  -2.5500000000000002E-002    -3.8113766832852955E-029
  -2.5450000000000000E-002    -3.0207015337944250E-029
  -2.5399999999999999E-002    -1.1358547088143698E-029
  -2.5349999999999998E-002     1.6338257160709844E-029
  -2.5300000000000000E-002     4.7814035909527340E-029
  -2.5250000000000002E-002     7.5705847824156810E-029
  -2.5200000000000000E-002     9.1786563280113070E-029
  -2.5149999999999999E-002     8.8873665189489179E-029
  -2.5100000000000001E-002     6.2791109320204031E-029
  -2.5049999999999999E-002     1.3913565238789465E-029
  -2.5000000000000001E-002    -5.2089223755267008E-029
  -2.4950000000000000E-002    -1.2450017485706889E-028
  -2.4899999999999999E-002    -1.8876714911552902E-028
  -2.4850000000000001E-002    -2.2848882001821971E-028
  -2.4800000000000003E-002    -2.2793498283087927E-028
  -2.4750000000000001E-002    -1.7492216545669676E-028
  -2.4700000000000000E-002    -6.3955188793150947E-029
  -2.4649999999999998E-002     1.0046819627435211E-028
  -2.4600000000000000E-002     3.0072938013443864E-028
  -2.4550000000000002E-002     5.0396248372184858E-028
  -2.4500000000000001E-002     6.6234353660510216E-028
  -2.4450000000000000E-002     7.1759712488773203E-028
  -2.4399999999999998E-002     6.1128982004450717E-028
  -2.4350000000000000E-002     3.0127819432725231E-028
  -2.4299999999999999E-002    -2.1755780997475288E-028
  -2.4250000000000001E-002    -8.9306429205420382E-028
  -2.4199999999999999E-002    -1.6034664509092190E-027
  -2.4150000000000001E-002    -2.1615024806155976E-027
  -2.4100000000000000E-002    -2.3420199787723100E-027
  -2.4049999999999998E-002    -1.9349513873418442E-027
  -2.4000000000000000E-002    -8.1741162052486702E-028
  -2.3949999999999999E-002     9.7090183114725533E-028
  -2.3900000000000001E-002     3.1728092298224332E-027
  -2.3850000000000000E-002     5.3058856236740886E-027
  -2.3800000000000002E-002     6.7231033955920040E-027
  -2.3750000000000000E-002     6.7484282546150230E-027
  -2.3699999999999999E-002     4.8715397702276116E-027
  -2.3650000000000001E-002     9.6089722239176618E-028
  -2.3599999999999999E-002    -4.5655801292621062E-027
  -2.3550000000000001E-002    -1.0679556654584483E-026
  -2.3500000000000000E-002    -1.5845263402466756E-026
  -2.3449999999999999E-002    -1.8306250403780298E-026
  -2.3400000000000001E-002    -1.6524907053795742E-026
  -2.3349999999999999E-002    -9.6883032772868233E-027
  -2.3300000000000001E-002     1.8500503093545436E-027
  -2.3250000000000000E-002     1.6338502256591230E-026
  -2.3199999999999998E-002     3.0727374233071107E-026
  -2.3150000000000000E-002     4.1156308632443963E-026
  -2.3099999999999999E-002     4.3786762374611313E-026
  -2.3050000000000001E-002     3.5831003618003152E-026
  -2.3000000000000000E-002     1.6542758453992027E-026
  -2.2950000000000002E-002    -1.2102850864131227E-026
  -2.2900000000000000E-002    -4.5281919638434021E-026
  -2.2849999999999999E-002    -7.5888243658287730E-026
  -2.2800000000000001E-002    -9.5781937542507825E-026
  -2.2749999999999999E-002    -9.7536398736991827E-026
  -2.2700000000000001E-002    -7.6351831454609562E-026
  -2.2650000000000000E-002    -3.1718908851163658E-026
  -2.2599999999999999E-002     3.1581003077595092E-026
  -2.2550000000000001E-002     1.0345760916185675E-025
  -2.2499999999999999E-002     1.6962657202584604E-025
  -2.2450000000000001E-002     2.1380375340868473E-025
  -2.2400000000000000E-002     2.2072098049101544E-025
  -2.2349999999999998E-002     1.7953548103708245E-025
  -2.2300000000000000E-002     8.7087090986899673E-026
  -2.2249999999999999E-002    -4.9603139162896471E-026
  -2.2200000000000001E-002    -2.1220263660476723E-025
  -2.2150000000000000E-002    -3.7185470323752846E-025
  -2.2100000000000002E-002    -4.9228582526165303E-025
  -2.2050000000000000E-002    -5.3536522107022275E-025
  -2.1999999999999999E-002    -4.6882359862250134E-025
  -2.1950000000000001E-002    -2.7525797987125977E-025
  -2.1899999999999999E-002     3.9122373079611997E-026
  -2.1850000000000001E-002     4.3816604959432178E-025
  -2.1800000000000000E-002     8.5434306588913385E-025
  -2.1749999999999999E-002     1.1944535496771262E-024
  -2.1700000000000001E-002     1.3537479367014957E-024
  -2.1649999999999999E-002     1.2379418618170412E-024
  -2.1600000000000001E-002     7.9021875850951914E-025
  -2.1550000000000000E-002     1.7821633162498707E-026
  -2.1499999999999998E-002    -9.8904757077209608E-025
  -2.1450000000000000E-002    -2.0537477877898172E-024
  -2.1399999999999999E-002    -2.9312275945501890E-024
  -2.1350000000000001E-002    -3.3496920160378830E-024
  -2.1299999999999999E-002    -3.0721453451309877E-024
  -2.1250000000000002E-002    -1.9673772696344823E-024
  -2.1200000000000000E-002    -7.4184423264966032E-026
  -2.1149999999999999E-002     2.3602763255955441E-024
  -2.1100000000000001E-002     4.8854904862417838E-024
  -2.1049999999999999E-002     6.9065103563978745E-024
  -2.1000000000000001E-002     7.7956870321773388E-024
  -2.0950000000000000E-002     7.0417129102622783E-024
  -2.0899999999999998E-002     4.4067476213645695E-024
  -2.0850000000000000E-002     5.3200678258372340E-026
  -2.0799999999999999E-002    -5.3993094741382918E-024
  -2.0750000000000001E-002    -1.0917238977452316E-023
  -2.0700000000000000E-002    -1.5208112423308248E-023
  -2.0649999999999998E-002    -1.6972915162411012E-023
  -2.0600000000000000E-002    -1.5214409486337741E-023
  -2.0549999999999999E-002    -9.5379743450360547E-024
  -2.0500000000000001E-002    -3.7154244854071800E-025
  -2.0449999999999999E-002     1.0962729063783307E-023
  -2.0400000000000001E-002     2.2369062382406848E-023
  -2.0350000000000000E-002     3.1297698415523200E-023
  -2.0299999999999999E-002     3.5225972068655275E-023
  -2.0250000000000001E-002     3.2221406629077462E-023
  -2.0199999999999999E-002     2.1477460681514244E-023
  -2.0150000000000001E-002     3.7028128018108857E-024
  -2.0100000000000000E-002    -1.8741146802296429E-023
  -2.0049999999999998E-002    -4.2023082105102888E-023
  -2.0000000000000000E-002    -6.1359052555110365E-023
  -1.9949999999999999E-002    -7.1816137888548748E-023
  -1.9900000000000001E-002    -6.9293178874619998E-023
  -1.9850000000000000E-002    -5.1520950814501815E-023
  -1.9799999999999998E-002    -1.8895571356649964E-023
  -1.9750000000000000E-002     2.5043104521559221E-023
  -1.9699999999999999E-002     7.3649095703292926E-023
  -1.9650000000000001E-002     1.1782589632345951E-022
  -1.9599999999999999E-002     1.4731461962820314E-022
  -1.9550000000000001E-002     1.5251607033418411E-022
  -1.9500000000000000E-002     1.2662220199775588E-022
  -1.9449999999999999E-002     6.7709988024409657E-023
  -1.9400000000000001E-002    -1.9641208382583868E-023
  -1.9349999999999999E-002    -1.2367876508215236E-022
  -1.9300000000000001E-002    -2.2616074253015617E-022
  -1.9250000000000000E-002    -3.0462901791784094E-022
  -1.9199999999999998E-002    -3.3621884815849758E-022
  -1.9150000000000000E-002    -3.0258275292087179E-022
  -1.9099999999999999E-002    -1.9512064516143144E-022
  -1.9050000000000001E-002    -1.9396848595058164E-023
  -1.9000000000000000E-002     2.0250482739377968E-022
  -1.8949999999999998E-002     4.3279579497948635E-022
  -1.8900000000000000E-002     6.2261753372749570E-022
  -1.8849999999999999E-002     7.2039729051578477E-022
  -1.8800000000000001E-002     6.8290176465147252E-022
  -1.8749999999999999E-002     4.8704872156721201E-022
  -1.8700000000000001E-002     1.3987558233833528E-022
  -1.8650000000000000E-002    -3.1611894790246300E-022
  -1.8599999999999998E-002    -8.0458078705370755E-022
  -1.8550000000000001E-002    -1.2250386908227190E-021
  -1.8499999999999999E-002    -1.4702842460602694E-021
  -1.8450000000000001E-002    -1.4489878487329908E-021
  -1.8400000000000000E-002    -1.1094246450972100E-021
  -1.8349999999999998E-002    -4.5909705350757494E-022
  -1.8300000000000000E-002     4.2500919003530018E-022
  -1.8249999999999999E-002     1.3996321198635164E-021
  -1.8200000000000001E-002     2.2736785788162493E-021
  -1.8149999999999999E-002     2.8405647494792352E-021
  -1.8100000000000002E-002     2.9197867316424073E-021
  -1.8050000000000000E-002     2.4002720786924619E-021
  -1.7999999999999999E-002     1.2764907629022331E-021
  -1.7950000000000001E-002    -3.3152680704749214E-022
  -1.7899999999999999E-002    -2.1810379154431078E-021
  -1.7850000000000001E-002    -3.9352965072744208E-021
  -1.7800000000000000E-002    -5.2162569222356088E-021
  -1.7749999999999998E-002    -5.6742936256797216E-021
  -1.7700000000000000E-002    -5.0636220826815648E-021
  -1.7649999999999999E-002    -3.3094459397244777E-021
  -1.7600000000000001E-002    -5.5248779000760931E-022
  -1.7550000000000000E-002     2.8411698102735233E-021
  -1.7499999999999998E-002     6.3122791154958544E-021
  -1.7450000000000000E-002     9.1833765717065220E-021
  -1.7399999999999999E-002     1.0769514142055034E-020
  -1.7350000000000001E-002     1.0510213559603141E-020
  -1.7299999999999999E-002     8.1017707842852554E-021
  -1.7250000000000001E-002     3.6052125160125028E-021
  -1.7200000000000000E-002    -2.4949872876306513E-021
  -1.7149999999999999E-002    -9.3022898089398569E-021
  -1.7100000000000001E-002    -1.5601673275806836E-020
  -1.7049999999999999E-002    -2.0034638622555426E-020
  -1.7000000000000001E-002    -2.1339055013202737E-020
  -1.6950000000000000E-002    -1.8620773069955006E-020
  -1.6899999999999998E-002    -1.1609928384254148E-020
  -1.6850000000000000E-002    -8.4678648347170859E-022
  -1.6799999999999999E-002     1.2256724800413566E-020
  -1.6750000000000001E-002     2.5520609471977391E-020
  -1.6700000000000000E-002     3.6281360662094042E-020
  -1.6649999999999998E-002     4.1838563223259781E-020
  -1.6600000000000000E-002     4.0005537844836994E-020
  -1.6549999999999999E-002     2.9670078587819430E-020
  -1.6500000000000001E-002     1.1248024744993986E-020
  -1.6449999999999999E-002    -1.3090595551090986E-020
  -1.6400000000000001E-002    -3.9519411286285383E-020
  -1.6350000000000000E-002    -6.3024081103187760E-020
  -1.6299999999999999E-002    -7.8216044537048940E-020
  -1.6250000000000001E-002    -8.0386028506211823E-020
  -1.6199999999999999E-002    -6.6617897548953945E-020
  -1.6150000000000001E-002    -3.6736001806182568E-020
  -1.6100000000000000E-002     6.1480330171881877E-021
  -1.6049999999999998E-002     5.5678807409496045E-020
  -1.6000000000000000E-002     1.0298780516824821E-019
  -1.5949999999999999E-002     1.3807712179009424E-019
  -1.5900000000000001E-002     1.5167707218336478E-019
  -1.5850000000000000E-002     1.3726880272601196E-019
  -1.5799999999999998E-002     9.2878540989094277E-020
  -1.5750000000000000E-002     2.2236864160711268E-020
  -1.5699999999999999E-002    -6.5034454273318925E-020
  -1.5650000000000001E-002    -1.5439506837625274E-019
  -1.5599999999999999E-002    -2.2849661556671187E-019
  -1.5550000000000001E-002    -2.7017816765277349E-019
  -1.5500000000000000E-002    -2.6588106880376286E-019
  -1.5449999999999998E-002    -2.0887222390631599E-019
  -1.5400000000000000E-002    -1.0162029977550369E-019
  -1.5349999999999999E-002     4.3254753348145221E-020
  -1.5300000000000001E-002     2.0384334508290439E-019
  -1.5250000000000000E-002     3.5171197130787942E-019
  -1.5199999999999998E-002     4.5632351169546537E-019
  -1.5150000000000000E-002     4.9052222165781457E-019
  -1.5099999999999999E-002     4.3621693374182096E-019
  -1.5050000000000001E-002     2.8923936925234217E-019
  -1.4999999999999999E-002     6.2356048364330446E-020
  -1.4949999999999998E-002    -2.1440565285672452E-019
  -1.4900000000000000E-002    -4.9660021613185728E-019
  -1.4849999999999999E-002    -7.3136437685401714E-019
  -1.4800000000000001E-002    -8.6598723253147347E-019
  -1.4749999999999999E-002    -8.5789677642402782E-019
  -1.4700000000000001E-002    -6.8444888601492974E-019
  -1.4650000000000000E-002    -3.5064998691798945E-019
  -1.4599999999999998E-002     1.0700932399951004E-019
  -1.4550000000000000E-002     6.2204085701425748E-019
  -1.4499999999999999E-002     1.1054554379947507E-018
  -1.4450000000000001E-002     1.4589349712532891E-018
  -1.4400000000000000E-002     1.5921786392869933E-018
  -1.4349999999999998E-002     1.4418139856640645E-018
  -1.4300000000000000E-002     9.8845162336000970E-019
  -1.4249999999999999E-002     2.6817466049320861E-019
  -1.4200000000000001E-002    -6.2483810178680510E-019
  -1.4149999999999999E-002    -1.5466927150140209E-018
  -1.4099999999999998E-002    -2.3234723340308750E-018
  -1.4050000000000000E-002    -2.7803066992096139E-018
  -1.3999999999999999E-002    -2.7756264728984982E-018
  -1.3950000000000001E-002    -2.2346108487088787E-018
  -1.3899999999999999E-002    -1.1749566713111733E-018
  -1.3850000000000001E-002     2.8150255733132587E-019
  -1.3800000000000000E-002     1.9159836075067238E-018
  -1.3749999999999998E-002     3.4403319704474958E-018
  -1.3700000000000000E-002     4.5426842523299948E-018
  -1.3649999999999999E-002     4.9448789690787587E-018
  -1.3600000000000001E-002     4.4619427660672305E-018
  -1.3550000000000000E-002     3.0521458629590373E-018
  -1.3499999999999998E-002     8.4634461752789396E-019
  -1.3450000000000000E-002    -1.8521248841662571E-018
  -1.3399999999999999E-002    -4.6010931880053412E-018
  -1.3350000000000001E-002    -6.8847882065797812E-018
  -1.3299999999999999E-002    -8.2022391840727732E-018
  -1.3249999999999998E-002    -8.1648839960176750E-018
  -1.3200000000000000E-002    -6.5858690319501850E-018
  -1.3149999999999998E-002    -3.5429662853980256E-018
  -1.3100000000000001E-002     6.0015008867952098E-019
  -1.3049999999999999E-002     5.2235113832202330E-018
  -1.3000000000000001E-002     9.5321895175055697E-018
  -1.2950000000000000E-002     1.2680691574634838E-017
  -1.2899999999999998E-002     1.3922844908991329E-017
  -1.2850000000000000E-002     1.2762843162209656E-017
  -1.2799999999999999E-002     9.0800423133862841E-018