  -4.0000000000000001E-002     0.0000000000000000     
  -3.9949999999999999E-002     0.0000000000000000     
  -3.9899999999999998E-002     0.0000000000000000     
  -3.9850000000000003E-002     0.0000000000000000     
  -3.9800000000000002E-002     0.0000000000000000     
  -3.9750000000000001E-002     0.0000000000000000     
  -3.9699999999999999E-002     0.0000000000000000     
  -3.9649999999999998E-002     0.0000000000000000     
  -3.9600000000000003E-002     0.0000000000000000     
  -3.9550000000000002E-002     0.0000000000000000     
  -3.9500000000000000E-002     0.0000000000000000     
  -3.9449999999999999E-002    -1.1660215120467510E-031
  -3.9399999999999998E-002    -2.0004822411446350E-030
  -3.9350000000000003E-002    -1.6957671724849321E-029
  -3.9300000000000002E-002    -9.2690398028553285E-029
  -3.9250000000000000E-002    -3.5291159190714614E-028
  -3.9199999999999999E-002    -9.0170557030153204E-028
  -3.9150000000000004E-002    -9.7751017291261365E-028
  -3.9100000000000003E-002     4.1697900928779833E-027
  -3.9050000000000001E-002     3.0922999276529718E-026
  -3.9000000000000000E-002     1.1960277636653438E-025
  -3.8949999999999999E-002     3.4122691214923259E-025
  -3.8900000000000004E-002     7.6418518819427883E-025
  -3.8850000000000003E-002     1.3116334064770266E-024
  -3.8800000000000001E-002     1.4263571521004789E-024
  -3.8750000000000000E-002    -4.5961087376529722E-025
  -3.8699999999999998E-002    -7.3755867731350218E-024
  -3.8650000000000004E-002    -2.3385538566118087E-023
  -3.8600000000000002E-002    -5.0896015028418740E-023
  -3.8550000000000001E-002    -8.4241313797961091E-023
  -3.8500000000000000E-002    -9.9552864154585743E-023
  -3.8449999999999998E-002    -4.4898166726504068E-023
  -3.8400000000000004E-002     1.5899324937306310E-022
  -3.8350000000000002E-002     5.9119467766991314E-022
  -3.8300000000000001E-002     1.2607969291477076E-021
  -3.8249999999999999E-002     1.9951707446394483E-021
  -3.8199999999999998E-002     2.3224699167656640E-021
  -3.8150000000000003E-002     1.4344594193957027E-021
  -3.8100000000000002E-002    -1.6452606227808382E-021
  -3.8050000000000000E-002    -7.5773629596914347E-021
  -3.7999999999999999E-002    -1.5909807724911671E-020
  -3.7949999999999998E-002    -2.4193334935098338E-020
  -3.7900000000000003E-002    -2.7509099729627087E-020
  -3.7850000000000002E-002    -1.9084935659435066E-020
  -3.7800000000000000E-002     7.4474608683972306E-021
  -3.7749999999999999E-002     5.4182834282280846E-020
  -3.7699999999999997E-002     1.1448893121012230E-019
  -3.7650000000000003E-002     1.7007129369653178E-019
  -3.7600000000000001E-002     1.9217392155546667E-019
  -3.7550000000000000E-002     1.4881463895969136E-019
  -3.7499999999999999E-002     1.7700899320333327E-020
  -3.7449999999999997E-002    -1.9880973245042899E-019
  -3.7400000000000003E-002    -4.6321028628415574E-019
  -3.7350000000000001E-002    -7.0382399498360721E-019
  -3.7300000000000000E-002    -8.3100089451331555E-019
  -3.7249999999999998E-002    -7.6548844849305718E-019
  -3.7200000000000004E-002    -4.6834992132146569E-019
  -3.7150000000000002E-002     4.2093082335458305E-020
  -3.7100000000000001E-002     6.9694309305808485E-019
  -3.7050000000000000E-002     1.4053426376000291E-018
  -3.6999999999999998E-002     2.0874229494117612E-018
  -3.6950000000000004E-002     2.6843301279101331E-018
  -3.6900000000000002E-002     3.1249473199308983E-018
  -3.6850000000000001E-002     3.2559723153689916E-018
  -3.6799999999999999E-002     2.7800868303659561E-018
  -3.6749999999999998E-002     1.2739106693005597E-018
  -3.6700000000000003E-002    -1.6532362594729832E-018
  -3.6650000000000002E-002    -6.0615865598237935E-018
  -3.6600000000000001E-002    -1.1347269433266722E-017
  -3.6549999999999999E-002    -1.6067851049944554E-017
  -3.6499999999999998E-002    -1.8138110415236146E-017
  -3.6450000000000003E-002    -1.5495538019008915E-017
  -3.6400000000000002E-002    -7.1014704630402381E-018
  -3.6350000000000000E-002     6.1251682111979883E-018
  -3.6299999999999999E-002     2.0997938490627980E-017
  -3.6249999999999998E-002     3.2821401740471066E-017
  -3.6200000000000003E-002     3.7231849357265004E-017
  -3.6150000000000002E-002     3.2502927278470800E-017
  -3.6100000000000000E-002     2.1161210708656147E-017
  -3.6049999999999999E-002     9.6779246585448806E-018
  -3.6000000000000004E-002     5.6279966806969726E-018
  -3.5950000000000003E-002     1.2964213143363941E-017
  -3.5900000000000001E-002     2.7464801777981823E-017
  -3.5850000000000000E-002     3.5213048897880336E-017
  -3.5799999999999998E-002     1.6439746490264720E-017
  -3.5750000000000004E-002    -4.5033975713542772E-017
  -3.5700000000000003E-002    -1.4961256767404994E-016
  -3.5650000000000001E-002    -2.7261768642269457E-016
  -3.5600000000000000E-002    -3.6423663458554155E-016
  -3.5549999999999998E-002    -3.6271883095340064E-016
  -3.5500000000000004E-002    -2.1940306650456977E-016
  -3.5450000000000002E-002     7.2464813455573167E-017
  -3.5400000000000001E-002     4.5796175664151594E-016
  -3.5349999999999999E-002     8.2250223782710536E-016
  -3.5299999999999998E-002     1.0218854291604135E-015
  -3.5250000000000004E-002     9.3505714052855926E-016
  -3.5200000000000002E-002     5.2190120333530927E-016
  -3.5150000000000001E-002    -1.3894709937913822E-016
  -3.5099999999999999E-002    -8.5460674529173387E-016
  -3.5049999999999998E-002    -1.3731842972211357E-015
  -3.5000000000000003E-002    -1.4768171901309232E-015
  -3.4950000000000002E-002    -1.0792935106770474E-015
  -3.4900000000000000E-002    -2.8557435237014958E-016
  -3.4849999999999999E-002     6.2115424769352244E-016
  -3.4799999999999998E-002     1.2733054543335792E-015
  -3.4750000000000003E-002     1.3668082567106789E-015
  -3.4700000000000002E-002     8.0643476397152013E-016
  -3.4650000000000000E-002    -2.1783752462491721E-016
  -3.4599999999999999E-002    -1.2709086687302047E-015
  -3.4549999999999997E-002    -1.8323308941371828E-015
  -3.4500000000000003E-002    -1.5249818128524077E-015
  -3.4450000000000001E-002    -3.2081584635493439E-016
  -3.4400000000000000E-002     1.3751615897573824E-015
  -3.4349999999999999E-002     2.8252851718302968E-015
  -3.4299999999999997E-002     3.2354729467576901E-015
  -3.4250000000000003E-002     2.1182574533947125E-015
  -3.4200000000000001E-002    -4.0264664059798828E-016
  -3.4150000000000000E-002    -3.4945428441148646E-015
  -3.4099999999999998E-002    -5.8123591423003221E-015
  -3.4049999999999997E-002    -5.9678629564714238E-015
  -3.4000000000000002E-002    -3.1294098104431116E-015
  -3.3950000000000001E-002     2.4725075960019055E-015
  -3.3900000000000000E-002     9.3632843110326956E-015
  -3.3849999999999998E-002     1.5107002020869897E-014
  -3.3799999999999997E-002     1.7034862561347841E-014
  -3.3750000000000002E-002     1.3220149733500323E-014
  -3.3700000000000001E-002     3.3692603184688492E-015
  -3.3649999999999999E-002    -1.0725488626037692E-014
  -3.3599999999999998E-002    -2.5416250186297354E-014
  -3.3550000000000003E-002    -3.6138589543837155E-014
  -3.3500000000000002E-002    -3.8822847118081399E-014
  -3.3450000000000001E-002    -3.1332721112760017E-014
  -3.3399999999999999E-002    -1.4416427917434728E-014
  -3.3349999999999998E-002     8.2291182060875018E-015
  -3.3300000000000003E-002     3.0900588619993397E-014
  -3.3250000000000002E-002     4.7597834012961041E-014
  -3.3200000000000000E-002     5.3952075283487250E-014
  -3.3149999999999999E-002     4.8688680311884808E-014
  -3.3099999999999997E-002     3.4052859002649954E-014
  -3.3050000000000003E-002     1.4971190452173037E-014
  -3.3000000000000002E-002    -2.8087585002381813E-015
  -3.2950000000000000E-002    -1.4936304553207422E-014
  -3.2899999999999999E-002    -2.0166219700536690E-014
  -3.2850000000000004E-002    -2.0815685600975714E-014
  -3.2800000000000003E-002    -2.1666091433425981E-014
  -3.2750000000000001E-002    -2.7619299872876958E-014
  -3.2700000000000000E-002    -4.0977180551732620E-014
  -3.2649999999999998E-002    -5.9484758969680779E-014
  -3.2600000000000004E-002    -7.6115173463110058E-014
  -3.2550000000000003E-002    -8.0990640897397187E-014
  -3.2500000000000001E-002    -6.5010944219102973E-014
  -3.2450000000000000E-002    -2.3999533371905912E-014
  -3.2399999999999998E-002     3.8211634919606274E-014
  -3.2350000000000004E-002     1.0915550960940296E-013
  -3.2300000000000002E-002     1.7021056601933954E-013
  -3.2250000000000001E-002     2.0174846222884707E-013
  -3.2199999999999999E-002     1.8945922033910406E-013
  -3.2149999999999998E-002     1.2975852217798206E-013
  -3.2100000000000004E-002     3.2287723655734929E-014
  -3.2050000000000002E-002    -8.1637530123610663E-014
  -3.2000000000000001E-002    -1.8444470397619567E-013
  -3.1949999999999999E-002    -2.5003865080849841E-013
  -3.1899999999999998E-002    -2.6140789294477884E-013
  -3.1850000000000003E-002    -2.1558564666530194E-013
  -3.1800000000000002E-002    -1.2427685020400397E-013
  -3.1750000000000000E-002    -9.9330232353114084E-015
  -3.1699999999999999E-002     1.0134151547450121E-013
  -3.1649999999999998E-002     1.8752812074463582E-013
  -3.1600000000000003E-002     2.3632398121753440E-013
  -3.1550000000000002E-002     2.4672166978705057E-013
  -3.1500000000000000E-002     2.2618403460947234E-013
  -3.1449999999999999E-002     1.8484148131374389E-013
  -3.1399999999999997E-002     1.2941530442775462E-013
  -3.1350000000000003E-002     5.9790592073748206E-014
  -3.1300000000000001E-002    -2.9847462392276758E-014
  -3.1250000000000000E-002    -1.4533453650614203E-013
  -3.1199999999999999E-002    -2.8447592046766668E-013
  -3.1150000000000001E-002    -4.3028506647481424E-013
  -3.1100000000000003E-002    -5.4930506757783215E-013
  -3.1050000000000001E-002    -5.9733690433230735E-013
  -3.1000000000000000E-002    -5.3220351303034930E-013
  -3.0949999999999998E-002    -3.3016720867723448E-013
  -3.0900000000000000E-002    -4.4024706840131711E-016
  -3.0850000000000002E-002     4.0814617310869217E-013
  -3.0800000000000001E-002     8.1242662337138727E-013
  -3.0750000000000000E-002     1.1126246408574292E-012
  -3.0699999999999998E-002     1.2186819478912647E-012
  -3.0650000000000000E-002     1.0778503740579981E-012
  -3.0600000000000002E-002     6.9484451829457394E-013
  -3.0550000000000001E-002     1.3734273321495266E-013
  -3.0499999999999999E-002    -4.7630524741340552E-013
  -3.0449999999999998E-002    -1.0048637269499672E-012
  -3.0400000000000000E-002    -1.3201510197513588E-012
  -3.0350000000000002E-002    -1.3409014567103417E-012
  -3.0300000000000001E-002    -1.0546515917531085E-012
  -3.0249999999999999E-002    -5.2130993749219257E-013
  -3.0200000000000001E-002     1.4227665269886391E-013
  -3.0150000000000000E-002     7.9158972128914873E-013
  -3.0100000000000002E-002     1.2883207955310949E-012
  -3.0050000000000000E-002     1.5288083299314081E-012
  -2.9999999999999999E-002     1.4596043557829619E-012
  -2.9950000000000001E-002     1.0778486393345221E-012
  -2.9899999999999999E-002     4.1980660484344789E-013
  -2.9850000000000002E-002    -4.5500712572699165E-013
  -2.9800000000000000E-002    -1.4758030951814161E-012
  -2.9749999999999999E-002    -2.5629546228367328E-012
  -2.9700000000000001E-002    -3.6205322594129452E-012
  -2.9650000000000003E-002    -4.5243388029081455E-012
  -2.9600000000000001E-002    -5.1147476011481618E-012
  -2.9550000000000000E-002    -5.2038490704064966E-012
  -2.9499999999999998E-002    -4.6024152371149096E-012
  -2.9450000000000000E-002    -3.1651022948386842E-012
  -2.9400000000000003E-002    -8.4452377816651714E-013
  -2.9350000000000001E-002     2.2608317128136601E-012
  -2.9300000000000000E-002     5.8810300379574798E-012
  -2.9249999999999998E-002     9.5835605076755037E-012
  -2.9200000000000000E-002     1.2820260478219048E-011
  -2.9150000000000002E-002     1.5005689399383293E-011
  -2.9100000000000001E-002     1.5611583206731616E-011
  -2.9049999999999999E-002     1.4257650615689954E-011
  -2.8999999999999998E-002     1.0780272508004174E-011
  -2.8950000000000000E-002     5.2672900763273134E-012
  -2.8900000000000002E-002    -1.9435468859296812E-012
  -2.8850000000000001E-002    -1.0295795466186419E-011
  -2.8799999999999999E-002    -1.9062789541335334E-011
  -2.8749999999999998E-002    -2.7400207103234209E-011
  -2.8700000000000000E-002    -3.4393456832537694E-011
  -2.8650000000000002E-002    -3.9097169945989663E-011
  -2.8600000000000000E-002    -4.0570047321608627E-011
  -2.8549999999999999E-002    -3.7911288691683254E-011
  -2.8500000000000001E-002    -3.0303249493046636E-011
  -2.8450000000000000E-002    -1.7059499646254750E-011
  -2.8400000000000002E-002     2.3291685420645525E-012
  -2.8350000000000000E-002     2.8162971954515115E-011
  -2.8299999999999999E-002     6.0527818868116867E-011
  -2.8250000000000001E-002     9.9322799984591370E-011
  -2.8200000000000003E-002     1.4431671135906043E-010
  -2.8150000000000001E-002     1.9521881333695035E-010
  -2.8100000000000000E-002     2.5174143325479292E-010
  -2.8049999999999999E-002     3.1363167618536636E-010
  -2.8000000000000001E-002     3.8065722796076784E-010
  -2.7950000000000003E-002     4.5254677782935460E-010
  -2.7900000000000001E-002     5.2890108959147142E-010
  -2.7850000000000000E-002     6.0910548826953459E-010
  -2.7799999999999998E-002     6.9227823473738681E-010
  -2.7750000000000000E-002     7.7728140590593853E-010
  -2.7700000000000002E-002     8.6280621536261037E-010
  -2.7650000000000001E-002     9.4752017343324724E-010
  -2.7600000000000000E-002     1.0302455555333268E-009
  -2.7549999999999998E-002     1.1101269903335265E-009
  -2.7500000000000000E-002     1.1867474780657972E-009
  -2.7450000000000002E-002     1.2601658605504440E-009
  -2.7400000000000001E-002     1.3308725232974439E-009
  -2.7349999999999999E-002     1.3996795944493101E-009
  -2.7299999999999998E-002     1.4675802795238724E-009
  -2.7250000000000000E-002     1.5356127480714576E-009
  -2.7200000000000002E-002     1.6047569939559025E-009
  -2.7150000000000001E-002     1.6758729959320817E-009
  -2.7099999999999999E-002     1.7496724069587799E-009
  -2.7049999999999998E-002     1.8267016788087176E-009
  -2.7000000000000000E-002     1.9073160828497748E-009
  -2.6950000000000002E-002     1.9916315263657225E-009
  -2.6900000000000000E-002     2.0794654886913122E-009
  -2.6849999999999999E-002     2.1702899477560322E-009
  -2.6800000000000001E-002     2.2632344887085765E-009
  -2.6749999999999999E-002     2.3571646856623829E-009
  -2.6700000000000002E-002     2.4508506335507718E-009
  -2.6650000000000000E-002     2.5432018713189564E-009
  -2.6599999999999999E-002     2.6335214009520769E-009
  -2.6550000000000001E-002     2.7217159637160648E-009
  -2.6500000000000003E-002     2.8083992908989330E-009
  -2.6450000000000001E-002     2.8948465846667659E-009
  -2.6400000000000000E-002     2.9828006731236201E-009
  -2.6349999999999998E-002     3.0741691414704064E-009
  -2.6300000000000000E-002     3.1706810510456762E-009
  -2.6250000000000002E-002     3.2735900656888361E-009
  -2.6200000000000001E-002     3.3834917090302952E-009
  -2.6150000000000000E-002     3.5002925002913798E-009
  -2.6099999999999998E-002     3.6233220868098215E-009
  -2.6050000000000000E-002     3.7515439643698301E-009
  -2.6000000000000002E-002     3.8837915106171295E-009
  -2.5950000000000001E-002     4.0189647165789211E-009
  -2.5899999999999999E-002     4.1561434294123956E-009
  -2.5849999999999998E-002     4.2946095568652254E-009
  -2.5800000000000000E-002     4.4338142046740359E-009
  -2.5750000000000002E-002     4.5733368203570990E-009
  -2.5700000000000001E-002     4.7128860813927531E-009
  -2.5649999999999999E-002     4.8523691731361396E-009
  -2.5599999999999998E-002     4.9920183542440100E-009
  -2.5550000000000000E-002     5.1325250716161008E-009
  -2.5500000000000002E-002     5.2751119028471294E-009
  -2.5450000000000000E-002     5.4214903677518578E-009
  -2.5399999999999999E-002     5.5736766313430053E-009
  -2.5349999999999998E-002     5.7336824177411927E-009
  -2.5300000000000000E-002     5.9031561860933834E-009
  -2.5250000000000002E-002     6.0830633863417916E-009
  -2.5200000000000000E-002     6.2735034944694235E-009
  -2.5149999999999999E-002     6.4737202265519045E-009
  -2.5100000000000001E-002     6.6823035993479607E-009
  -2.5049999999999999E-002     6.8975407607752004E-009
  -2.5000000000000001E-002     7.1178067884147822E-009
  -2.4950000000000000E-002     7.3418959800619632E-009
  -2.4899999999999999E-002     7.5691986012316193E-009
  -2.4850000000000001E-002     7.7996960001769366E-009
  -2.4800000000000003E-002     8.0337922980788790E-009
  -2.4750000000000001E-002     8.2720594818397331E-009
  -2.4700000000000000E-002     8.5149860495903340E-009
  -2.4649999999999998E-002     8.7628269085371358E-009
  -2.4600000000000000E-002     9.0155909404643353E-009
  -2.4550000000000002E-002     9.2731582412852731E-009
  -2.4500000000000001E-002     9.5354772966516066E-009
  -2.4450000000000000E-002     9.8027621575624835E-009
  -2.4399999999999998E-002     1.0075598133596486E-008
  -2.4350000000000000E-002     1.0354937352019533E-008
  -2.4299999999999999E-002     1.0641975300984541E-008
  -2.4250000000000001E-002     1.0937958982992768E-008
  -2.4199999999999999E-002     1.1244005726496198E-008
  -2.4150000000000001E-002     1.1560987722702976E-008
  -2.4100000000000000E-002     1.1889523143793213E-008
  -2.4049999999999998E-002     1.2230056078976759E-008
  -2.4000000000000000E-002     1.2582973774044603E-008
  -2.3949999999999999E-002     1.2948682126534550E-008
  -2.3900000000000001E-002     1.3327597692125437E-008
  -2.3850000000000000E-002     1.3720021563301543E-008
  -2.3800000000000002E-002     1.4125945746457091E-008
  -2.3750000000000000E-002     1.4544867532606531E-008
  -2.3699999999999999E-002     1.4975709561326767E-008
  -2.3650000000000001E-002     1.5416908638599125E-008
  -2.3599999999999999E-002     1.5866694624833144E-008
  -2.3550000000000001E-002     1.6323525642292225E-008
  -2.3500000000000000E-002     1.6786538381552418E-008
  -2.3449999999999999E-002     1.7255896267442949E-008
  -2.3400000000000001E-002     1.7732920909452332E-008
  -2.3349999999999999E-002     1.8219939335040181E-008
  -2.3300000000000001E-002     1.8719875427564148E-008
  -2.3250000000000000E-002     1.9235699255659711E-008
  -2.3199999999999998E-002     1.9769871073549439E-008
  -2.3150000000000000E-002     2.0323946969824647E-008
  -2.3099999999999999E-002     2.0898433206184563E-008
  -2.3050000000000001E-002     2.1492917667842448E-008
  -2.3000000000000000E-002     2.2106384278686164E-008
  -2.2950000000000002E-002     2.2737614457923883E-008
  -2.2900000000000000E-002     2.3385508640672015E-008
  -2.2849999999999999E-002     2.4049233715572882E-008
  -2.2800000000000001E-002     2.4728183944944249E-008
  -2.2749999999999999E-002     2.5421799776381704E-008
  -2.2700000000000001E-002     2.6129372443506327E-008
  -2.2650000000000000E-002     2.6849978240761629E-008
  -2.2599999999999999E-002     2.7582592210251278E-008
  -2.2550000000000001E-002     2.8326420320468060E-008
  -2.2499999999999999E-002     2.9081357766358451E-008
  -2.2450000000000001E-002     2.9848411742250391E-008
  -2.2400000000000000E-002     3.0629927039171889E-008
  -2.2349999999999998E-002     3.1429486568868015E-008
  -2.2300000000000000E-002     3.2251470827304729E-008
  -2.2249999999999999E-002     3.3100363339144678E-008
  -2.2200000000000001E-002     3.3979958402596822E-008
  -2.2150000000000000E-002     3.4892714495526889E-008
  -2.2100000000000002E-002     3.5839413214944216E-008
  -2.2050000000000000E-002     3.6819251647557394E-008
  -2.1999999999999999E-002     3.7830336196975622E-008
  -2.1950000000000001E-002     3.8870425100867578E-008
  -2.1899999999999999E-002     3.9937724238825467E-008
  -2.1850000000000001E-002     4.1031519515399850E-008
  -2.1800000000000000E-002     4.2152418444629802E-008
  -2.1749999999999999E-002     4.3302186725213687E-008
  -2.1700000000000001E-002     4.4483240202453089E-008
  -2.1649999999999999E-002     4.5697937878230732E-008
  -2.1600000000000001E-002     4.6947935317120937E-008
  -2.1550000000000000E-002     4.8233744109893451E-008
  -2.1499999999999998E-002     4.9554703451804016E-008
  -2.1450000000000000E-002     5.0909282123257071E-008
  -2.1399999999999999E-002     5.2295654029421712E-008
  -2.1350000000000001E-002     5.3712330583266521E-008
  -2.1299999999999999E-002     5.5158643874619884E-008
  -2.1250000000000002E-002     5.6634931411281286E-008
  -2.1200000000000000E-002     5.8142383352333127E-008
  -2.1149999999999999E-002     5.9682591313503508E-008
  -2.1100000000000001E-002     6.1257011907400738E-008
  -2.1049999999999999E-002     6.2866426731034153E-008
  -2.1000000000000001E-002     6.4510658148719813E-008
  -2.0950000000000000E-002     6.6188611924644647E-008
  -2.0899999999999998E-002     6.7898582756242831E-008
  -2.0850000000000000E-002     6.9638808497529681E-008
  -2.0799999999999999E-002     7.1408052804144972E-008
  -2.0750000000000001E-002     7.3206159356686840E-008
  -2.0700000000000000E-002     7.5034357394088147E-008
  -2.0649999999999998E-002     7.6895361189599498E-008
  -2.0600000000000000E-002     7.8793199520532653E-008
  -2.0549999999999999E-002     8.0732831975183217E-008
  -2.0500000000000001E-002     8.2719644467488251E-008
  -2.0449999999999999E-002     8.4758937646256527E-008
  -2.0400000000000001E-002     8.6855472147817636E-008
  -2.0350000000000000E-002     8.9013198589782405E-008
  -2.0299999999999999E-002     9.1235186516769318E-008
  -2.0250000000000001E-002     9.3523773614379024E-008
  -2.0199999999999999E-002     9.5880942296844296E-008
  -2.0150000000000001E-002     9.8308738927244121E-008
  -2.0100000000000000E-002     1.0080960066716216E-007
  -2.0049999999999998E-002     1.0338656153408010E-007
  -2.0000000000000000E-002     1.0604307476569375E-007
  -1.9949999999999999E-002     1.0878262202140832E-007
  -1.9900000000000001E-002     1.1160808810473100E-007
  -1.9850000000000000E-002     1.1452109305309932E-007
  -1.9799999999999998E-002     1.1752153028510293E-007
  -1.9750000000000000E-002     1.2060738185937225E-007
  -1.9699999999999999E-002     1.2377498137539078E-007
  -1.9650000000000001E-002     1.2701966056738456E-007
  -1.9599999999999999E-002     1.3033665879902401E-007
  -1.9550000000000001E-002     1.3372201124184357E-007
  -1.9500000000000000E-002     1.3717337310481525E-007
  -1.9449999999999999E-002     1.4069019016460516E-007
  -1.9400000000000001E-002     1.4427359928959049E-007
  -1.9349999999999999E-002     1.4792561842114083E-007
  -1.9300000000000001E-002     1.5164806654865970E-007
  -1.9250000000000000E-002     1.5544136999778857E-007
  -1.9199999999999998E-002     1.5930365293570503E-007
  -1.9150000000000000E-002     1.6323043894317379E-007
  -1.9099999999999999E-002     1.6721500628591457E-007
  -1.9050000000000001E-002     1.7124948215041513E-007
  -1.9000000000000000E-002     1.7532647689222358E-007
  -1.8949999999999998E-002     1.7944068986253114E-007
  -1.8900000000000000E-002     1.8359011733082298E-007
  -1.8849999999999999E-002     1.8777646459966491E-007
  -1.8800000000000001E-002     1.9200456335966010E-007
  -1.8749999999999999E-002     1.9628106429081527E-007
  -1.8700000000000001E-002     2.0061274597082956E-007
  -1.8650000000000000E-002     2.0500507957876835E-007
  -1.8599999999999998E-002     2.0946147571976326E-007
  -1.8550000000000001E-002     2.1398355443125183E-007
  -1.8499999999999999E-002     2.1857218257537170E-007
  -1.8450000000000001E-002     2.2322909387639811E-007
  -1.8400000000000000E-002     2.2795852316903620E-007
  -1.8349999999999998E-002     2.3276807326055859E-007
  -1.8300000000000000E-002     2.3766880019593373E-007
  -1.8249999999999999E-002     2.4267424691970518E-007
  -1.8200000000000001E-002     2.4779873797342589E-007
  -1.8149999999999999E-002     2.5305527628916025E-007
  -1.8100000000000002E-002     2.5845375262179004E-007
  -1.8050000000000000E-002     2.6399996500003908E-007
  -1.7999999999999999E-002     2.6969539135279774E-007
  -1.7950000000000001E-002     2.7553809900382475E-007
  -1.7899999999999999E-002     2.8152444997431303E-007
  -1.7850000000000001E-002     2.8765117576767807E-007
  -1.7800000000000000E-002     2.9391702582870494E-007
  -1.7749999999999998E-002     3.0032396125534433E-007
  -1.7700000000000000E-002     3.0687712637700315E-007
  -1.7649999999999999E-002     3.1358393925984274E-007
  -1.7600000000000001E-002     3.2045230113908474E-007
  -1.7550000000000000E-002     3.2748857847764157E-007
  -1.7499999999999998E-002     3.3469584082013171E-007
  -1.7450000000000000E-002     3.4207323551527224E-007
  -1.7399999999999999E-002     3.4961632877639204E-007
  -1.7350000000000001E-002     3.5731875414057868E-007
  -1.7299999999999999E-002     3.6517425883175747E-007
  -1.7250000000000001E-002     3.7317866485864215E-007
  -1.7200000000000000E-002     3.8133143220875354E-007
  -1.7149999999999999E-002     3.8963557358329126E-007
  -1.7100000000000001E-002     3.9809691543268855E-007
  -1.7049999999999999E-002     4.0672227896720869E-007
  -1.7000000000000001E-002     4.1551760432412266E-007
  -1.6950000000000000E-002     4.2448650106052810E-007
  -1.6899999999999998E-002     4.3362956603232305E-007
  -1.6850000000000000E-002     4.4294461076788139E-007
  -1.6799999999999999E-002     4.5242779833642999E-007
  -1.6750000000000001E-002     4.6207506443352031E-007
  -1.6700000000000000E-002     4.7188390794872248E-007
  -1.6649999999999998E-002     4.8185438572545536E-007
  -1.6600000000000000E-002     4.9199019258594490E-007
  -1.6549999999999999E-002     5.0229834869242040E-007
  -1.6500000000000001E-002     5.1278863111292594E-007
  -1.6449999999999999E-002     5.2347235168781481E-007
  -1.6400000000000001E-002     5.3436048119692714E-007
  -1.6350000000000000E-002     5.4546211458728067E-007
  -1.6299999999999999E-002     5.5678327726127463E-007
  -1.6250000000000001E-002     5.6832658401617664E-007
  -1.6199999999999999E-002     5.8009169379147352E-007
  -1.6150000000000001E-002     5.9207684444118058E-007
  -1.6100000000000000E-002     6.0428016013247543E-007
  -1.6049999999999998E-002     6.1670118611800717E-007
  -1.6000000000000000E-002     6.2934151401350391E-007
  -1.5949999999999999E-002     6.4220438389384071E-007
  -1.5900000000000001E-002     6.5529371795491898E-007
  -1.5850000000000000E-002     6.6861298364528921E-007
  -1.5799999999999998E-002     6.8216394311093609E-007
  -1.5750000000000000E-002     6.9594619844792760E-007
  -1.5699999999999999E-002     7.0995764644976589E-007
  -1.5650000000000001E-002     7.2419555863234564E-007
  -1.5599999999999999E-002     7.3865743388523697E-007
  -1.5550000000000001E-002     7.5334213534006267E-007
  -1.5500000000000000E-002     7.6825034511784906E-007
  -1.5449999999999998E-002     7.8338445064218831E-007
  -1.5400000000000000E-002     7.9874820357872522E-007
  -1.5349999999999999E-002     8.1434632193122525E-007
  -1.5300000000000001E-002     8.3018375107712927E-007
  -1.5250000000000000E-002     8.4626526586362161E-007
  -1.5199999999999998E-002     8.6259507270369795E-007
  -1.5150000000000000E-002     8.7917658220248995E-007
  -1.5099999999999999E-002     8.9601252284410293E-007
  -1.5050000000000001E-002     9.1310545258238562E-007
  -1.4999999999999999E-002     9.3045804305802449E-007
  -1.4949999999999998E-002     9.4807370487615117E-007
  -1.4900000000000000E-002     9.6595726972736884E-007
  -1.4849999999999999E-002     9.8411453564040130E-007
  -1.4800000000000001E-002     1.0025521532952553E-006
  -1.4749999999999999E-002     1.0212766028416809E-006
  -1.4700000000000001E-002     1.0402931138742133E-006
  -1.4650000000000000E-002     1.0596052106848219E-006
  -1.4599999999999998E-002     1.0792149396365858E-006
  -1.4550000000000000E-002     1.0991240060320706E-006
  -1.4499999999999999E-002     1.1193346836080309E-006
  -1.4450000000000001E-002     1.1398516335248132E-006
  -1.4400000000000000E-002     1.1606816769926809E-006
  -1.4349999999999998E-002     1.1818332268376253E-006
  -1.4300000000000000E-002     1.2033141274514492E-006
  -1.4249999999999999E-002     1.2251304042365518E-006
  -1.4200000000000001E-002     1.2472841035560123E-006
  -1.4149999999999999E-002     1.2697729516730760E-006
  -1.4099999999999998E-002     1.2925908094985061E-006
  -1.4050000000000000E-002     1.3157297189536621E-006
  -1.3999999999999999E-002     1.3391818356467411E-006
  -1.3950000000000001E-002     1.3629415889226948E-006
  -1.3899999999999999E-002     1.3870063639842556E-006
  -1.3850000000000001E-002     1.4113772976998007E-006
  -1.3800000000000000E-002     1.4360581417349749E-006
  -1.3749999999999998E-002     1.4610537846238003E-006
  -1.3700000000000000E-002     1.4863694559608120E-006
  -1.3649999999999999E-002     1.5120086800379795E-006
  -1.3600000000000001E-002     1.5379723663500044E-006
  -1.3550000000000000E-002     1.5642586959074833E-006
  -1.3499999999999998E-002     1.5908638033579336E-006
  -1.3450000000000000E-002     1.6177825727936579E-006
  -1.3399999999999999E-002     1.6450107978016604E-006
  -1.3350000000000001E-002     1.6725476825740770E-006
  -1.3299999999999999E-002     1.7003966377160395E-006
  -1.3249999999999998E-002     1.7285657349930261E-006
  -1.3200000000000000E-002     1.7570669115229975E-006
  -1.3149999999999998E-002     1.7859130139186163E-006
  -1.3100000000000001E-002     1.8151148424294661E-006
  -1.3049999999999999E-002     1.8446788772052969E-006
  -1.3000000000000001E-002     1.8746054593066219E-006
  -1.2950000000000000E-002     1.9048894728257437E-006
  -1.2899999999999998E-002     1.9355222775629954E-006
  -1.2850000000000000E-002     1.9664958017528988E-006
  -1.2799999999999999E-002     1.9978040199930547E-006