  -4.0000000000000001E-002     0.0000000000000000     
  -3.9949999999999999E-002     0.0000000000000000     
  -3.9899999999999998E-002     0.0000000000000000     
  -3.9850000000000003E-002     0.0000000000000000     
  -3.9800000000000002E-002     0.0000000000000000     
  -3.9750000000000001E-002     0.0000000000000000     
  -3.9699999999999999E-002     0.0000000000000000     
  -3.9649999999999998E-002     0.0000000000000000     
  -3.9600000000000003E-002     0.0000000000000000     
  -3.9550000000000002E-002     0.0000000000000000     
  -3.9500000000000000E-002     0.0000000000000000     
  -3.9449999999999999E-002     0.0000000000000000     
  -3.9399999999999998E-002     0.0000000000000000     
  -3.9350000000000003E-002     0.0000000000000000     
  -3.9300000000000002E-002     0.0000000000000000     
  -3.9250000000000000E-002     0.0000000000000000     
  -3.9199999999999999E-002     0.0000000000000000     
  -3.9150000000000004E-002     0.0000000000000000     
  -3.9100000000000003E-002     0.0000000000000000     
  -3.9050000000000001E-002     0.0000000000000000     
  -3.9000000000000000E-002     0.0000000000000000     
  -3.8949999999999999E-002     0.0000000000000000     
  -3.8900000000000004E-002     0.0000000000000000     
  -3.8850000000000003E-002     0.0000000000000000     
  -3.8800000000000001E-002     0.0000000000000000     
  -3.8750000000000000E-002     0.0000000000000000     
  -3.8699999999999998E-002     0.0000000000000000     
  -3.8650000000000004E-002     0.0000000000000000     
  -3.8600000000000002E-002     0.0000000000000000     
  -3.8550000000000001E-002     0.0000000000000000     
  -3.8500000000000000E-002     0.0000000000000000     
  -3.8449999999999998E-002     0.0000000000000000     
  -3.8400000000000004E-002     0.0000000000000000     
  -3.8350000000000002E-002     0.0000000000000000     
  -3.8300000000000001E-002     0.0000000000000000     
  -3.8249999999999999E-002     0.0000000000000000     
  -3.8199999999999998E-002     0.0000000000000000     
  -3.8150000000000003E-002     0.0000000000000000     
  -3.8100000000000002E-002     0.0000000000000000     
  -3.8050000000000000E-002     0.0000000000000000     
  -3.7999999999999999E-002     0.0000000000000000     
  -3.7949999999999998E-002     0.0000000000000000     
  -3.7900000000000003E-002     0.0000000000000000     
  -3.7850000000000002E-002     0.0000000000000000     
  -3.7800000000000000E-002     0.0000000000000000     
  -3.7749999999999999E-002     0.0000000000000000     
  -3.7699999999999997E-002     0.0000000000000000     
  -3.7650000000000003E-002     0.0000000000000000     
  -3.7600000000000001E-002     0.0000000000000000     
  -3.7550000000000000E-002     0.0000000000000000     
  -3.7499999999999999E-002     0.0000000000000000     
  -3.7449999999999997E-002     0.0000000000000000     
  -3.7400000000000003E-002     0.0000000000000000     
  -3.7350000000000001E-002     0.0000000000000000     
  -3.7300000000000000E-002     0.0000000000000000     
  -3.7249999999999998E-002     0.0000000000000000     
  -3.7200000000000004E-002     0.0000000000000000     
  -3.7150000000000002E-002     0.0000000000000000     
  -3.7100000000000001E-002     0.0000000000000000     
  -3.7050000000000000E-002     0.0000000000000000     
  -3.6999999999999998E-002     0.0000000000000000     
  -3.6950000000000004E-002     0.0000000000000000     
  -3.6900000000000002E-002     0.0000000000000000     
  -3.6850000000000001E-002     0.0000000000000000     
  -3.6799999999999999E-002     0.0000000000000000     
  -3.6749999999999998E-002     0.0000000000000000     
  -3.6700000000000003E-002     0.0000000000000000     
  -3.6650000000000002E-002     0.0000000000000000     
  -3.6600000000000001E-002     0.0000000000000000     
  -3.6549999999999999E-002     0.0000000000000000     
  -3.6499999999999998E-002     0.0000000000000000     
  -3.6450000000000003E-002     0.0000000000000000     
  -3.6400000000000002E-002     0.0000000000000000     
  -3.6350000000000000E-002     0.0000000000000000     
  -3.6299999999999999E-002     0.0000000000000000     
  -3.6249999999999998E-002     0.0000000000000000     
  -3.6200000000000003E-002     0.0000000000000000     
  -3.6150000000000002E-002     0.0000000000000000     
  -3.6100000000000000E-002     0.0000000000000000     
  -3.6049999999999999E-002     0.0000000000000000     
  -3.6000000000000004E-002     0.0000000000000000     
  -3.5950000000000003E-002     0.0000000000000000     
  -3.5900000000000001E-002     0.0000000000000000     
  -3.5850000000000000E-002     0.0000000000000000     
  -3.5799999999999998E-002     0.0000000000000000     
  -3.5750000000000004E-002     0.0000000000000000     
  -3.5700000000000003E-002     0.0000000000000000     
  -3.5650000000000001E-002     0.0000000000000000     
  -3.5600000000000000E-002     0.0000000000000000     
  -3.5549999999999998E-002     0.0000000000000000     
  -3.5500000000000004E-002     0.0000000000000000     
  -3.5450000000000002E-002     0.0000000000000000     
  -3.5400000000000001E-002     0.0000000000000000     
  -3.5349999999999999E-002     0.0000000000000000     
  -3.5299999999999998E-002     0.0000000000000000     
  -3.5250000000000004E-002     0.0000000000000000     
  -3.5200000000000002E-002     0.0000000000000000     
  -3.5150000000000001E-002     0.0000000000000000     
  -3.5099999999999999E-002     0.0000000000000000     
  -3.5049999999999998E-002     1.0679734230709041E-039
  -3.5000000000000003E-002     2.2064800803703438E-039
  -3.4950000000000002E-002     2.2064800803703438E-039
  -3.4900000000000000E-002     0.0000000000000000     
  -3.4849999999999999E-002    -2.4996881192298595E-039
  -3.4799999999999998E-002    -9.1979501885477575E-039
  -3.4750000000000003E-002    -1.8814254057741027E-038
  -3.4700000000000002E-002    -2.8001287266171305E-038
  -3.4650000000000000E-002    -2.2418270011926016E-038
  -3.4599999999999999E-002     1.1791176036254409E-038
  -3.4549999999999997E-002     6.6796700927631683E-038
  -3.4500000000000003E-002     1.4153026879328221E-037
  -3.4450000000000001E-002     1.9934247546787566E-037
  -3.4400000000000000E-002     2.1152489315670109E-037
  -3.4349999999999999E-002     1.2344196439646620E-037
  -3.4299999999999997E-002    -1.0281163108764908E-037
  -3.4250000000000003E-002    -4.5119707289983260E-037
  -3.4200000000000001E-002    -8.1507737011004276E-037
  -3.4150000000000000E-002    -1.0187784867153489E-036
  -3.4099999999999998E-002    -8.6886292775988827E-037
  -3.4049999999999997E-002    -2.3983564813896457E-037
  -3.4000000000000002E-002     8.1610899446881733E-037
  -3.3950000000000001E-002     1.9804888725712258E-036
  -3.3900000000000000E-002     2.7120964599001769E-036
  -3.3849999999999998E-002     2.4412588309260418E-036
  -3.3799999999999997E-002     9.0772689417552177E-037
  -3.3750000000000002E-002    -1.4821475297158808E-036
  -3.3700000000000001E-002    -3.5167418706933574E-036
  -3.3649999999999999E-002    -3.5098495862927210E-036
  -3.3599999999999998E-002    -2.0685829771776811E-037
  -3.3550000000000003E-002     5.9728797553477770E-036
  -3.3500000000000002E-002     1.1959561001827125E-035
  -3.3450000000000001E-002     1.2310834939121511E-035
  -3.3399999999999999E-002     1.2930560079360096E-036
  -3.3349999999999998E-002    -2.3291007567855517E-035
  -3.3300000000000003E-002    -5.5987249755205179E-035
  -3.3250000000000002E-002    -8.1854605933938549E-035
  -3.3200000000000000E-002    -7.9626079285514008E-035
  -3.3149999999999999E-002    -3.0959875240279584E-035
  -3.3099999999999997E-002     6.6540651363888708E-035
  -3.3050000000000003E-002     1.8883154014312500E-034
  -3.3000000000000002E-002     2.8589002827266079E-034
  -3.2950000000000000E-002     2.9920073800105837E-034
  -3.2899999999999999E-002     1.9423608967642258E-034
  -3.2850000000000004E-002    -5.9021369746837927E-036
  -3.2800000000000003E-002    -2.0909908167407924E-034
  -3.2750000000000001E-002    -2.8763966390514857E-034
  -3.2700000000000000E-002    -1.6132504062797285E-034
  -3.2649999999999998E-002     9.7924996878306153E-035
  -3.2600000000000004E-002     2.0399831719403412E-034
  -3.2550000000000003E-002    -2.8347913480416105E-034
  -3.2500000000000001E-002    -1.7268045131163725E-033
  -3.2450000000000000E-002    -4.0387207290831413E-033
  -3.2399999999999998E-002    -6.3239365725267203E-033
  -3.2350000000000004E-002    -6.7856212532875912E-033
  -3.2300000000000002E-002    -3.1542451186014478E-033
  -3.2250000000000001E-002     6.2546870512695688E-033
  -3.2199999999999999E-002     2.1057168679829939E-032
  -3.2149999999999998E-002     3.7472432829355961E-032
  -3.2100000000000004E-002     4.7996425973348097E-032
  -3.2050000000000002E-002     4.2866063154912491E-032
  -3.2000000000000001E-002     1.3586503414110096E-032
  -3.1949999999999999E-002    -4.2131203614434579E-032
  -3.1899999999999998E-002    -1.1571292958016441E-031
  -3.1850000000000003E-002    -1.8570220217432786E-031
  -3.1800000000000002E-002    -2.2054071097012438E-031
  -3.1750000000000000E-002    -1.8701027887616344E-031
  -3.1699999999999999E-002    -6.3020203844783667E-032
  -3.1649999999999998E-002     1.4890074178578461E-031
  -3.1600000000000003E-002     4.1249911474973990E-031
  -3.1550000000000002E-002     6.5787632971720858E-031
  -3.1500000000000000E-002     7.9327343523465532E-031
  -3.1449999999999999E-002     7.2746367783356719E-031
  -3.1399999999999997E-002     3.9804194802595964E-031
  -3.1350000000000003E-002    -2.0125732953297773E-031
  -3.1300000000000001E-002    -1.0010583745489693E-030
  -3.1250000000000000E-002    -1.8497559054752008E-030
  -3.1199999999999999E-002    -2.5229465393554828E-030
  -3.1150000000000001E-002    -2.7511876635344248E-030
  -3.1100000000000003E-002    -2.2688689271987280E-030
  -3.1050000000000001E-002    -8.8658020129871749E-031
  -3.1000000000000000E-002     1.4156034941644430E-030
  -3.0949999999999998E-002     4.3888869371461460E-030
  -3.0900000000000000E-002     7.4440073446892787E-030
  -3.0850000000000002E-002     9.6572439580925111E-030
  -3.0800000000000001E-002     9.9064474410741016E-030
  -3.0750000000000000E-002     7.1634971688336620E-030
  -3.0699999999999998E-002     9.1169642636976771E-031
  -3.0650000000000000E-002    -8.4204461748878602E-030
  -3.0600000000000002E-002    -1.9182474637838550E-029
  -3.0550000000000001E-002    -2.8567288113877899E-029
  -3.0499999999999999E-002    -3.3130643433745710E-029
  -3.0449999999999998E-002    -2.9720820534017977E-029
  -3.0400000000000000E-002    -1.6582703197301900E-029
  -3.0350000000000002E-002     5.7403966396305136E-030
  -3.0300000000000001E-002     3.4082750678183678E-029
  -3.0249999999999999E-002     6.3098029246107829E-029
  -3.0200000000000001E-002     8.6328927078434613E-029
  -3.0150000000000000E-002     9.7451210700773244E-029
  -3.0100000000000002E-002     9.1135297804879188E-029
  -3.0050000000000000E-002     6.3224944502846446E-029
  -2.9999999999999999E-002     1.0525084060392624E-029
  -2.9950000000000001E-002    -6.8846876838400091E-029
  -2.9899999999999999E-002    -1.7331904077392907E-028
  -2.9850000000000002E-002    -2.9327978969315638E-028
  -2.9800000000000000E-002    -4.0498333679526347E-028
  -2.9749999999999999E-002    -4.6607983751243680E-028
  -2.9700000000000001E-002    -4.1768626033414724E-028
  -2.9650000000000003E-002    -1.9787596732554993E-028
  -2.9600000000000001E-002     2.3154788688496379E-028
  -2.9550000000000000E-002     8.4925594109177899E-028
  -2.9499999999999998E-002     1.5415569181390527E-027
  -2.9450000000000000E-002     2.0906502299189020E-027
  -2.9400000000000003E-002     2.2026297383903385E-027
  -2.9350000000000001E-002     1.5856114521550523E-027
  -2.9300000000000000E-002     7.0806788773837112E-029
  -2.9249999999999998E-002    -2.2536481107685533E-027
  -2.9200000000000000E-002    -4.9466723802192259E-027
  -2.9150000000000002E-002    -7.2139867941195881E-027
  -2.9100000000000001E-002    -8.0472084140587043E-027
  -2.9049999999999999E-002    -6.5070879939996561E-027
  -2.8999999999999998E-002    -2.0994819619947137E-027
  -2.8950000000000000E-002     4.8639705941250601E-027
  -2.8900000000000002E-002     1.3062439539012524E-026
  -2.8850000000000001E-002     2.0251611425955054E-026
  -2.8799999999999999E-002     2.3705926997985745E-026
  -2.8749999999999998E-002     2.0974744381145851E-026
  -2.8700000000000000E-002     1.0783409959208822E-026
  -2.8650000000000002E-002    -6.1889106384545084E-027
  -2.8600000000000000E-002    -2.6950483475397562E-026
  -2.8549999999999999E-002    -4.6482232945958049E-026
  -2.8500000000000001E-002    -5.8726484801926480E-026
  -2.8450000000000000E-002    -5.8119915178323189E-026
  -2.8400000000000002E-002    -4.1306959498716412E-026
  -2.8350000000000000E-002    -8.5547316846454102E-027
  -2.8299999999999999E-002     3.5583604881659063E-026
  -2.8250000000000001E-002     8.2636928773852538E-026
  -2.8200000000000003E-002     1.2162268011461063E-025
  -2.8150000000000001E-002     1.4121489197469454E-025
  -2.8100000000000000E-002     1.3220105066468658E-025
  -2.8049999999999999E-002     8.9712342091514716E-026
  -2.8000000000000001E-002     1.4825869200685948E-026
  -2.7950000000000003E-002    -8.4659068381126331E-026
  -2.7900000000000001E-002    -1.9428783413382771E-025
  -2.7850000000000000E-002    -2.9382260425823735E-025
  -2.7799999999999998E-002    -3.5898599889919619E-025
  -2.7750000000000000E-002    -3.6433503697815131E-025
  -2.7700000000000002E-002    -2.8763187437364167E-025
  -2.7650000000000001E-002    -1.1589686890857831E-025
  -2.7600000000000000E-002     1.4727956240801782E-025
  -2.7549999999999998E-002     4.7458250749331061E-025
  -2.7500000000000000E-002     8.1048829203209110E-025
  -2.7450000000000002E-002     1.0726755523832651E-024
  -2.7400000000000001E-002     1.1623231637010145E-024
  -2.7349999999999999E-002     9.8469836134296562E-025
  -2.7299999999999998E-002     4.7846832552257017E-025
  -2.7250000000000000E-002    -3.5166516304621858E-025
  -2.7200000000000002E-002    -1.4080373185272500E-024
  -2.7150000000000001E-002    -2.4898664282013948E-024
  -2.7099999999999999E-002    -3.3100396818929787E-024
  -2.7049999999999998E-002    -3.5443979489218642E-024
  -2.7000000000000000E-002    -2.9109525193328483E-024
  -2.6950000000000002E-002    -1.2662761008342514E-024
  -2.6900000000000000E-002     1.3034430688400766E-024
  -2.6849999999999999E-002     4.4253173027911181E-024
  -2.6800000000000001E-002     7.4448184439342600E-024
  -2.6749999999999999E-002     9.5122253810675743E-024
  -2.6700000000000002E-002     9.7524213837425858E-024
  -2.6650000000000000E-002     7.4968665802127319E-024
  -2.6599999999999999E-002     2.5325159559970223E-024
  -2.6550000000000001E-002    -4.6960005300848428E-024
  -2.6500000000000003E-002    -1.3000789304140412E-023
  -2.6450000000000001E-002    -2.0540119924675655E-023
  -2.6400000000000000E-002    -2.5110538124503782E-023
  -2.6349999999999998E-002    -2.4622215319019802E-023
  -2.6300000000000000E-002    -1.7682913976442859E-023
  -2.6250000000000002E-002    -4.1655976182731400E-024
  -2.6200000000000001E-002     1.4395762826334258E-023
  -2.6150000000000000E-002     3.4734489418259354E-023
  -2.6099999999999998E-002     5.2210861750912997E-023
  -2.6050000000000000E-002     6.1624640343235072E-023
  -2.6000000000000002E-002     5.8388135600061392E-023
  -2.5950000000000001E-002     3.9849266795691756E-023
  -2.5899999999999999E-002     6.4624017471085694E-024
  -2.5849999999999998E-002    -3.7529330156052495E-023
  -2.5800000000000000E-002    -8.4190654359879807E-023
  -2.5750000000000002E-002    -1.2292845165839590E-022
  -2.5700000000000001E-002    -1.4242177764635649E-022
  -2.5649999999999999E-002    -1.3317306170379167E-022
  -2.5599999999999998E-002    -9.0197027703668076E-023
  -2.5550000000000000E-002    -1.5233987808931606E-023
  -2.5500000000000002E-002     8.2130412234170772E-023
  -2.5450000000000000E-002     1.8491520983831643E-022
  -2.5399999999999999E-002     2.7096615448219879E-022
  -2.5349999999999998E-002     3.1679085124735182E-022
  -2.5300000000000000E-002     3.0247106909156988E-022
  -2.5250000000000002E-002     2.1680201932706108E-022
  -2.5200000000000000E-002     6.1625935992417031E-023
  -2.5149999999999999E-002    -1.4567820123104417E-022
  -2.5100000000000001E-002    -3.7240096067195799E-022
  -2.5049999999999999E-002    -5.7389667122444889E-022
  -2.5000000000000001E-002    -7.0016182631984223E-022
  -2.4950000000000000E-002    -7.0501567345345052E-022
  -2.4899999999999999E-002    -5.5670458758373332E-022
  -2.4850000000000001E-002    -2.4820432082224953E-022
  -2.4800000000000003E-002     1.9489987060156072E-022
  -2.4750000000000001E-002     7.1121477648758762E-022
  -2.4700000000000000E-002     1.2070321758859444E-021
  -2.4649999999999998E-002     1.5677672825456633E-021
  -2.4600000000000000E-002     1.6772859467616683E-021
  -2.4550000000000002E-002     1.4432726210630385E-021
  -2.4500000000000001E-002     8.2476216506395134E-022
  -2.4450000000000000E-002    -1.4387157472953834E-022
  -2.4399999999999998E-002    -1.3392407020820433E-021
  -2.4350000000000000E-002    -2.5520533188707727E-021
  -2.4299999999999999E-002    -3.5114127411175488E-021
  -2.4250000000000001E-002    -3.9307859404106537E-021
  -2.4199999999999999E-002    -3.5708254324174917E-021
  -2.4150000000000001E-002    -2.3085161589691714E-021
  -2.4100000000000000E-002    -1.9745987679992145E-022
  -2.4049999999999998E-002     2.4979514207203816E-021
  -2.4000000000000000E-002     5.3098728569028284E-021
  -2.3949999999999999E-002     7.6249383983487504E-021
  -2.3900000000000001E-002     8.7915920994920874E-021
  -2.3850000000000000E-002     8.2630589892772864E-021
  -2.3800000000000002E-002     5.7500714292992826E-021
  -2.3750000000000000E-002     1.3490228043515218E-021
  -2.3699999999999999E-002    -4.3906229162029486E-021
  -2.3650000000000001E-002    -1.0489229675276219E-020
  -2.3599999999999999E-002    -1.5664489179588907E-020
  -2.3550000000000001E-002    -1.8556101206701754E-020
  -2.3500000000000000E-002    -1.8015940698133745E-020
  -2.3449999999999999E-002    -1.3410553741865603E-020
  -2.3400000000000001E-002    -4.8697951581429012E-021
  -2.3349999999999999E-002     6.5848043135286709E-021
  -2.3300000000000001E-002     1.9083502024386563E-020
  -2.3250000000000000E-002     3.0146293446118748E-020
  -2.3199999999999998E-002     3.7099227578491874E-020
  -2.3150000000000000E-002     3.7611443281282674E-020
  -2.3099999999999999E-002     3.0259358000896144E-020
  -2.3050000000000001E-002     1.5002948090996507E-020
  -2.3000000000000000E-002    -6.5417607657164188E-021
  -2.2950000000000002E-002    -3.1126589484642317E-020
  -2.2900000000000000E-002    -5.4238310490127769E-020
  -2.2849999999999999E-002    -7.0793285580184401E-020
  -2.2800000000000001E-002    -7.6075191337545056E-020
  -2.2749999999999999E-002    -6.6768422929017342E-020
  -2.2700000000000001E-002    -4.1896219803789239E-020
  -2.2650000000000000E-002    -3.4593697351006377E-021
  -2.2599999999999999E-002     4.3404626523621043E-020
  -2.2550000000000001E-002     9.0859098081264895E-020
  -2.2499999999999999E-002     1.2942406404191729E-019
  -2.2450000000000001E-002     1.4955615210944072E-019
  -2.2400000000000000E-002     1.4353989478426922E-019
  -2.2349999999999998E-002     1.0737911099461336E-019
  -2.2300000000000000E-002     4.2318525769695482E-020
  -2.2249999999999999E-002    -4.4372842694350273E-020
  -2.2200000000000001E-002    -1.3965408508078760E-019
  -2.2150000000000000E-002    -2.2615647478286271E-019
  -2.2100000000000002E-002    -2.8477412820351424E-019
  -2.2050000000000000E-002    -2.9812383433640017E-019
  -2.1999999999999999E-002    -2.5436769189600930E-019
  -2.1950000000000001E-002    -1.5071395645654165E-019
  -2.1899999999999999E-002     4.1706836121782857E-021
  -2.1850000000000001E-002     1.8955148520265280E-019
  -2.1800000000000000E-002     3.7432386203276000E-019
  -2.1749999999999999E-002     5.2116685668949315E-019
  -2.1700000000000001E-002     5.9282771296042360E-019
  -2.1649999999999999E-002     5.5970445896464354E-019
  -2.1600000000000001E-002     4.0744054597386495E-019
  -2.1550000000000000E-002     1.4296332358129036E-019
  -2.1499999999999998E-002    -2.0261541093946283E-019
  -2.1450000000000000E-002    -5.7549422380086454E-019
  -2.1399999999999999E-002    -9.0567198792479858E-019
  -2.1350000000000001E-002    -1.1180935449762394E-018
  -2.1299999999999999E-002    -1.1470566284542906E-018
  -2.1250000000000002E-002    -9.5150578049398970E-019
  -2.1200000000000000E-002    -5.2817938566710106E-019
  -2.1149999999999999E-002     8.0560811548791815E-020
  -2.1100000000000001E-002     7.8686344009679496E-019
  -2.1049999999999999E-002     1.4669370148679618E-018
  -2.1000000000000001E-002     1.9797353769075325E-018
  -2.0950000000000000E-002     2.1925262058795769E-018
  -2.0899999999999998E-002     2.0092501676516750E-018
  -2.0850000000000000E-002     1.3962969676631516E-018
  -2.0799999999999999E-002     3.9997400342149753E-019
  -2.0750000000000001E-002    -8.4926237096462697E-019
  -2.0700000000000000E-002    -2.1487990030595117E-018
  -2.0649999999999998E-002    -3.2522236443692251E-018
  -2.0600000000000000E-002    -3.9108863166223047E-018
  -2.0549999999999999E-002    -3.9224043873214088E-018
  -2.0500000000000001E-002    -3.1775610707067736E-018
  -2.0449999999999999E-002    -1.6961640849241684E-018
  -2.0400000000000001E-002     3.5671243488101896E-019
  -2.0350000000000000E-002     2.6800552181264811E-018
  -2.0299999999999999E-002     4.8736533941121861E-018
  -2.0250000000000001E-002     6.4991494145041626E-018
  -2.0199999999999999E-002     7.1572984184753727E-018
  -2.0150000000000001E-002     6.5692307229728123E-018
  -2.0100000000000000E-002     4.6471505543672009E-018
  -2.0049999999999998E-002     1.5398780536328200E-018
  -2.0000000000000000E-002    -2.3587600055119603E-018
  -1.9949999999999999E-002    -6.4455921801954412E-018
  -1.9900000000000001E-002    -9.9877357436862010E-018
  -1.9850000000000000E-002    -1.2238187069055952E-017
  -1.9799999999999998E-002    -1.2571727471496542E-017
  -1.9750000000000000E-002    -1.0619488560504289E-017
  -1.9699999999999999E-002    -6.3774677310407112E-018
  -1.9650000000000001E-002    -2.6514868798418135E-019
  -1.9599999999999999E-002     6.8844129269657952E-018
  -1.9550000000000001E-002     1.3912222915543126E-017
  -1.9500000000000000E-002     1.9495254081688728E-017
  -1.9449999999999999E-002     2.2364959488694370E-017
  -1.9400000000000001E-002     2.1551351606559327E-017
  -1.9349999999999999E-002     1.6611653240436837E-017
  -1.9300000000000001E-002     7.7983513741072950E-018
  -1.9250000000000000E-002    -3.8748100573746657E-018
  -1.9199999999999998E-002    -1.6698328674442623E-017
  -1.9150000000000000E-002    -2.8473545768444988E-017
  -1.9099999999999999E-002    -3.6844844507428867E-017
  -1.9050000000000001E-002    -3.9715513769132689E-017
  -1.9000000000000000E-002    -3.5682193698804006E-017
  -1.8949999999999998E-002    -2.4408597916546358E-017
  -1.8900000000000000E-002    -6.8575115952098526E-018
  -1.8849999999999999E-002     1.4685742327971846E-017
  -1.8800000000000001E-002     3.6836257101682392E-017
  -1.8749999999999999E-002     5.5575017233218858E-017
  -1.8700000000000001E-002     6.6906114812589029E-017
  -1.8650000000000000E-002     6.7609909470189227E-017
  -1.8599999999999998E-002     5.5963129548720981E-017
  -1.8550000000000001E-002     3.2284071916718574E-017
  -1.8499999999999999E-002    -8.2664953246942357E-019
  -1.8450000000000001E-002    -3.8639890066477794E-017
  -1.8400000000000000E-002    -7.4873452346015674E-017
  -1.8349999999999998E-002    -1.0264027090241275E-016
  -1.8300000000000000E-002    -1.1564191530850584E-016
  -1.8249999999999999E-002    -1.0941679667195203E-016
  -1.8200000000000001E-002    -8.2416273060619628E-017
  -1.8149999999999999E-002    -3.6684822757741522E-017
  -1.8100000000000002E-002     2.2033653307259329E-017
  -1.8050000000000000E-002     8.4856971374204390E-017
  -1.7999999999999999E-002     1.4097353557106218E-016
  -1.7950000000000001E-002     1.7935773564323551E-016
  -1.7899999999999999E-002     1.9074046680197567E-016
  -1.7850000000000001E-002     1.6950694997124309E-016
  -1.7800000000000000E-002     1.1516973786075901E-016
  -1.7749999999999998E-002     3.3101132739517575E-017
  -1.7700000000000000E-002    -6.5693363500442545E-017
  -1.7649999999999999E-002    -1.6583259052937803E-016
  -1.7600000000000001E-002    -2.4974547286013787E-016
  -1.7550000000000000E-002    -3.0050724621851777E-016
  -1.7499999999999998E-002    -3.0490392623400729E-016
  -1.7450000000000000E-002    -2.5621501247190014E-016
  -1.7399999999999999E-002    -1.5619657412225328E-016
  -1.7350000000000001E-002    -1.5825701340696411E-017
  -1.7299999999999999E-002     1.4547011096662159E-016
  -1.7250000000000001E-002     3.0214802669066889E-016
  -1.7200000000000000E-002     4.2623465785099210E-016
  -1.7149999999999999E-002     4.9189200025197896E-016
  -1.7100000000000001E-002     4.8018427918939598E-016
  -1.7049999999999999E-002     3.8324903199014957E-016
  -1.7000000000000001E-002     2.0707486712820349E-016
  -1.6950000000000000E-002    -2.7772886763463379E-017
  -1.6899999999999998E-002    -2.8787018959799397E-016
  -1.6850000000000000E-002    -5.3111402059808725E-016
  -1.6799999999999999E-002    -7.1295891135506952E-016
  -1.6750000000000001E-002    -7.9388741035566271E-016
  -1.6700000000000000E-002    -7.4696919398744076E-016
  -1.6649999999999998E-002    -5.6419090771396712E-016
  -1.6600000000000000E-002    -2.6027885169484455E-016
  -1.6549999999999999E-002     1.2698935663328152E-016
  -1.6500000000000001E-002     5.4049874329627761E-016
  -1.6449999999999999E-002     9.1139772442405127E-016
  -1.6400000000000001E-002     1.1697378501891905E-015
  -1.6350000000000000E-002     1.2566442551214489E-015
  -1.6299999999999999E-002     1.1360415179223817E-015
  -1.6250000000000001E-002     8.0378995091476429E-016
  -1.6199999999999999E-002     2.9228341285727497E-016
  -1.6150000000000001E-002    -3.3086573308909467E-016
  -1.6100000000000000E-002    -9.7052973195474887E-016
  -1.6049999999999998E-002    -1.5175426565729122E-015
  -1.6000000000000000E-002    -1.8662213206863649E-015
  -1.5949999999999999E-002    -1.9332867409748618E-015
  -1.5900000000000001E-002    -1.6749822008628370E-015
  -1.5850000000000000E-002    -1.0991531968262650E-015
  -1.5799999999999998E-002    -2.6959937870466002E-016
  -1.5750000000000000E-002     6.9890373678738102E-016
  -1.5699999999999999E-002     1.6550296520350289E-015
  -1.5650000000000001E-002     2.4332314573277992E-015
  -1.5599999999999999E-002     2.8808832521554281E-015
  -1.5550000000000001E-002     2.8859815245507849E-015
  -1.5500000000000000E-002     2.4006471130501052E-015
  -1.5449999999999998E-002     1.4559296577581757E-015
  -1.5400000000000000E-002     1.6450836261364634E-016
  -1.5349999999999999E-002    -1.2903499827128707E-015
  -1.5300000000000001E-002    -2.6789919304572390E-015
  -1.5250000000000000E-002    -3.7598342697710562E-015
  -1.5199999999999998E-002    -4.3191688056825964E-015
  -1.5150000000000000E-002    -4.2100484213708534E-015
  -1.5099999999999999E-002    -3.3835823063302451E-015
  -1.5050000000000001E-002    -1.9066593089984167E-015
  -1.4999999999999999E-002     3.8122446688426083E-017
  -1.4949999999999998E-002     2.1719389401538055E-015
  -1.4900000000000000E-002     4.1571469156080649E-015
  -1.4849999999999999E-002     5.6480294533943404E-015
  -1.4800000000000001E-002     6.3476469620249210E-015
  -1.4749999999999999E-002     6.0619363606991137E-015
  -1.4700000000000001E-002     4.7418349563997760E-015
  -1.4650000000000000E-002     2.5053382158835630E-015
  -1.4599999999999998E-002    -3.6601587535727622E-016
  -1.4550000000000000E-002    -3.4580910226416285E-015
  -1.4499999999999999E-002    -6.2800040726897099E-015
  -1.4450000000000001E-002    -8.3380644982188030E-015
  -1.4400000000000000E-002    -9.2173223256612256E-015
  -1.4349999999999998E-002    -8.6579766627356995E-015
  -1.4300000000000000E-002    -6.6135042025564678E-015
  -1.4249999999999999E-002    -3.2790641306553376E-015
  -1.4200000000000001E-002     9.1744138558747095E-016
  -1.4149999999999999E-002     5.3639088982658457E-015
  -1.4099999999999998E-002     9.3479508920357761E-015
  -1.4050000000000000E-002     1.2165737719052475E-014
  -1.3999999999999999E-002     1.3239975233878679E-014
  -1.3950000000000001E-002     1.2228177037778910E-014
  -1.3899999999999999E-002     9.1020891538591057E-015
  -1.3850000000000001E-002     4.1821041114296580E-015
  -1.3800000000000000E-002    -1.8834614441977456E-015
  -1.3749999999999998E-002    -8.1960186657450086E-015
  -1.3700000000000000E-002    -1.3733574128023267E-014
  -1.3649999999999999E-002    -1.7509974795897883E-014
  -1.3600000000000001E-002    -1.8742618867288648E-014
  -1.3550000000000000E-002    -1.7001099420775745E-014
  -1.3499999999999998E-002    -1.2309941866752228E-014
  -1.3450000000000000E-002    -5.1840958335946300E-015
  -1.3399999999999999E-002     3.4146497514045751E-015
  -1.3350000000000001E-002     1.2199608625417971E-014
  -1.3299999999999999E-002     1.9745535950485694E-014
  -1.3249999999999998E-002     2.4713265006841407E-014
  -1.3200000000000000E-002     2.6077979730514132E-014
  -1.3149999999999998E-002     2.3323169262459122E-014
  -1.3100000000000001E-002     1.6565240184583100E-014
  -1.3049999999999999E-002     6.5828084063500097E-015
  -1.3000000000000001E-002    -5.2611740472085395E-015
  -1.2950000000000000E-002    -1.7199206475663293E-014
  -1.2899999999999998E-002    -2.7318299053046684E-014
  -1.2850000000000000E-002    -3.3860931322419225E-014
  -1.2799999999999999E-002    -3.5521137154976622E-014