  -4.0000000000000001E-002     0.0000000000000000     
  -3.9949999999999999E-002     0.0000000000000000     
  -3.9899999999999998E-002     0.0000000000000000     
  -3.9850000000000003E-002     0.0000000000000000     
  -3.9800000000000002E-002     0.0000000000000000     
  -3.9750000000000001E-002     0.0000000000000000     
  -3.9699999999999999E-002     0.0000000000000000     
  -3.9649999999999998E-002     0.0000000000000000     
  -3.9600000000000003E-002     0.0000000000000000     
  -3.9550000000000002E-002     0.0000000000000000     
  -3.9500000000000000E-002     0.0000000000000000     
  -3.9449999999999999E-002     0.0000000000000000     
  -3.9399999999999998E-002     0.0000000000000000     
  -3.9350000000000003E-002     0.0000000000000000     
  -3.9300000000000002E-002     0.0000000000000000     
  -3.9250000000000000E-002     0.0000000000000000     
  -3.9199999999999999E-002     0.0000000000000000     
  -3.9150000000000004E-002     0.0000000000000000     
  -3.9100000000000003E-002     0.0000000000000000     
  -3.9050000000000001E-002     0.0000000000000000     
  -3.9000000000000000E-002     0.0000000000000000     
  -3.8949999999999999E-002     2.0534861066630051E-038
  -3.8900000000000004E-002     1.2281179137747348E-037
  -3.8850000000000003E-002     5.2175613394305635E-037
  -3.8800000000000001E-002     1.7564682098110238E-036
  -3.8750000000000000E-002     4.8757279375496353E-036
  -3.8699999999999998E-002     1.0625952393341838E-035
  -3.8650000000000004E-002     1.5810403733485041E-035
  -3.8600000000000002E-002     3.3616030154827328E-036
  -3.8550000000000001E-002    -7.6471692622968794E-035
  -3.8500000000000000E-002    -3.2911133185247433E-034
  -3.8449999999999998E-002    -9.1943728632636045E-034
  -3.8400000000000004E-002    -2.0023761365959451E-033
  -3.8350000000000002E-002    -3.4918068308900306E-033
  -3.8300000000000001E-002    -4.5554359776827742E-033
  -3.8249999999999999E-002    -2.7218706624444520E-033
  -3.8199999999999998E-002     7.4709439992604065E-033
  -3.8150000000000003E-002     3.6139436739490652E-032
  -3.8100000000000002E-002     9.9034868071610980E-032
  -3.8050000000000000E-002     2.1440781670720346E-031
  -3.7999999999999999E-002     3.8729980065320510E-031
  -3.7949999999999998E-002     5.6615541656247726E-031
  -3.7900000000000003E-002     5.5524161563547965E-031
  -3.7850000000000002E-002    -1.1314579439017008E-031
  -3.7800000000000000E-002    -2.2762616404591759E-030
  -3.7749999999999999E-002    -7.0123482663074879E-030
  -3.7699999999999997E-002    -1.4943446620241184E-029
  -3.7650000000000003E-002    -2.4598338658432434E-029
  -3.7600000000000001E-002    -2.9806856337583968E-029
  -3.7550000000000000E-002    -1.7081686860886360E-029
  -3.7499999999999999E-002     3.4411725022569242E-029
  -3.7449999999999997E-002     1.4603414953417432E-028
  -3.7400000000000003E-002     3.2166420427692174E-028
  -3.7350000000000001E-002     5.1800130319274547E-028
  -3.7300000000000000E-002     6.1219302795871154E-028
  -3.7249999999999998E-002     3.8987617805763939E-028
  -3.7200000000000004E-002    -4.1110968695557389E-028
  -3.7150000000000002E-002    -1.9681720120070507E-027
  -3.7100000000000001E-002    -4.1499818470637933E-027
  -3.7050000000000000E-002    -6.2637435152686829E-027
  -3.6999999999999998E-002    -6.9214104407590089E-027
  -3.6950000000000004E-002    -4.2324678409296645E-027
  -3.6900000000000002E-002     3.5019040858771841E-027
  -3.6850000000000001E-002     1.6602754645421444E-026
  -3.6799999999999999E-002     3.2678267081117104E-026
  -3.6749999999999998E-002     4.5851739712511326E-026
  -3.6700000000000003E-002     4.7440557525174583E-026
  -3.6650000000000002E-002     2.8688798573156931E-026
  -3.6600000000000001E-002    -1.4729210581513171E-026
  -3.6549999999999999E-002    -7.8014408105669595E-026
  -3.6499999999999998E-002    -1.4503524671021155E-025
  -3.6450000000000003E-002    -1.9128652233707777E-025
  -3.6400000000000002E-002    -1.9288137927178586E-025
  -3.6350000000000000E-002    -1.3891168271518453E-025
  -3.6299999999999999E-002    -4.0665900199946894E-026
  -3.6249999999999998E-002     7.0398125262769854E-026
  -3.6200000000000003E-002     1.6072369542122094E-025
  -3.6150000000000002E-002     2.2453856574823478E-025
  -3.6100000000000000E-002     3.0935115210838194E-025
  -3.6049999999999999E-002     5.1273763402393956E-025
  -3.6000000000000004E-002     9.3035367236258712E-025
  -3.5950000000000003E-002     1.5570318257202724E-024
  -3.5900000000000001E-002     2.1786568561359145E-024
  -3.5850000000000000E-002     2.3262497696418615E-024
  -3.5799999999999998E-002     1.3706326352540674E-024
  -3.5750000000000004E-002    -1.2056169248311702E-024
  -3.5700000000000003E-002    -5.4146164896078523E-024
  -3.5650000000000001E-002    -1.0416114645908685E-023
  -3.5600000000000000E-002    -1.4455005912820898E-023
  -3.5549999999999998E-002    -1.5278768169211298E-023
  -3.5500000000000004E-002    -1.1038440426933567E-023
  -3.5450000000000002E-002    -1.3780157042588010E-024
  -3.5400000000000001E-002     1.1852703726436404E-023
  -3.5349999999999999E-002     2.4874530885919595E-023
  -3.5299999999999998E-002     3.3528580708754119E-023
  -3.5250000000000004E-002     3.5685610385079445E-023
  -3.5200000000000002E-002     3.3290586456716780E-023
  -3.5150000000000001E-002     3.2367648135241460E-023
  -3.5099999999999999E-002     3.9728784433271656E-023
  -3.5049999999999998E-002     5.6646778173311735E-023
  -3.5000000000000003E-002     7.2023829179908175E-023
  -3.4950000000000002E-002     5.9589195198241128E-023
  -3.4900000000000000E-002    -1.6038110547996939E-023
  -3.4849999999999999E-002    -1.8215698973988821E-022
  -3.4799999999999998E-002    -4.3291180348817372E-022
  -3.4750000000000003E-002    -7.0638222293999458E-022
  -3.4700000000000002E-002    -8.7864937782776058E-022
  -3.4650000000000000E-002    -7.8855606913762738E-022
  -3.4599999999999999E-002    -2.9748336805617860E-022
  -3.4549999999999997E-002     6.2819159579897941E-022
  -3.4500000000000003E-002     1.8426251732293219E-021
  -3.4450000000000001E-002     2.9955979399576569E-021
  -3.4400000000000000E-002     3.5929498546773420E-021
  -3.4349999999999999E-002     3.1513286125519743E-021
  -3.4299999999999997E-002     1.4132629222025460E-021
  -3.4250000000000003E-002    -1.4549754224738516E-021
  -3.4200000000000001E-002    -4.7822481358222233E-021
  -3.4150000000000000E-002    -7.5084329730987646E-021
  -3.4099999999999998E-002    -8.5110326441902537E-021
  -3.4049999999999997E-002    -7.0587819012643396E-021
  -3.4000000000000002E-002    -3.2183978703072285E-021
  -3.3950000000000001E-002     1.9934546250089228E-021
  -3.3900000000000000E-002     6.8618008333001274E-021
  -3.3849999999999998E-002     9.6226830359153513E-021
  -3.3799999999999997E-002     9.3003119648993802E-021
  -3.3750000000000002E-002     6.3572127608156017E-021
  -3.3700000000000001E-002     2.7556572221191067E-021
  -3.3649999999999999E-002     1.2024453290813101E-021
  -3.3599999999999998E-002     3.7039372421548381E-021
  -3.3550000000000003E-002     9.9744314839476116E-021
  -3.3500000000000002E-002     1.6524797726344585E-020
  -3.3450000000000001E-002     1.7215610409051911E-020
  -3.3399999999999999E-002     5.5939462984900455E-021
  -3.3349999999999998E-002    -2.1471039566760596E-020
  -3.3300000000000003E-002    -6.0199201787216023E-020
  -3.3250000000000002E-002    -9.8213151392768187E-020
  -3.3200000000000000E-002    -1.1639816962211000E-019
  -3.3149999999999999E-002    -9.4869318270107182E-020
  -3.3099999999999997E-002    -2.1875706353854982E-020
  -3.3050000000000003E-002     9.7311495110823505E-020
  -3.3000000000000002E-002     2.3551072318616766E-019
  -3.2950000000000000E-002     3.4629968906220979E-019
  -3.2899999999999999E-002     3.7567729943825766E-019
  -3.2850000000000004E-002     2.8077631508999915E-019
  -3.2800000000000003E-002     5.0176621645308327E-020
  -3.2750000000000001E-002    -2.8180212092400350E-019
  -3.2700000000000000E-002    -6.3403467193739161E-019
  -3.2649999999999998E-002    -8.9451892857234465E-019
  -3.2600000000000004E-002    -9.5134702753219842E-019
  -3.2550000000000003E-002    -7.3062881291918470E-019
  -3.2500000000000001E-002    -2.2911771068681105E-019
  -3.2450000000000000E-002     4.7087181786965420E-019
  -3.2399999999999998E-002     1.2121040730595325E-018
  -3.2350000000000004E-002     1.7983065648908385E-018
  -3.2300000000000002E-002     2.0459785928419665E-018
  -3.2250000000000001E-002     1.8364397214915764E-018
  -3.2199999999999999E-002     1.1515219248817761E-018
  -3.2149999999999998E-002     8.1690017180981435E-020
  -3.2100000000000004E-002    -1.1947195848645359E-018
  -3.2050000000000002E-002    -2.4519417633939931E-018
  -3.2000000000000001E-002    -3.4611774303303393E-018
  -3.1949999999999999E-002    -4.0238919946362326E-018
  -3.1899999999999998E-002    -3.9870023404159680E-018
  -3.1850000000000003E-002    -3.2448924956466393E-018
  -3.1800000000000002E-002    -1.7430477928006045E-018
  -3.1750000000000000E-002     5.0014550550447733E-019
  -3.1699999999999999E-002     3.3463402128462931E-018
  -3.1649999999999998E-002     6.4763091619030144E-018
  -3.1600000000000003E-002     9.3466687672346733E-018
  -3.1550000000000002E-002     1.1206904661447062E-017
  -3.1500000000000000E-002     1.1212369917754681E-017
  -3.1449999999999999E-002     8.6405996885392504E-018
  -3.1399999999999997E-002     3.1746541810380933E-018
  -3.1350000000000003E-002    -4.8270589920561001E-018
  -3.1300000000000001E-002    -1.4180472464970368E-017
  -3.1250000000000000E-002    -2.2941554162077703E-017
  -3.1199999999999999E-002    -2.8734125636682522E-017
  -3.1150000000000001E-002    -2.9304723093854271E-017
  -3.1100000000000003E-002    -2.3181677843600756E-017
  -3.1050000000000001E-002    -1.0253737989096688E-017
  -3.1000000000000000E-002     7.9245354956228744E-018
  -3.0949999999999998E-002     2.8235500194105747E-017
  -3.0900000000000000E-002     4.6532089511098414E-017
  -3.0850000000000002E-002     5.8493424702500032E-017
  -3.0800000000000001E-002     6.0587972761749605E-017
  -3.0750000000000000E-002     5.0891866604112693E-017
  -3.0699999999999998E-002     2.9558003270486827E-017
  -3.0650000000000000E-002    -1.1505003410480828E-018
  -3.0600000000000002E-002    -3.7205602954755775E-017
  -3.0550000000000001E-002    -7.3374610161792591E-017
  -3.0499999999999999E-002    -1.0380959272068395E-016
  -3.0449999999999998E-002    -1.2255781716524585E-016
  -3.0400000000000000E-002    -1.2402831275427514E-016
  -3.0350000000000002E-002    -1.0358396969972922E-016
  -3.0300000000000001E-002    -5.8466901303013481E-017
  -3.0249999999999999E-002     1.0853237926065013E-017
  -3.0200000000000001E-002     9.9089096443165130E-017
  -3.0150000000000000E-002     1.9482300373613338E-016
  -3.0100000000000002E-002     2.8025159073862997E-016
  -3.0050000000000000E-002     3.3278343664487934E-016
  -2.9999999999999999E-002     3.2895126625516114E-016
  -2.9950000000000001E-002     2.5041831900420218E-016
  -2.9899999999999999E-002     9.0986110136147961E-017
  -2.9850000000000002E-002    -1.3727773043069932E-016
  -2.9800000000000000E-002    -4.0105108232424379E-016
  -2.9749999999999999E-002    -6.4787737355902365E-016
  -2.9700000000000001E-002    -8.1432200607758619E-016
  -2.9650000000000003E-002    -8.3947080094074302E-016
  -2.9600000000000001E-002    -6.8127755431504425E-016
  -2.9550000000000000E-002    -3.3183895888117699E-016
  -2.9499999999999998E-002     1.7284865867371903E-016
  -2.9450000000000000E-002     7.5239840414966558E-016
  -2.9400000000000003E-002     1.2926449913443510E-015
  -2.9350000000000001E-002     1.6664728198055329E-015
  -2.9300000000000000E-002     1.7611359014212978E-015
  -2.9249999999999998E-002     1.5061960422427124E-015
  -2.9200000000000000E-002     8.9541774246053001E-016
  -2.9150000000000002E-002    -3.1563420708067684E-018
  -2.9100000000000001E-002    -1.0523041863004477E-015
  -2.9049999999999999E-002    -2.0659168300126747E-015
  -2.8999999999999998E-002    -2.8410823569899190E-015
  -2.8950000000000000E-002    -3.1959447596980536E-015
  -2.8900000000000002E-002    -3.0061071225857547E-015
  -2.8850000000000001E-002    -2.2327496942042771E-015
  -2.8799999999999999E-002    -9.3735413661138801E-016
  -2.8749999999999998E-002     7.1958147209466619E-016
  -2.8700000000000000E-002     2.4958577679089351E-015
  -2.8650000000000002E-002     4.0987865322384902E-015
  -2.8600000000000000E-002     5.2266160917216057E-015
  -2.8549999999999999E-002     5.6154862947179143E-015
  -2.8500000000000001E-002     5.0865040257587132E-015
  -2.8450000000000000E-002     3.5868675251435651E-015
  -2.8400000000000002E-002     1.2184084143929766E-015
  -2.8350000000000000E-002    -1.7531370687149516E-015
  -2.8299999999999999E-002    -4.9138456563895761E-015
  -2.8250000000000001E-002    -7.7454583256885870E-015
  -2.8200000000000003E-002    -9.6961903883895296E-015
  -2.8150000000000001E-002    -1.0271691443277627E-014
  -2.8100000000000000E-002    -9.1335227207489695E-015
  -2.8049999999999999E-002    -6.1879480479591051E-015
  -2.8000000000000001E-002    -1.6461869510549920E-015
  -2.7950000000000003E-002     3.9606103042894243E-015
  -2.7900000000000001E-002     9.8222112985015781E-015
  -2.7850000000000000E-002     1.4947260932241852E-014
  -2.7799999999999998E-002     1.8309042124708454E-014
  -2.7750000000000000E-002     1.9019874015401378E-014
  -2.7700000000000002E-002     1.6507804394359778E-014
  -2.7650000000000001E-002     1.0666126110585748E-014
  -2.7600000000000000E-002     1.9474411363627767E-015
  -2.7549999999999998E-002    -8.6207420962587823E-015
  -2.7500000000000000E-002    -1.9513214996396353E-014
  -2.7450000000000002E-002    -2.8880166708554822E-014
  -2.7400000000000001E-002    -3.4805938235399462E-014
  -2.7349999999999999E-002    -3.5628380244178782E-014
  -2.7299999999999998E-002    -3.0278530929398348E-014
  -2.7250000000000000E-002    -1.8586715910407481E-014
  -2.7200000000000002E-002    -1.4924698080306249E-015
  -2.7150000000000001E-002     1.8903914353345380E-014
  -2.7099999999999999E-002     3.9496798697689251E-014
  -2.7049999999999998E-002     5.6557397421800281E-014
  -2.7000000000000000E-002     6.6319934880063286E-014
  -2.6950000000000002E-002     6.5698835576341817E-014
  -2.6900000000000000E-002     5.3016791628323730E-014
  -2.6849999999999999E-002     2.8592580364357861E-014
  -2.6800000000000001E-002    -4.9649722327232878E-015
  -2.6749999999999999E-002    -4.2876279299386102E-014
  -2.6700000000000002E-002    -7.8773651609006318E-014
  -2.6650000000000000E-002    -1.0570215513750982E-013
  -2.6599999999999999E-002    -1.1739281229427230E-013
  -2.6550000000000001E-002    -1.0957949594654586E-013
  -2.6500000000000003E-002    -8.1089496937374195E-014
  -2.6450000000000001E-002    -3.4453538801663766E-014
  -2.6400000000000000E-002     2.4143819363258569E-014
  -2.6349999999999998E-002     8.5629701765262662E-014
  -2.6300000000000000E-002     1.3943518129325874E-013
  -2.6250000000000002E-002     1.7528991352246920E-013
  -2.6200000000000001E-002     1.8510006978339146E-013
  -2.6150000000000000E-002     1.6456006331447164E-013
  -2.6099999999999998E-002     1.1418819775292536E-013
  -2.6050000000000000E-002     3.9579261226091215E-014
  -2.6000000000000002E-002    -4.9192726982975799E-014
  -2.5950000000000001E-002    -1.3893848563623164E-013
  -2.5899999999999999E-002    -2.1527395864590349E-013
  -2.5849999999999998E-002    -2.6480304726734492E-013
  -2.5800000000000000E-002    -2.7723842420797561E-013
  -2.5750000000000002E-002    -2.4715571933522653E-013
  -2.5700000000000001E-002    -1.7513554527257619E-013
  -2.5649999999999999E-002    -6.8128172964902319E-014
  -2.5599999999999998E-002     6.1035202686059799E-014
  -2.5550000000000000E-002     1.9496957048466326E-013
  -2.5500000000000002E-002     3.1379940201723516E-013
  -2.5450000000000000E-002     3.9776873567673092E-013
  -2.5399999999999999E-002     4.3012456429094255E-013
  -2.5349999999999998E-002     3.9992507040952138E-013
  -2.5300000000000000E-002     3.0437292866907559E-013
  -2.5250000000000002E-002     1.5026473076965213E-013
  -2.5200000000000000E-002    -4.5799876318115103E-014
  -2.5149999999999999E-002    -2.5868048418419900E-013
  -2.5100000000000001E-002    -4.5746764370758086E-013
  -2.5049999999999999E-002    -6.0955800834624727E-013
  -2.5000000000000001E-002    -6.8557273498169289E-013
  -2.4950000000000000E-002    -6.6443984555134023E-013
  -2.4899999999999999E-002    -5.3782479154163816E-013
  -2.4850000000000001E-002    -3.1308297020188717E-013
  -2.4800000000000003E-002    -1.4037294155801219E-014
  -2.4750000000000001E-002     3.2084497273556391E-013
  -2.4700000000000000E-002     6.4291938850601955E-013
  -2.4649999999999998E-002     9.0007691880820847E-013
  -2.4600000000000000E-002     1.0448669156637508E-012
  -2.4550000000000002E-002     1.0428433553090059E-012
  -2.4500000000000001E-002     8.7974345973200833E-013
  -2.4450000000000000E-002     5.6611901677855512E-013
  -2.4399999999999998E-002     1.3828929798261797E-013
  -2.4350000000000000E-002    -3.4502243666936735E-013
  -2.4299999999999999E-002    -8.1032768274178521E-013
  -2.4250000000000001E-002    -1.1804670669523189E-012
  -2.4199999999999999E-002    -1.3875947362282179E-012
  -2.4150000000000001E-002    -1.3859274721305481E-012
  -2.4100000000000000E-002    -1.1618987679114847E-012
  -2.4049999999999998E-002    -7.3955108812292015E-013
  -2.4000000000000000E-002    -1.7964902639797622E-013
  -2.3949999999999999E-002     4.2797580339140291E-013
  -2.3900000000000001E-002     9.7808375131240277E-013
  -2.3850000000000000E-002     1.3676909419476683E-012
  -2.3800000000000002E-002     1.5147854965321177E-012
  -2.3750000000000000E-002     1.3746964231050142E-012
  -2.3699999999999999E-002     9.5091914668065008E-013
  -2.3650000000000001E-002     2.9805034047426685E-013
  -2.3599999999999999E-002    -4.8414789222887494E-013
  -2.3550000000000001E-002    -1.2649351381317645E-012
  -2.3500000000000000E-002    -1.9028762261947884E-012
  -2.3449999999999999E-002    -2.2689350175910000E-012
  -2.3400000000000001E-002    -2.2685738093987142E-012
  -2.3349999999999999E-002    -1.8592367705297522E-012
  -2.3300000000000001E-002    -1.0604186922416084E-012
  -2.3250000000000000E-002     4.5228064564813448E-014
  -2.3199999999999998E-002     1.3198855004711985E-012
  -2.3150000000000000E-002     2.5865026790715157E-012
  -2.3099999999999999E-002     3.6505259699225545E-012
  -2.3050000000000001E-002     4.3247248868420830E-012
  -2.3000000000000000E-002     4.4542499847158517E-012
  -2.2950000000000002E-002     3.9391969546025653E-012
  -2.2900000000000000E-002     2.7522964478916587E-012
  -2.2849999999999999E-002     9.4977729337043403E-013
  -2.2800000000000001E-002    -1.3260424905881888E-012
  -2.2749999999999999E-002    -3.8532665318239147E-012
  -2.2700000000000001E-002    -6.3460929351053369E-012
  -2.2650000000000000E-002    -8.4787369606312537E-012
  -2.2599999999999999E-002    -9.9155413958263402E-012
  -2.2550000000000001E-002    -1.0344069999986312E-011
  -2.2499999999999999E-002    -9.5070093169330385E-012
  -2.2450000000000001E-002    -7.2282875293125189E-012
  -2.2400000000000000E-002    -3.4290530726955709E-012
  -2.2349999999999998E-002     1.8696748675309921E-012
  -2.2300000000000000E-002     8.5590058531536991E-012
  -2.2249999999999999E-002     1.6467713687116921E-011
  -2.2200000000000001E-002     2.5397694228323311E-011
  -2.2150000000000000E-002     3.5163682179284959E-011
  -2.2100000000000002E-002     4.5630311204030011E-011
  -2.2050000000000000E-002     5.6739700437610957E-011
  -2.1999999999999999E-002     6.8523968343036972E-011
  -2.1950000000000001E-002     8.1099500610943275E-011
  -2.1899999999999999E-002     9.4642924704438283E-011
  -2.1850000000000001E-002     1.0935209008459176E-010
  -2.1800000000000000E-002     1.2539817248934773E-010
  -2.1749999999999999E-002     1.4287709426179867E-010
  -2.1700000000000001E-002     1.6176893295807282E-010
  -2.1649999999999999E-002     1.8191335829979275E-010
  -2.1600000000000001E-002     2.0300669206237248E-010
  -2.1550000000000000E-002     2.2462306719392194E-010
  -2.1499999999999998E-002     2.4625818515951301E-010
  -2.1450000000000000E-002     2.6739010683990548E-010
  -2.1399999999999999E-002     2.8754846298986766E-010
  -2.1350000000000001E-002     3.0638117109774578E-010
  -2.1299999999999999E-002     3.2370826030637712E-010
  -2.1250000000000002E-002     3.3955284035930644E-010
  -2.1200000000000000E-002     3.5414339136101360E-010
  -2.1149999999999999E-002     3.6788577548615463E-010
  -2.1100000000000001E-002     3.8130868558663254E-010
  -2.1049999999999999E-002     3.9499045586780563E-010
  -2.1000000000000001E-002     4.0947854258597714E-010
  -2.0950000000000000E-002     4.2521480497480493E-010
  -2.0899999999999998E-002     4.4247797885512842E-010
  -2.0850000000000000E-002     4.6135198988900140E-010
  -2.0799999999999999E-002     4.8172481511406201E-010
  -2.0750000000000001E-002     5.0331613773815510E-010
  -2.0700000000000000E-002     5.2572886432037178E-010
  -2.0649999999999998E-002     5.4851521454373934E-010
  -2.0600000000000000E-002     5.7124689023718212E-010
  -2.0549999999999999E-002     5.9357934836139029E-010
  -2.0500000000000001E-002     6.1530173344659866E-010
  -2.0449999999999999E-002     6.3636684187727330E-010
  -2.0400000000000001E-002     6.5689862188230401E-010
  -2.0350000000000000E-002     6.7717801405925905E-010
  -2.0299999999999999E-002     6.9760899193484998E-010
  -2.0250000000000001E-002     7.1866940944042019E-010
  -2.0199999999999999E-002     7.4085169380104718E-010
  -2.0150000000000001E-002     7.6460034793923887E-010
  -2.0100000000000000E-002     7.9025237177911210E-010
  -2.0049999999999998E-002     8.1798894305727487E-010
  -2.0000000000000000E-002     8.4780501348958011E-010
  -1.9949999999999999E-002     8.7950293631788737E-010
  -1.9900000000000001E-002     9.1271364841810762E-010
  -1.9850000000000000E-002     9.4694513440091285E-010
  -1.9799999999999998E-002     9.8165281245349000E-010
  -1.9750000000000000E-002     1.0163226598068028E-009
  -1.9699999999999999E-002     1.0505539000541293E-009
  -1.9650000000000001E-002     1.0841260706212033E-009
  -1.9599999999999999E-002     1.1170406491406374E-009
  -1.9550000000000001E-002     1.1495274443293343E-009
  -1.9500000000000000E-002     1.1820133943786935E-009
  -1.9449999999999999E-002     1.2150602330254658E-009
  -1.9400000000000001E-002     1.2492802077299481E-009
  -1.9349999999999999E-002     1.2852458753465304E-009
  -1.9300000000000001E-002     1.3234085923078825E-009
  -1.9250000000000000E-002     1.3640389727025969E-009
  -1.9199999999999998E-002     1.4071991895603802E-009
  -1.9150000000000000E-002     1.4527504826737421E-009
  -1.9099999999999999E-002     1.5003918490233115E-009
  -1.9050000000000001E-002     1.5497231135152511E-009
  -1.9000000000000000E-002     1.6003213001024543E-009
  -1.8949999999999998E-002     1.6518167051746243E-009
  -1.8900000000000000E-002     1.7039575619684323E-009
  -1.8849999999999999E-002     1.7566539454550004E-009
  -1.8800000000000001E-002     1.8099947685688868E-009
  -1.8749999999999999E-002     1.8642346898575991E-009
  -1.8700000000000001E-002     1.9197529856909544E-009
  -1.8650000000000000E-002     1.9769903660697440E-009
  -1.8599999999999998E-002     2.0363730941607416E-009
  -1.8550000000000001E-002     2.0982366145436435E-009
  -1.8499999999999999E-002     2.1627624194853192E-009
  -1.8450000000000001E-002     2.2299409500957579E-009
  -1.8400000000000000E-002     2.2995699574430044E-009
  -1.8349999999999998E-002     2.3712911507793617E-009
  -1.8300000000000000E-002     2.4446614094012709E-009
  -1.8249999999999999E-002     2.5192445329132753E-009
  -1.8200000000000001E-002     2.5947101856598212E-009
  -1.8149999999999999E-002     2.6709183074837520E-009
  -1.8100000000000002E-002     2.7479748181243464E-009
  -1.8050000000000000E-002     2.8262419703154700E-009
  -1.7999999999999999E-002     2.9063035137218590E-009
  -1.7950000000000001E-002     2.9888891072728107E-009
  -1.7899999999999999E-002     3.0747700441878855E-009
  -1.7850000000000001E-002     3.1646473929657266E-009
  -1.7800000000000000E-002     3.2590496617423496E-009
  -1.7749999999999998E-002     3.3582569502666617E-009
  -1.7700000000000000E-002     3.4622623902927699E-009
  -1.7649999999999999E-002     3.5707734248047336E-009
  -1.7600000000000001E-002     3.6832544653818158E-009
  -1.7550000000000000E-002     3.7989977100286673E-009
  -1.7499999999999998E-002     3.9172177780197808E-009
  -1.7450000000000000E-002     4.0371556244466273E-009
  -1.7399999999999999E-002     4.1581831520072178E-009
  -1.7350000000000001E-002     4.2798967089520971E-009
  -1.7299999999999999E-002     4.4021930926964822E-009
  -1.7250000000000001E-002     4.5253126232295274E-009
  -1.7200000000000000E-002     4.6498431359310763E-009
  -1.7149999999999999E-002     4.7766826393420674E-009
  -1.7100000000000001E-002     4.9069522764265654E-009
  -1.7049999999999999E-002     5.0418710892980630E-009
  -1.7000000000000001E-002     5.1826052863983142E-009
  -1.6950000000000000E-002     5.3301134076866877E-009
  -1.6899999999999998E-002     5.4850146972637896E-009
  -1.6850000000000000E-002     5.6475031147854075E-009
  -1.6799999999999999E-002     5.8173246637399483E-009
  -1.6750000000000001E-002     5.9938238725348639E-009
  -1.6700000000000000E-002     6.1760536168191700E-009
  -1.6649999999999998E-002     6.3629283240348551E-009
  -1.6600000000000000E-002     6.5533976468285434E-009
  -1.6549999999999999E-002     6.7466081223816015E-009
  -1.6500000000000001E-002     6.9420259925054850E-009
  -1.6449999999999999E-002     7.1395062518606009E-009
  -1.6400000000000001E-002     7.3393056213067765E-009
  -1.6350000000000000E-002     7.5420364262355144E-009
  -1.6299999999999999E-002     7.7485808928206108E-009
  -1.6250000000000001E-002     7.9599837166433417E-009
  -1.6199999999999999E-002     8.1773403909544247E-009
  -1.6150000000000001E-002     8.4016829813320949E-009
  -1.6100000000000000E-002     8.6338897820476671E-009
  -1.6049999999999998E-002     8.8746139293198778E-009
  -1.6000000000000000E-002     9.1242386018764322E-009
  -1.5949999999999999E-002     9.3828583704562087E-009
  -1.5900000000000001E-002     9.6502948274689162E-009
  -1.5850000000000000E-002     9.9261436989612036E-009
  -1.5799999999999998E-002     1.0209851063015353E-008
  -1.5750000000000000E-002     1.0500816124835547E-008
  -1.5699999999999999E-002     1.0798502925110212E-008
  -1.5650000000000001E-002     1.1102536491145612E-008
  -1.5599999999999999E-002     1.1412771134814284E-008
  -1.5550000000000001E-002     1.1729323497168782E-008
  -1.5500000000000000E-002     1.2052553191227725E-008
  -1.5449999999999998E-002     1.2383005551461168E-008
  -1.5400000000000000E-002     1.2721326700713352E-008
  -1.5349999999999999E-002     1.3068174422225944E-008
  -1.5300000000000001E-002     1.3424138964856171E-008
  -1.5250000000000000E-002     1.3789698921543970E-008
  -1.5199999999999998E-002     1.4165207042784016E-008
  -1.5150000000000000E-002     1.4550919408108090E-008
  -1.5099999999999999E-002     1.4947032335824971E-008
  -1.5050000000000001E-002     1.5353729715976803E-008
  -1.4999999999999999E-002     1.5771208135202409E-008
  -1.4949999999999998E-002     1.6199683930403847E-008
  -1.4900000000000000E-002     1.6639369692266465E-008
  -1.4849999999999999E-002     1.7090448345199529E-008
  -1.4800000000000001E-002     1.7553060704266468E-008
  -1.4749999999999999E-002     1.8027289057542822E-008
  -1.4700000000000001E-002     1.8513168961809759E-008
  -1.4650000000000000E-002     1.9010727503099288E-008
  -1.4599999999999998E-002     1.9520021883581653E-008
  -1.4550000000000000E-002     2.0041165562582148E-008
  -1.4499999999999999E-002     2.0574355750013138E-008
  -1.4450000000000001E-002     2.1119867251183895E-008
  -1.4400000000000000E-002     2.1678042302396808E-008
  -1.4349999999999998E-002     2.2249272689415806E-008
  -1.4300000000000000E-002     2.2833977204748742E-008
  -1.4249999999999999E-002     2.3432615328993528E-008
  -1.4200000000000001E-002     2.4045693962441954E-008
  -1.4149999999999999E-002     2.4673803000195360E-008
  -1.4099999999999998E-002     2.5317638048161598E-008
  -1.4050000000000000E-002     2.5978013464733577E-008
  -1.3999999999999999E-002     2.6655836381118357E-008
  -1.3950000000000001E-002     2.7352042852141839E-008
  -1.3899999999999999E-002     2.8067502211642806E-008
  -1.3850000000000001E-002     2.8802905422955251E-008
  -1.3800000000000000E-002     2.9558665652208129E-008
  -1.3749999999999998E-002     3.0334869394297650E-008
  -1.3700000000000000E-002     3.1131273280307211E-008
  -1.3649999999999999E-002     3.1947372112324709E-008
  -1.3600000000000001E-002     3.2782508441354735E-008
  -1.3550000000000000E-002     3.3636026208179489E-008
  -1.3499999999999998E-002     3.4507384288094377E-008
  -1.3450000000000000E-002     3.5396291674821823E-008
  -1.3399999999999999E-002     3.6302770538564271E-008
  -1.3350000000000001E-002     3.7227166552688958E-008
  -1.3299999999999999E-002     3.8170144486646590E-008
  -1.3249999999999998E-002     3.9132650487014356E-008
  -1.3200000000000000E-002     4.0115828122574268E-008
  -1.3149999999999998E-002     4.1120947524993596E-008
  -1.3100000000000001E-002     4.2149324317184378E-008
  -1.3049999999999999E-002     4.3202222803229184E-008
  -1.3000000000000001E-002     4.4280804759017835E-008
  -1.2950000000000000E-002     4.5386044714349995E-008
  -1.2899999999999998E-002     4.6518673522084162E-008
  -1.2850000000000000E-002     4.7679160074244791E-008
  -1.2799999999999999E-002     4.8867699511585313E-008