  -4.0000000000000001E-002     0.0000000000000000     
  -3.9949999999999999E-002     0.0000000000000000     
  -3.9899999999999998E-002     0.0000000000000000     
  -3.9850000000000003E-002     0.0000000000000000     
  -3.9800000000000002E-002     0.0000000000000000     
  -3.9750000000000001E-002     0.0000000000000000     
  -3.9699999999999999E-002     0.0000000000000000     
  -3.9649999999999998E-002     0.0000000000000000     
  -3.9600000000000003E-002     0.0000000000000000     
  -3.9550000000000002E-002     0.0000000000000000     
  -3.9500000000000000E-002     0.0000000000000000     
  -3.9449999999999999E-002     0.0000000000000000     
  -3.9399999999999998E-002     0.0000000000000000     
  -3.9350000000000003E-002     0.0000000000000000     
  -3.9300000000000002E-002     0.0000000000000000     
  -3.9250000000000000E-002     0.0000000000000000     
  -3.9199999999999999E-002     0.0000000000000000     
  -3.9150000000000004E-002     0.0000000000000000     
  -3.9100000000000003E-002     0.0000000000000000     
  -3.9050000000000001E-002     0.0000000000000000     
  -3.9000000000000000E-002     0.0000000000000000     
  -3.8949999999999999E-002     0.0000000000000000     
  -3.8900000000000004E-002     0.0000000000000000     
  -3.8850000000000003E-002     0.0000000000000000     
  -3.8800000000000001E-002     0.0000000000000000     
  -3.8750000000000000E-002     0.0000000000000000     
  -3.8699999999999998E-002     0.0000000000000000     
  -3.8650000000000004E-002     0.0000000000000000     
  -3.8600000000000002E-002     0.0000000000000000     
  -3.8550000000000001E-002     0.0000000000000000     
  -3.8500000000000000E-002     0.0000000000000000     
  -3.8449999999999998E-002     0.0000000000000000     
  -3.8400000000000004E-002     0.0000000000000000     
  -3.8350000000000002E-002     0.0000000000000000     
  -3.8300000000000001E-002     0.0000000000000000     
  -3.8249999999999999E-002     0.0000000000000000     
  -3.8199999999999998E-002     0.0000000000000000     
  -3.8150000000000003E-002     0.0000000000000000     
  -3.8100000000000002E-002     0.0000000000000000     
  -3.8050000000000000E-002     0.0000000000000000     
  -3.7999999999999999E-002     0.0000000000000000     
  -3.7949999999999998E-002     0.0000000000000000     
  -3.7900000000000003E-002     0.0000000000000000     
  -3.7850000000000002E-002     0.0000000000000000     
  -3.7800000000000000E-002     0.0000000000000000     
  -3.7749999999999999E-002     0.0000000000000000     
  -3.7699999999999997E-002     0.0000000000000000     
  -3.7650000000000003E-002     0.0000000000000000     
  -3.7600000000000001E-002     0.0000000000000000     
  -3.7550000000000000E-002     0.0000000000000000     
  -3.7499999999999999E-002     0.0000000000000000     
  -3.7449999999999997E-002     0.0000000000000000     
  -3.7400000000000003E-002     0.0000000000000000     
  -3.7350000000000001E-002     0.0000000000000000     
  -3.7300000000000000E-002     0.0000000000000000     
  -3.7249999999999998E-002     0.0000000000000000     
  -3.7200000000000004E-002     0.0000000000000000     
  -3.7150000000000002E-002     0.0000000000000000     
  -3.7100000000000001E-002     0.0000000000000000     
  -3.7050000000000000E-002     0.0000000000000000     
  -3.6999999999999998E-002     0.0000000000000000     
  -3.6950000000000004E-002     0.0000000000000000     
  -3.6900000000000002E-002     0.0000000000000000     
  -3.6850000000000001E-002     0.0000000000000000     
  -3.6799999999999999E-002     0.0000000000000000     
  -3.6749999999999998E-002     0.0000000000000000     
  -3.6700000000000003E-002     0.0000000000000000     
  -3.6650000000000002E-002     0.0000000000000000     
  -3.6600000000000001E-002     0.0000000000000000     
  -3.6549999999999999E-002     0.0000000000000000     
  -3.6499999999999998E-002     0.0000000000000000     
  -3.6450000000000003E-002     0.0000000000000000     
  -3.6400000000000002E-002     0.0000000000000000     
  -3.6350000000000000E-002     0.0000000000000000     
  -3.6299999999999999E-002     0.0000000000000000     
  -3.6249999999999998E-002     0.0000000000000000     
  -3.6200000000000003E-002     0.0000000000000000     
  -3.6150000000000002E-002     0.0000000000000000     
  -3.6100000000000000E-002     0.0000000000000000     
  -3.6049999999999999E-002     0.0000000000000000     
  -3.6000000000000004E-002     0.0000000000000000     
  -3.5950000000000003E-002     0.0000000000000000     
  -3.5900000000000001E-002     0.0000000000000000     
  -3.5850000000000000E-002     0.0000000000000000     
  -3.5799999999999998E-002     0.0000000000000000     
  -3.5750000000000004E-002     0.0000000000000000     
  -3.5700000000000003E-002     0.0000000000000000     
  -3.5650000000000001E-002     0.0000000000000000     
  -3.5600000000000000E-002     0.0000000000000000     
  -3.5549999999999998E-002     0.0000000000000000     
  -3.5500000000000004E-002     0.0000000000000000     
  -3.5450000000000002E-002     0.0000000000000000     
  -3.5400000000000001E-002     0.0000000000000000     
  -3.5349999999999999E-002     0.0000000000000000     
  -3.5299999999999998E-002     0.0000000000000000     
  -3.5250000000000004E-002     0.0000000000000000     
  -3.5200000000000002E-002     0.0000000000000000     
  -3.5150000000000001E-002     0.0000000000000000     
  -3.5099999999999999E-002     0.0000000000000000     
  -3.5049999999999998E-002     0.0000000000000000     
  -3.5000000000000003E-002     0.0000000000000000     
  -3.4950000000000002E-002     0.0000000000000000     
  -3.4900000000000000E-002     0.0000000000000000     
  -3.4849999999999999E-002     0.0000000000000000     
  -3.4799999999999998E-002     0.0000000000000000     
  -3.4750000000000003E-002     0.0000000000000000     
  -3.4700000000000002E-002     0.0000000000000000     
  -3.4650000000000000E-002     0.0000000000000000     
  -3.4599999999999999E-002     0.0000000000000000     
  -3.4549999999999997E-002     0.0000000000000000     
  -3.4500000000000003E-002     0.0000000000000000     
  -3.4450000000000001E-002     0.0000000000000000     
  -3.4400000000000000E-002     0.0000000000000000     
  -3.4349999999999999E-002     0.0000000000000000     
  -3.4299999999999997E-002     0.0000000000000000     
  -3.4250000000000003E-002     0.0000000000000000     
  -3.4200000000000001E-002     0.0000000000000000     
  -3.4150000000000000E-002     0.0000000000000000     
  -3.4099999999999998E-002     0.0000000000000000     
  -3.4049999999999997E-002     0.0000000000000000     
  -3.4000000000000002E-002     0.0000000000000000     
  -3.3950000000000001E-002     0.0000000000000000     
  -3.3900000000000000E-002     0.0000000000000000     
  -3.3849999999999998E-002     0.0000000000000000     
  -3.3799999999999997E-002     0.0000000000000000     
  -3.3750000000000002E-002     0.0000000000000000     
  -3.3700000000000001E-002     0.0000000000000000     
  -3.3649999999999999E-002     0.0000000000000000     
  -3.3599999999999998E-002     0.0000000000000000     
  -3.3550000000000003E-002     0.0000000000000000     
  -3.3500000000000002E-002     0.0000000000000000     
  -3.3450000000000001E-002     0.0000000000000000     
  -3.3399999999999999E-002     0.0000000000000000     
  -3.3349999999999998E-002     0.0000000000000000     
  -3.3300000000000003E-002     0.0000000000000000     
  -3.3250000000000002E-002     0.0000000000000000     
  -3.3200000000000000E-002     0.0000000000000000     
  -3.3149999999999999E-002     0.0000000000000000     
  -3.3099999999999997E-002     0.0000000000000000     
  -3.3050000000000003E-002     0.0000000000000000     
  -3.3000000000000002E-002     0.0000000000000000     
  -3.2950000000000000E-002     0.0000000000000000     
  -3.2899999999999999E-002     0.0000000000000000     
  -3.2850000000000004E-002     0.0000000000000000     
  -3.2800000000000003E-002     0.0000000000000000     
  -3.2750000000000001E-002     0.0000000000000000     
  -3.2700000000000000E-002     0.0000000000000000     
  -3.2649999999999998E-002     0.0000000000000000     
  -3.2600000000000004E-002     0.0000000000000000     
  -3.2550000000000003E-002     0.0000000000000000     
  -3.2500000000000001E-002     0.0000000000000000     
  -3.2450000000000000E-002     0.0000000000000000     
  -3.2399999999999998E-002     0.0000000000000000     
  -3.2350000000000004E-002     0.0000000000000000     
  -3.2300000000000002E-002     0.0000000000000000     
  -3.2250000000000001E-002     0.0000000000000000     
  -3.2199999999999999E-002     0.0000000000000000     
  -3.2149999999999998E-002     0.0000000000000000     
  -3.2100000000000004E-002     0.0000000000000000     
  -3.2050000000000002E-002     0.0000000000000000     
  -3.2000000000000001E-002     0.0000000000000000     
  -3.1949999999999999E-002     0.0000000000000000     
  -3.1899999999999998E-002     0.0000000000000000     
  -3.1850000000000003E-002     0.0000000000000000     
  -3.1800000000000002E-002     0.0000000000000000     
  -3.1750000000000000E-002     0.0000000000000000     
  -3.1699999999999999E-002     0.0000000000000000     
  -3.1649999999999998E-002     0.0000000000000000     
  -3.1600000000000003E-002     0.0000000000000000     
  -3.1550000000000002E-002     0.0000000000000000     
  -3.1500000000000000E-002     0.0000000000000000     
  -3.1449999999999999E-002     0.0000000000000000     
  -3.1399999999999997E-002     0.0000000000000000     
  -3.1350000000000003E-002     0.0000000000000000     
  -3.1300000000000001E-002     0.0000000000000000     
  -3.1250000000000000E-002     0.0000000000000000     
  -3.1199999999999999E-002     0.0000000000000000     
  -3.1150000000000001E-002     0.0000000000000000     
  -3.1100000000000003E-002     0.0000000000000000     
  -3.1050000000000001E-002     0.0000000000000000     
  -3.1000000000000000E-002     0.0000000000000000     
  -3.0949999999999998E-002     0.0000000000000000     
  -3.0900000000000000E-002     0.0000000000000000     
  -3.0850000000000002E-002     0.0000000000000000     
  -3.0800000000000001E-002     0.0000000000000000     
  -3.0750000000000000E-002     0.0000000000000000     
  -3.0699999999999998E-002     1.3729955452112029E-038
  -3.0650000000000000E-002     2.7523558631787847E-038
  -3.0600000000000002E-002     2.7976044320510875E-038
  -3.0550000000000001E-002     9.2453937946354052E-054
  -3.0499999999999999E-002    -3.8778005666613271E-038
  -3.0449999999999998E-002    -7.9242167593638388E-038
  -3.0400000000000000E-002    -1.1348733582119739E-037
  -3.0350000000000002E-002    -9.5866156922857390E-038
  -3.0300000000000001E-002    -4.2316173358815325E-038
  -3.0249999999999999E-002     5.1286379172769320E-038
  -3.0200000000000001E-002     1.4240833359995940E-037
  -3.0150000000000000E-002     2.2325201279147768E-037
  -3.0100000000000002E-002     2.6702991698351249E-037
  -3.0050000000000000E-002     2.6589505153604870E-037
  -2.9999999999999999E-002     2.2754444831903817E-037
  -2.9950000000000001E-002     1.4574610542281819E-037
  -2.9899999999999999E-002     3.9455243668605825E-039
  -2.9850000000000002E-002    -2.2012530656763503E-037
  -2.9800000000000000E-002    -5.4526811196352389E-037
  -2.9749999999999999E-002    -9.7089958647869614E-037
  -2.9700000000000001E-002    -1.4320820598997306E-036
  -2.9650000000000003E-002    -1.7942302868866383E-036
  -2.9600000000000001E-002    -1.8104289738300131E-036
  -2.9550000000000000E-002    -1.1619427213644858E-036
  -2.9499999999999998E-002     4.6801659937741352E-037
  -2.9450000000000000E-002     3.2293766102658996E-036
  -2.9400000000000003E-002     6.8524705472932619E-036
  -2.9350000000000001E-002     1.0460136883246506E-035
  -2.9300000000000000E-002     1.2450179643645600E-035
  -2.9249999999999998E-002     1.0723668496581231E-035
  -2.9200000000000000E-002     3.3324764441707523E-036
  -2.9150000000000002E-002    -1.0473832963068167E-035
  -2.9100000000000001E-002    -2.9063869217357524E-035
  -2.9049999999999999E-002    -4.7604656815867842E-035
  -2.8999999999999998E-002    -5.8256487603236169E-035
  -2.8950000000000000E-002    -5.1867207744093252E-035
  -2.8900000000000002E-002    -2.1247017452622840E-035
  -2.8850000000000001E-002     3.4647869196866381E-035
  -2.8799999999999999E-002     1.0703755410290645E-034
  -2.8749999999999998E-002     1.7602577320015865E-034
  -2.8700000000000000E-002     2.1337785723710890E-034
  -2.8650000000000002E-002     1.9000413433137300E-034
  -2.8600000000000000E-002     8.7010518929483403E-035
  -2.8549999999999999E-002    -9.2798191165008422E-035
  -2.8500000000000001E-002    -3.1744236358459127E-034
  -2.8450000000000000E-002    -5.2671456342301115E-034
  -2.8400000000000002E-002    -6.4395966959055670E-034
  -2.8350000000000000E-002    -5.9747640223213145E-034
  -2.8299999999999999E-002    -3.4617933248402795E-034
  -2.8250000000000001E-002     9.8825566886038378E-035
  -2.8200000000000003E-002     6.6529157630509086E-034
  -2.8150000000000001E-002     1.2286868650333513E-033
  -2.8100000000000000E-002     1.6378811457166205E-033
  -2.8049999999999999E-002     1.7500777437174353E-033
  -2.8000000000000001E-002     1.4635282674458036E-033
  -2.7950000000000003E-002     7.3802121002809943E-034
  -2.7900000000000001E-002    -3.9972346340454413E-034
  -2.7850000000000000E-002    -1.8586589761106158E-033
  -2.7799999999999998E-002    -3.4798241652550671E-033
  -2.7750000000000000E-002    -5.0144535064409782E-033
  -2.7700000000000002E-002    -6.0863407377219873E-033
  -2.7650000000000001E-002    -6.1653599329832597E-033
  -2.7600000000000000E-002    -4.6023618890626812E-033
  -2.7549999999999998E-002    -7.8160930922988231E-034
  -2.7500000000000000E-002     5.5800749128074024E-033
  -2.7450000000000002E-002     1.4023899583848974E-032
  -2.7400000000000001E-002     2.2957780560962951E-032
  -2.7349999999999999E-002     2.9496014526355169E-032
  -2.7299999999999998E-002     2.9771774170842386E-032
  -2.7250000000000000E-002     1.9890894544709996E-032
  -2.7200000000000002E-002    -2.5012045118418517E-033
  -2.7150000000000001E-002    -3.6361216265994863E-032
  -2.7099999999999999E-002    -7.5726123996583115E-032
  -2.7049999999999998E-002    -1.0934437409335620E-031
  -2.7000000000000000E-002    -1.2220866996118266E-031
  -2.6950000000000002E-002    -9.9324977679542304E-032
  -2.6900000000000000E-002    -3.1308983174824882E-032
  -2.6849999999999999E-002     7.9508501057087342E-032
  -2.6800000000000001E-002     2.1456485171803492E-031
  -2.6749999999999999E-002     3.3852031812784558E-031
  -2.6700000000000002E-002     4.0454899701437222E-031
  -2.6650000000000000E-002     3.6590342124421464E-031
  -2.6599999999999999E-002     1.9205809200519695E-031
  -2.6550000000000001E-002    -1.1455031452092073E-031
  -2.6500000000000003E-002    -5.0681507372190308E-031
  -2.6450000000000001E-002    -8.9209728367737070E-031
  -2.6400000000000000E-002    -1.1462023764410376E-030
  -2.6349999999999998E-002    -1.1424010546941685E-030
  -2.6300000000000000E-002    -7.9068208126835942E-031
  -2.6250000000000002E-002    -7.7614165977407139E-032
  -2.6200000000000001E-002     9.0570889050660616E-031
  -2.6150000000000000E-002     1.9596527821945732E-030
  -2.6099999999999998E-002     2.8034167015053231E-030
  -2.6050000000000000E-002     3.1332557000903938E-030
  -2.6000000000000002E-002     2.7015774638935911E-030
  -2.5950000000000001E-002     1.3988296507455073E-030
  -2.5899999999999999E-002    -6.8376838193887194E-031
  -2.5849999999999998E-002    -3.2304804014341082E-030
  -2.5800000000000000E-002    -5.7280879920149681E-030
  -2.5750000000000002E-002    -7.5437588352139125E-030
  -2.5700000000000001E-002    -8.0419794814721670E-030
  -2.5649999999999999E-002    -6.7206742982210530E-030
  -2.5599999999999998E-002    -3.3443406499669419E-030
  -2.5550000000000000E-002     1.9450963617852423E-030
  -2.5500000000000002E-002     8.5543381904584299E-030
  -2.5450000000000000E-002     1.5414715657965676E-029
  -2.5399999999999999E-002     2.1025648128499562E-029
  -2.5349999999999998E-002     2.3592402371717415E-029
  -2.5300000000000000E-002     2.1291464755607575E-029
  -2.5250000000000002E-002     1.2688217779125177E-029
  -2.5200000000000000E-002    -2.7045792681925146E-030
  -2.5149999999999999E-002    -2.3807189292487866E-029
  -2.5100000000000001E-002    -4.7461251813104303E-029
  -2.5049999999999999E-002    -6.8275983522623121E-029
  -2.5000000000000001E-002    -7.9109180121038408E-029
  -2.4950000000000000E-002    -7.2386044376037090E-029
  -2.4899999999999999E-002    -4.2256953443619034E-029
  -2.4850000000000001E-002     1.2721498040124728E-029
  -2.4800000000000003E-002     8.7057823354226948E-029
  -2.4750000000000001E-002     1.6690678261712951E-028
  -2.4700000000000000E-002     2.3077070322624488E-028
  -2.4649999999999998E-002     2.5303306178292602E-028
  -2.4600000000000000E-002     2.1034609786293916E-028
  -2.4550000000000002E-002     8.9907128984991630E-029
  -2.4500000000000001E-002    -1.0238135458486615E-028
  -2.4450000000000000E-002    -3.3660828379476263E-028
  -2.4399999999999998E-002    -5.5920420023502433E-028
  -2.4350000000000000E-002    -7.0086054969316892E-028
  -2.4299999999999999E-002    -6.9210178874139876E-028
  -2.4250000000000001E-002    -4.8413525150352398E-028
  -2.4199999999999999E-002    -7.0156242065399140E-029
  -2.4150000000000001E-002     4.9932798448124572E-028
  -2.4100000000000000E-002     1.1135989474013685E-027
  -2.4049999999999998E-002     1.6156619293178978E-027
  -2.4000000000000000E-002     1.8334879435461533E-027
  -2.3949999999999999E-002     1.6239725939325620E-027
  -2.3900000000000001E-002     9.2018384900524530E-028
  -2.3850000000000000E-002    -2.3061810378658920E-028
  -2.3800000000000002E-002    -1.6507676924995948E-027
  -2.3750000000000000E-002    -3.0468255010693949E-027
  -2.3699999999999999E-002    -4.0574285604561944E-027
  -2.3650000000000001E-002    -4.3284145739827769E-027
  -2.3599999999999999E-002    -3.6014024608246828E-027
  -2.3550000000000001E-002    -1.7967886909584011E-027
  -2.3500000000000000E-002     9.2893839471494435E-028
  -2.3449999999999999E-002     4.1681238495875003E-027
  -2.3400000000000001E-002     7.2984343845562911E-027
  -2.3349999999999999E-002     9.5710036187036083E-027
  -2.3300000000000001E-002     1.0241217916283817E-026
  -2.3250000000000000E-002     8.7255285805315959E-027
  -2.3199999999999998E-002     4.7621702025362998E-027
  -2.3150000000000000E-002    -1.4501941347032153E-027
  -2.3099999999999999E-002    -9.1647408239555128E-027
  -2.3050000000000001E-002    -1.7080252089379633E-026
  -2.3000000000000000E-002    -2.3445685770853130E-026
  -2.2950000000000002E-002    -2.6297148294804282E-026
  -2.2900000000000000E-002    -2.3830371689639455E-026
  -2.2849999999999999E-002    -1.4880026309653799E-026
  -2.2800000000000001E-002     5.6617401925120040E-028
  -2.2749999999999999E-002     2.0936970684747456E-026
  -2.2700000000000001E-002     4.2883326600693806E-026
  -2.2650000000000000E-002     6.1475995711097603E-026
  -2.2599999999999999E-002     7.0904737104742800E-026
  -2.2550000000000001E-002     6.5686324739111778E-026
  -2.2499999999999999E-002     4.2238883335707790E-026
  -2.2450000000000001E-002     5.1286136690875651E-028
  -2.2400000000000000E-002    -5.4767855506559396E-026
  -2.2349999999999998E-002    -1.1375067744954704E-025
  -2.2300000000000000E-002    -1.6239607975177853E-025
  -2.2249999999999999E-002    -1.8488785749256280E-025
  -2.2200000000000001E-002    -1.6731101707938298E-025
  -2.2150000000000000E-002    -1.0196588885431131E-025
  -2.2100000000000002E-002     8.6910664196325904E-027
  -2.2050000000000000E-002     1.4968380369731413E-025
  -2.1999999999999999E-002     2.9383670234393482E-025
  -2.1950000000000001E-002     4.0544211397023265E-025
  -2.1899999999999999E-002     4.4719522155028341E-025
  -2.1850000000000001E-002     3.8940006691761978E-025
  -2.1800000000000000E-002     2.1958952376188083E-025
  -2.1749999999999999E-002    -4.9860381314295760E-026
  -2.1700000000000001E-002    -3.7857738605393810E-025
  -2.1649999999999999E-002    -7.0135302274785981E-025
  -2.1600000000000001E-002    -9.3824870706493626E-025
  -2.1550000000000000E-002    -1.0106583201280481E-024
  -2.1499999999999998E-002    -8.6065001010534602E-025
  -2.1450000000000000E-002    -4.6957549945548287E-025
  -2.1399999999999999E-002     1.2865531578225794E-025
  -2.1350000000000001E-002     8.4382524587136408E-025
  -2.1299999999999999E-002     1.5379195225235820E-024
  -2.1250000000000002E-002     2.0463114300963497E-024
  -2.1200000000000000E-002     2.2092839223291664E-024
  -2.1149999999999999E-002     1.9088855059064886E-024
  -2.1100000000000001E-002     1.1041366233591520E-024
  -2.1049999999999999E-002    -1.4323857165241455E-025
  -2.1000000000000001E-002    -1.6597788036739494E-024
  -2.0950000000000000E-002    -3.1730900732394947E-024
  -2.0899999999999998E-002    -4.3482507258167535E-024
  -2.0850000000000000E-002    -4.8453101910293780E-024
  -2.0799999999999999E-002    -4.3907852047028460E-024
  -2.0750000000000001E-002    -2.8518358956315753E-024
  -2.0700000000000000E-002    -2.9868532322558980E-025
  -2.0649999999999998E-002     2.9603445108125707E-024
  -2.0600000000000000E-002     6.3853867611469344E-024
  -2.0549999999999999E-002     9.2627564661756651E-024
  -2.0500000000000001E-002     1.0815462623047145E-023
  -2.0449999999999999E-002     1.0357360723147012E-023
  -2.0400000000000001E-002     7.4694607226192110E-024
  -2.0350000000000000E-002     2.1654727523846100E-024
  -2.0299999999999999E-002    -4.9940601142226885E-024
  -2.0250000000000001E-002    -1.2880254190182000E-023
  -2.0199999999999999E-002    -1.9899050354709189E-023
  -2.0150000000000001E-002    -2.4231108631866448E-023
  -2.0100000000000000E-002    -2.4191133570344255E-023
  -2.0049999999999998E-002    -1.8655027714601471E-023
  -2.0000000000000000E-002    -7.4715952492476074E-024
  -1.9949999999999999E-002     8.2447145330814447E-024
  -1.9900000000000001E-002     2.6043401706529620E-023
  -1.9850000000000000E-002     4.2366798441447277E-023
  -1.9799999999999998E-002     5.3101842944345410E-023
  -1.9750000000000000E-002     5.4404907743013342E-023
  -1.9699999999999999E-002     4.3669428803198416E-023
  -1.9650000000000001E-002     2.0438231847382130E-023
  -1.9599999999999999E-002    -1.2972489572866768E-023
  -1.9550000000000001E-002    -5.1355874717395164E-023
  -1.9500000000000000E-002    -8.7149610987051851E-023
  -1.9449999999999999E-002    -1.1164484624007468E-022
  -1.9400000000000001E-002    -1.1673269051877724E-022
  -1.9349999999999999E-002    -9.6894915447535831E-023
  -1.9300000000000001E-002    -5.1026237178071171E-023
  -1.9250000000000000E-002     1.6368718127446363E-023
  -1.9199999999999998E-002     9.5005320199099422E-023
  -1.9150000000000000E-002     1.6991833559040376E-022
  -1.9099999999999999E-002     2.2382906438918269E-022
  -1.9050000000000001E-002     2.4049237259262140E-022
  -1.9000000000000000E-002     2.0846575544118509E-022
  -1.8949999999999998E-002     1.2455194632423075E-022
  -1.8900000000000000E-002    -3.8906877650690015E-024
  -1.8849999999999999E-002    -1.5846863868480905E-022
  -1.8800000000000001E-002    -3.1153125235641369E-022
  -1.8749999999999999E-002    -4.3023206204895395E-022
  -1.8700000000000001E-002    -4.8243151268624451E-022
  -1.8650000000000000E-002    -4.4355175835575178E-022
  -1.8599999999999998E-002    -3.0315439196359942E-022
  -1.8550000000000001E-002    -6.9860109455176394E-023
  -1.8499999999999999E-002     2.2668172604494351E-022
  -1.8450000000000001E-002     5.3771552603911617E-022
  -1.8400000000000000E-002     8.0154987531605970E-022
  -1.8349999999999998E-002     9.5357223614583988E-022
  -1.8300000000000000E-002     9.3887934829355324E-022
  -1.8249999999999999E-002     7.2553671210691255E-022
  -1.8200000000000001E-002     3.1594281928808404E-022
  -1.8149999999999999E-002    -2.4639312847276056E-022
  -1.8100000000000002E-002    -8.7703271215300529E-022
  -1.8050000000000000E-002    -1.4592517922309924E-021
  -1.7999999999999999E-002    -1.8612690028637814E-021
  -1.7950000000000001E-002    -1.9604339422692510E-021
  -1.7899999999999999E-002    -1.6709079755671741E-021
  -1.7850000000000001E-002    -9.6980388219611173E-022
  -1.7800000000000000E-002     8.4125380979429363E-023
  -1.7749999999999998E-002     1.3449665092634736E-021
  -1.7700000000000000E-002     2.5915094029496062E-021
  -1.7649999999999999E-002     3.5579000539701451E-021
  -1.7600000000000001E-002     3.9806849826116047E-021
  -1.7550000000000000E-002     3.6556738164898457E-021
  -1.7499999999999998E-002     2.4943719217941444E-021
  -1.7450000000000000E-002     5.6753358712981440E-022
  -1.7399999999999999E-002    -1.8764913023349103E-021
  -1.7350000000000001E-002    -4.4280068788682164E-021
  -1.7299999999999999E-002    -6.5705145538434667E-021
  -1.7250000000000001E-002    -7.7695116457740743E-021
  -1.7200000000000000E-002    -7.5831113468213296E-021
  -1.7149999999999999E-002    -5.7747304891739174E-021
  -1.7100000000000001E-002    -2.4037847729865968E-021
  -1.7049999999999999E-002     2.1294739195119090E-021
  -1.7000000000000001E-002     7.1033201481567632E-021
  -1.6950000000000000E-002     1.1565912048887904E-020
  -1.6899999999999998E-002     1.4492302649411823E-020
  -1.6850000000000000E-002     1.4985565879300446E-020
  -1.6799999999999999E-002     1.2487377330175138E-020
  -1.6750000000000001E-002     6.9554319338176887E-021
  -1.6700000000000000E-002    -1.0350488620646112E-021
  -1.6649999999999998E-002    -1.0299741181461302E-020
  -1.6600000000000000E-002    -1.9180366109448914E-020
  -1.6549999999999999E-002    -2.5800009548092582E-020
  -1.6500000000000001E-002    -2.8406541421178604E-020
  -1.6449999999999999E-002    -2.5749125900953784E-020
  -1.6400000000000001E-002    -1.7417466225529406E-020
  -1.6350000000000000E-002    -4.0698151254143444E-021
  -1.6299999999999999E-002     1.2513879701284378E-020
  -1.6250000000000001E-002     2.9592949614094861E-020
  -1.6199999999999999E-002     4.3844742178240432E-020
  -1.6150000000000001E-002     5.1922867823947308E-020
  -1.6100000000000000E-002     5.1115715843004218E-020
  -1.6049999999999998E-002     3.9993543000575766E-020
  -1.6000000000000000E-002     1.8915986078166482E-020
  -1.5949999999999999E-002    -9.7229403133736781E-021
  -1.5900000000000001E-002    -4.1605906207360515E-020
  -1.5850000000000000E-002    -7.1000561621183012E-020
  -1.5799999999999998E-002    -9.1636658244027962E-020
  -1.5750000000000000E-002    -9.7846941348579261E-020
  -1.5699999999999999E-002    -8.5795963529128141E-020
  -1.5650000000000001E-002    -5.4571259950602187E-020
  -1.5599999999999999E-002    -6.8960067519611569E-021
  -1.5550000000000001E-002     5.0748507106395763E-020
  -1.5500000000000000E-002     1.0872508260305799E-019
  -1.5449999999999998E-002     1.5558318883320150E-019
  -1.5400000000000000E-002     1.8001173653006944E-019
  -1.5349999999999999E-002     1.7312404802643063E-019
  -1.5300000000000001E-002     1.3067655458124977E-019
  -1.5250000000000000E-002     5.4760133618418879E-020
  -1.5199999999999998E-002    -4.5476247578104152E-020
  -1.5150000000000000E-002    -1.5439496549719612E-019
  -1.5099999999999999E-002    -2.5185275577788116E-019
  -1.5050000000000001E-002    -3.1644927603466893E-019
  -1.4999999999999999E-002    -3.2960668682496278E-019
  -1.4949999999999998E-002    -2.7979524903223980E-019
  -1.4900000000000000E-002    -1.6606941535333930E-019
  -1.4849999999999999E-002    -7.4160135063467824E-023
  -1.4800000000000001E-002     1.9414849806182822E-019
  -1.4749999999999999E-002     3.8288553995488069E-019
  -1.4700000000000001E-002     5.2788031196432924E-019
  -1.4650000000000000E-002     5.9321802647051938E-019
  -1.4599999999999998E-002     5.5286419187961035E-019
  -1.4550000000000000E-002     3.9744202674258836E-019
  -1.4499999999999999E-002     1.3876832828888722E-019
  -1.4450000000000001E-002    -1.8910965547747144E-019
  -1.4400000000000000E-002    -5.3312261452616281E-019
  -1.4349999999999998E-002    -8.2864228071723913E-019
  -1.4300000000000000E-002    -1.0103647574112327E-018
  -1.4249999999999999E-002    -1.0249814682135217E-018
  -1.4200000000000001E-002    -8.4341697124417926E-019
  -1.4149999999999999E-002    -4.7017875493652609E-019
  -1.4099999999999998E-002     5.2419871648807056E-020
  -1.4050000000000000E-002     6.4672817580147811E-019
  -1.3999999999999999E-002     1.2094103019771066E-018
  -1.3950000000000001E-002     1.6274645298487851E-018
  -1.3899999999999999E-002     1.7984613298939645E-018
  -1.3850000000000001E-002     1.6517455655492612E-018
  -1.3800000000000000E-002     1.1667037398556428E-018
  -1.3749999999999998E-002     3.8420160035420530E-019
  -1.3700000000000000E-002    -5.9197525877270070E-019
  -1.3649999999999999E-002    -1.6054163207621104E-018
  -1.3600000000000001E-002    -2.4689017568045342E-018
  -1.3550000000000000E-002    -2.9953259508123661E-018
  -1.3499999999999998E-002    -3.0332463206280803E-018
  -1.3450000000000000E-002    -2.5010326121178788E-018
  -1.3399999999999999E-002    -1.4129479026089347E-018
  -1.3350000000000001E-002     1.0900179505463896E-019
  -1.3299999999999999E-002     1.8418694094028703E-018
  -1.3249999999999998E-002     3.4887852177184599E-018
  -1.3200000000000000E-002     4.7241647295106751E-018
  -1.3149999999999998E-002     5.2512914150293385E-018
  -1.3100000000000001E-002     4.8631991174270897E-018
  -1.3049999999999999E-002     3.4957140268833688E-018
  -1.3000000000000001E-002     1.2612957462151638E-018
  -1.2950000000000000E-002    -1.5457702041934089E-018
  -1.2899999999999998E-002    -4.4782081632088522E-018
  -1.2850000000000000E-002    -6.9982594563130908E-018
  -1.2799999999999999E-002    -8.5669164499148212E-018